Title
81371
    1CHL1    C3    1   0.309   3.867  10.094  0.0244 -0.0278  0.4381
    1CHL1    H3    2   0.201   3.878  10.117  0.2222 -1.7021  2.4176
    1CHL1    O3    3   0.355   3.825  10.218 -0.5962  0.0236  0.5225
    1CHL1   H3'    4   0.443   3.794  10.196  0.0902  1.5404  1.0191
    1CHL1    C4    5   0.342   3.765   9.981  1.0341  0.1393 -0.0016
    1CHL1   H4A    6   0.453   3.761   9.975  1.1102  2.5331 -1.3738
    1CHL1   H4B    7   0.305   3.666  10.015 -0.4605  0.8510  0.5245
    1CHL1    C5    8   0.289   3.797   9.841  0.0645  0.1317  0.6485
    1CHL1    C6    9   0.202   3.721   9.785 -0.6258  0.3097  0.6862
    1CHL1    H6   10   0.172   3.631   9.841 -0.4773  1.4540  2.6966
    1CHL1    C7   11   0.145   3.735   9.650 -0.4040 -0.0930 -0.6404
    1CHL1   H7A   12   0.158   3.639   9.595 -0.1307 -1.5015  1.7412
    1CHL1   H7B   13   0.037   3.761   9.659 -0.1841  1.3067 -1.6233
    1CHL1    C8   14   0.227   3.840   9.569 -0.0695 -0.2616  0.5311
    1CHL1    H8   15   0.322   3.793   9.537  0.7280  1.2909  0.5355
    1CHL1   C14   16   0.149   3.880   9.451 -0.0993 -0.5741  0.9001
    1CHL1   H14   17   0.059   3.937   9.482  0.2690  1.2251 -1.0904
    1CHL1   C15   18   0.099   3.762   9.362  0.9630  0.6633  0.2578
    1CHL1  H15A   19   0.183   3.694   9.339 -0.1975 -0.6038 -0.3363
    1CHL1  H15B   20   0.021   3.696   9.407  1.8906  0.7966  2.1531
    1CHL1   C16   21   0.053   3.831   9.235  0.3510  0.0334  0.5042
    1CHL1  H16A   22   0.089   3.767   9.152 -0.8629  1.8504 -1.5067
    1CHL1  H16B   23  -0.058   3.825   9.234  0.4240 -2.8216  0.0064
    1CHL1   C17   24   0.109   3.974   9.237  0.4086 -0.4092 -0.5526
    1CHL1   H17   25   0.030   4.035   9.285 -0.1899 -0.8643 -0.9414
    1CHL1   C13   26   0.214   3.981   9.362  0.4524  0.5673 -0.2279
    1CHL1   C18   27   0.348   3.928   9.304 -0.6956 -0.3912 -0.2589
    1CHL1  H18A   28   0.336   3.834   9.247 -0.2070 -0.4901 -0.2071
    1CHL1  H18B   29   0.402   4.003   9.242 -0.7271 -1.1165 -1.1785
    1CHL1  H18C   30   0.416   3.911   9.390 -1.8730  0.1468  0.8041
    1CHL1   C12   31   0.231   4.114   9.443  0.2579 -0.1459 -0.0304
    1CHL1  H12A   32   0.261   4.201   9.381 -3.8101  0.4729 -1.4481
    1CHL1  H12B   33   0.133   4.152   9.481  0.5955 -0.0330  0.7545
    1CHL1   C11   34   0.325   4.084   9.569 -0.1181 -0.1953 -0.0460
    1CHL1  H11A   35   0.431   4.069   9.537  0.4984  1.1380  1.2394
    1CHL1  H11B   36   0.333   4.174   9.633  2.3023 -0.4084  0.0647
    1CHL1    C9   37   0.267   3.965   9.659 -0.3471  0.8644 -0.0225
    1CHL1    H9   38   0.164   3.998   9.684  0.4907  1.6889  2.7384
    1CHL1   C10   39   0.346   3.926   9.794  0.5870  0.0239 -0.3321
    1CHL1   C19   40   0.490   3.918   9.752 -0.3626  0.3542 -0.7434
    1CHL1  H19A   41   0.559   3.915   9.839  0.9897  1.1480 -1.7572
    1CHL1  H19B   42   0.526   3.829   9.696  2.7386 -0.6817  2.5086
    1CHL1  H19C   43   0.537   4.007   9.705  2.2415 -0.8199 -0.5372
    1CHL1    C1   44   0.316   4.035   9.902 -0.8186  0.3910  0.1409
    1CHL1   H1A   45   0.375   4.123   9.868  4.6405 -2.9651 -0.2862
    1CHL1   H1B   46   0.210   4.068   9.897 -0.5743  1.6533  2.1223
    1CHL1    C2   47   0.365   4.004  10.040  0.8370  0.6394 -1.0420
    1CHL1   H2A   48   0.334   4.086  10.108 -2.0197 -2.9042  2.3745
    1CHL1   H2B   49   0.476   4.006  10.036  0.9424  4.9852 -0.6416
    1CHL1   C20   50   0.153   4.041   9.109  0.5522  0.5939 -0.3725
    1CHL1   H20   51   0.238   4.108   9.136 -1.1805  2.4349  0.8157
    1CHL1   C21   52   0.037   4.132   9.056 -0.5172  0.2830 -0.0266
    1CHL1  H21A   53  -0.006   4.189   9.141  0.2577  2.0625 -0.7829
    1CHL1  H21B   54  -0.047   4.072   9.016 -0.2685  0.0282 -0.1750
    1CHL1  H21C   55   0.067   4.191   8.966 -2.4470  2.0745  0.4305
    1CHL1   C22   56   0.212   3.947   9.002  0.1204  0.0419  0.3768
    1CHL1  H22A   57   0.301   3.895   9.043  0.4903 -1.3102 -1.9852
    1CHL1  H22B   58   0.131   3.877   8.972  0.9542 -0.2615 -1.2484
    1CHL1   C23   59   0.257   4.011   8.876 -0.1585  1.0793  0.0539
    1CHL1  H23A   60   0.166   4.047   8.822 -0.7273 -1.2018 -0.6255
    1CHL1  H23B   61   0.313   4.104   8.899  0.2706  0.7914  0.1802
    1CHL1   C24   62   0.338   3.929   8.777 -0.3463  0.2406  0.3009
    1CHL1  H24A   63   0.429   3.883   8.821  0.2659  1.7628  0.6970
    1CHL1  H24B   64   0.270   3.851   8.738 -0.0941  0.3408 -0.3570
    1CHL1   C25   65   0.407   3.996   8.663 -0.0371  0.4079  0.5089
    1CHL1   H25   66   0.342   4.085   8.653 -0.7027 -0.1260 -0.0246
    1CHL1   C26   67   0.556   4.023   8.686  0.0304  0.7704  0.2454
    1CHL1  H26A   68   0.622   3.934   8.690 -3.1825 -1.8040  4.1694
    1CHL1  H26B   69   0.592   4.097   8.611 -0.4956  1.3306  0.5303
    1CHL1  H26C   70   0.563   4.071   8.787 -1.4253 -0.3536  0.9122
    1CHL1   C27   71   0.388   3.923   8.528 -0.7657  0.9718 -0.3231
    1CHL1  H27A   72   0.456   3.961   8.449  0.9172 -0.5876  0.2825
    1CHL1  H27B   73   0.413   3.816   8.544 -0.4044  1.1846  0.5741
    1CHL1  H27C   74   0.283   3.917   8.492 -0.7017  0.1094 -0.3907
    2CHL1    C3   75   2.144   1.718   9.962  1.1680  0.3915 -0.4129
    2CHL1    H3   76   2.034   1.717   9.946  0.8885  0.7549  1.3248
    2CHL1    O3   77   2.161   1.660  10.090  0.2375 -0.0402 -0.2280
    2CHL1   H3'   78   2.244   1.613  10.091  0.3397  0.0767  2.1360
    2CHL1    C4   79   2.226   1.644   9.864  0.1270  0.1133  0.5554
    2CHL1   H4A   80   2.335   1.638   9.886  0.4254  0.5475 -0.6695
    2CHL1   H4B   81   2.203   1.535   9.868  0.4690  0.0851  2.1092
    2CHL1    C5   82   2.227   1.706   9.729  0.3774 -0.9873  0.4868
    2CHL1    C6   83   2.180   1.634   9.621  0.1130 -0.0115 -0.3112
    2CHL1    H6   84   2.148   1.530   9.631  0.8775 -0.1410  1.0298
    2CHL1    C7   85   2.159   1.686   9.480 -0.6491 -0.3810  0.4314
    2CHL1   H7A   86   2.225   1.619   9.420  1.7590 -0.1838  2.6751
    2CHL1   H7B   87   2.049   1.690   9.466 -0.6084 -0.6830  0.0149
    2CHL1    C8   88   2.238   1.820   9.472  0.2452 -0.1849 -0.0318
    2CHL1    H8   89   2.345   1.791   9.481  0.9941  2.1443 -0.5263
    2CHL1   C14   90   2.199   1.875   9.338 -0.6195  0.0164 -0.0512
    2CHL1   H14   91   2.092   1.907   9.335 -0.2050  1.4868 -0.2322
    2CHL1   C15   92   2.210   1.787   9.210 -0.1053  0.1499 -0.2349
    2CHL1  H15A   93   2.295   1.717   9.222  1.0822  1.8979  2.9525
    2CHL1  H15B   94   2.127   1.716   9.189  0.4727  0.0630 -2.4896
    2CHL1   C16   95   2.226   1.893   9.099  0.0360  0.3207 -0.1063
    2CHL1  H16A   96   2.316   1.882   9.036 -0.1294  2.5938 -0.8386
    2CHL1  H16B   97   2.141   1.879   9.029  1.8472 -0.2021 -2.3225
    2CHL1   C17   98   2.230   2.032   9.163  0.2641  0.2919 -0.0031
    2CHL1   H17   99   2.128   2.074   9.180  0.5963  1.5585 -0.9800
    2CHL1   C13  100   2.272   2.005   9.309 -0.2235  0.1717  0.3278
    2CHL1   C18  101   2.423   1.974   9.307  1.0019  0.1608 -0.0855
    2CHL1  H18A  102   2.451   1.900   9.230 -0.4250 -1.1963  0.6615
    2CHL1  H18B  103   2.470   2.074   9.290 -0.6360  0.6581 -2.0923
    2CHL1  H18C  104   2.453   1.944   9.410 -1.0234  1.1524  0.8543
    2CHL1   C12  105   2.233   2.112   9.408  0.2070  0.0178  0.6292
    2CHL1  H12A  106   2.297   2.202   9.392  1.4562 -0.7595  1.1091
    2CHL1  H12B  107   2.128   2.148   9.404  0.5430  0.9296 -1.4387
    2CHL1   C11  108   2.263   2.062   9.553 -0.1033 -0.3893  0.2252
    2CHL1  H11A  109   2.373   2.078   9.553 -0.3184  1.6654 -2.3559
    2CHL1  H11B  110   2.217   2.132   9.625  0.8923  0.3082  0.1981
    2CHL1    C9  111   2.208   1.922   9.582 -0.0185  0.3297  0.3006
    2CHL1    H9  112   2.098   1.935   9.594  0.0078  0.2879  0.5978
    2CHL1   C10  113   2.254   1.867   9.718  0.0234 -0.2081  0.1379
    2CHL1   C19  114   2.404   1.883   9.747 -0.4429  0.3660 -0.3528
    2CHL1  H19A  115   2.422   1.984   9.788  2.2668 -0.9368  2.0320
    2CHL1  H19B  116   2.446   1.815   9.824  0.0771  0.2785 -0.7082
    2CHL1  H19C  117   2.468   1.881   9.656  1.0076  1.2626  0.5937
    2CHL1    C1  118   2.174   1.936   9.833  0.4907  0.0213  0.5664
    2CHL1   H1A  119   2.203   2.042   9.852  0.4059  0.0470  0.5566
    2CHL1   H1B  120   2.070   1.928   9.794  0.6903  2.2247 -0.5789
    2CHL1    C2  121   2.183   1.864   9.969 -0.8169 -0.2544 -0.3035
    2CHL1   H2A  122   2.127   1.931  10.038 -1.0221  2.2044 -2.6868
    2CHL1   H2B  123   2.290   1.870   9.997 -0.3260 -2.7184 -1.3903
    2CHL1   C20  124   2.295   2.147   9.080  0.1351  0.3521 -0.3400
    2CHL1   H20  125   2.332   2.218   9.157 -0.0365 -2.6050  2.7049
    2CHL1   C21  126   2.180   2.223   9.007 -0.1125  0.2552 -0.7395
    2CHL1  H21A  127   2.211   2.327   8.986  0.4948  0.2229 -0.0573
    2CHL1  H21B  128   2.085   2.232   9.062 -0.6400 -2.5779 -1.0327
    2CHL1  H21C  129   2.152   2.175   8.910  0.1390  1.7657 -1.5938
    2CHL1   C22  130   2.417   2.105   8.989 -0.0961 -0.3020  0.0460
    2CHL1  H22A  131   2.482   2.045   9.056 -2.2708 -2.7840  0.0651
    2CHL1  H22B  132   2.379   2.035   8.912 -1.9557  1.5783 -0.8410
    2CHL1   C23  133   2.493   2.210   8.900 -0.0764 -0.6305 -0.3893
    2CHL1  H23A  134   2.412   2.261   8.844 -0.7098  0.2721  1.2533
    2CHL1  H23B  135   2.550   2.269   8.975  3.2896 -5.0875  1.0076
    2CHL1   C24  136   2.584   2.133   8.802 -0.6661 -0.1661  0.9763
    2CHL1  H24A  137   2.650   2.068   8.863  0.0620  0.3027  0.6889
    2CHL1  H24B  138   2.526   2.057   8.745  1.2981 -1.9832  1.2774
    2CHL1   C25  139   2.672   2.214   8.708  0.4240  0.0360 -1.0594
    2CHL1   H25  140   2.744   2.274   8.768 -1.2606  0.8534  0.2588
    2CHL1   C26  141   2.757   2.120   8.619 -0.0117  0.7986  0.3513
    2CHL1  H26A  142   2.691   2.095   8.533 -0.5987  1.2752  0.6543
    2CHL1  H26B  143   2.841   2.185   8.586  1.4269  0.1349  2.4739
    2CHL1  H26C  144   2.788   2.023   8.661 -1.8067 -0.9556 -2.0967
    2CHL1   C27  145   2.599   2.315   8.610 -0.0337  0.0793 -0.3552
    2CHL1  H27A  146   2.525   2.264   8.545 -0.0486  0.5024 -0.6744
    2CHL1  H27B  147   2.547   2.390   8.673  0.1078 -0.7284  0.7558
    2CHL1  H27C  148   2.671   2.368   8.543 -0.1991 -0.0271 -0.6171
    3CHL1    C3  149   3.023   2.142  10.192  0.0781  0.1793 -0.1424
    3CHL1    H3  150   2.946   2.072  10.154 -0.4503 -0.8646  2.6186
    3CHL1    O3  151   3.013   2.149  10.337  0.4718 -0.4797  0.9071
    3CHL1   H3'  152   3.101   2.156  10.373  0.8312 -1.2208  0.2035
    3CHL1    C4  153   3.156   2.076  10.160  1.1589 -0.0411  0.4406
    3CHL1   H4A  154   3.234   2.146  10.198 -0.0917  0.8855  1.3582
    3CHL1   H4B  155   3.167   1.976  10.207 -1.0013 -0.1429  0.8225
    3CHL1    C5  156   3.181   2.075  10.007  0.9644 -0.7240  0.5655
    3CHL1    C6  157   3.210   1.959   9.939 -0.1838  0.1112 -0.7972
    3CHL1    H6  158   3.213   1.866   9.998 -0.0271  0.3439 -0.4335
    3CHL1    C7  159   3.236   1.950   9.793 -0.5144  0.3050  0.2639
    3CHL1   H7A  160   3.328   1.889   9.780 -1.4760 -1.2882  0.5947
    3CHL1   H7B  161   3.150   1.905   9.738  1.4261  0.3569 -3.1098
    3CHL1    C8  162   3.259   2.090   9.730  0.0347  0.1048  0.4393
    3CHL1    H8  163   3.361   2.117   9.766  0.6238 -0.1068 -1.0036
    3CHL1   C14  164   3.265   2.080   9.574 -0.7481  0.7090 -0.1208
    3CHL1   H14  165   3.166   2.035   9.554  0.6675 -3.0183  0.4945
    3CHL1   C15  166   3.365   1.980   9.505  0.2120  0.0990 -0.3732
    3CHL1  H15A  167   3.460   1.983   9.563 -0.3457 -1.2192  0.6678
    3CHL1  H15B  168   3.328   1.876   9.496  2.1458 -0.7605  0.9050
    3CHL1   C16  169   3.382   2.034   9.364  0.0409 -0.5317 -0.6429
    3CHL1  H16A  170   3.482   2.079   9.345 -0.0211 -1.0158 -2.3210
    3CHL1  H16B  171   3.358   1.958   9.286  0.3957 -0.7355 -0.5564
    3CHL1   C17  172   3.286   2.160   9.359 -0.6133  0.2144 -0.6064
    3CHL1   H17  173   3.189   2.111   9.334 -0.2297 -0.8375 -0.1220
    3CHL1   C13  174   3.278   2.211   9.504  0.4719 -0.2224  0.3781
    3CHL1   C18  175   3.411   2.273   9.536 -0.4519 -0.2773 -0.4453
    3CHL1  H18A  176   3.424   2.373   9.490 -0.3237  0.2208  0.6422
    3CHL1  H18B  177   3.425   2.296   9.643 -1.2795 -0.3336 -0.3167
    3CHL1  H18C  178   3.491   2.208   9.496 -0.8304  0.4746 -2.5923
    3CHL1   C12  179   3.156   2.306   9.544  0.1848  0.2567 -0.2566
    3CHL1  H12A  180   3.167   2.402   9.490  1.1322 -1.0360 -2.4708
    3CHL1  H12B  181   3.068   2.247   9.511  2.4612 -4.0602  0.6432
    3CHL1   C11  182   3.150   2.333   9.698  0.5063  0.2417 -0.1424
    3CHL1  H11A  183   3.240   2.396   9.710 -0.0388  1.1218 -0.5854
    3CHL1  H11B  184   3.057   2.390   9.720 -0.6690 -1.2480 -1.0455
    3CHL1    C9  185   3.154   2.193   9.773  0.0285  0.3225  0.5766
    3CHL1    H9  186   3.056   2.147   9.748  1.0352 -1.2700 -0.6453
    3CHL1   C10  187   3.159   2.211   9.932  1.0866  0.2388 -0.4963
    3CHL1   C19  188   3.280   2.299   9.968 -0.3742  0.2026 -0.3266
    3CHL1  H19A  189   3.260   2.405   9.939 -0.0378  0.3284 -0.1011
    3CHL1  H19B  190   3.294   2.311  10.078  1.4065 -2.0827 -0.2508
    3CHL1  H19C  191   3.378   2.267   9.928 -0.9356 -0.1582 -1.4398
    3CHL1    C1  192   3.028   2.275   9.983  0.1758  0.0508  0.4824
    3CHL1   H1A  193   3.012   2.378   9.945  0.7515 -0.2108 -0.5126
    3CHL1   H1B  194   2.941   2.220   9.941  1.2548 -0.4329 -1.2280
    3CHL1    C2  195   3.011   2.286  10.141  0.1568 -0.2396 -0.1296
    3CHL1   H2A  196   2.909   2.329  10.158 -0.3019 -0.4164 -2.1915
    3CHL1   H2B  197   3.087   2.348  10.192  0.4780 -0.0819 -0.7905
    3CHL1   C20  198   3.314   2.260   9.242 -0.1551  0.4250  0.6236
    3CHL1   H20  199   3.399   2.313   9.289 -0.6012 -0.2435  2.2607
    3CHL1   C21  200   3.210   2.368   9.211  0.5899 -0.7339 -0.5042
    3CHL1  H21A  201   3.234   2.411   9.112  2.2800 -0.1358  0.1324
    3CHL1  H21B  202   3.180   2.441   9.289 -1.1366 -1.5261 -0.3675
    3CHL1  H21C  203   3.120   2.303   9.210  2.8436 -4.1409  0.3852
    3CHL1   C22  204   3.360   2.190   9.109  0.1127  0.1586  0.4799
    3CHL1  H22A  205   3.380   2.275   9.040 -2.3230  1.1743  0.9185
    3CHL1  H22B  206   3.457   2.141   9.130 -0.6432 -1.2686  0.7674
    3CHL1   C23  207   3.250   2.096   9.050 -0.0524 -0.0691  0.0514
    3CHL1  H23A  208   3.214   2.030   9.131 -0.5129  1.8137  1.4478
    3CHL1  H23B  209   3.157   2.150   9.019  0.9722  1.8711  0.2063
    3CHL1   C24  210   3.301   2.026   8.922 -0.2660 -0.2988  0.3653
    3CHL1  H24A  211   3.297   2.108   8.847 -0.1404 -0.0258  0.6580
    3CHL1  H24B  212   3.402   1.981   8.931  0.0799 -0.1190 -1.8648
    3CHL1   C25  213   3.204   1.917   8.873 -0.6862  0.0188  0.0991
    3CHL1   H25  214   3.103   1.962   8.887 -0.5000  0.2496  0.7329
    3CHL1   C26  215   3.234   1.886   8.725  0.6736 -0.4214 -0.3100
    3CHL1  H26A  216   3.155   1.832   8.669 -0.0057 -0.4533  0.6515
    3CHL1  H26B  217   3.255   1.982   8.673  1.8728 -0.0059  0.8750
    3CHL1  H26C  218   3.329   1.830   8.713 -0.2214 -2.1298  0.3549
    3CHL1   C27  219   3.221   1.794   8.958  0.5259  0.3482 -0.2332
    3CHL1  H27A  220   3.175   1.819   9.056  0.0339  0.8303 -0.5819
    3CHL1  H27B  221   3.152   1.716   8.919 -0.2255  1.0651 -0.3737
    3CHL1  H27C  222   3.323   1.751   8.959 -0.1092 -1.2701  1.7399
    4CHL1    C3  223   6.421   4.113  10.279  0.2385  0.0074 -0.6471
    4CHL1    H3  224   6.315   4.145  10.269 -0.0576  0.6057  3.1278
    4CHL1    O3  225   6.464   4.099  10.414  0.4107 -0.5357  0.1124
    4CHL1   H3'  226   6.458   4.188  10.449  1.5977 -0.4045  0.0216
    4CHL1    C4  227   6.440   3.973  10.210  0.6644 -0.1060 -0.1168
    4CHL1   H4A  228   6.543   3.937  10.228  1.4434  1.4051 -1.3586
    4CHL1   H4B  229   6.369   3.905  10.262 -0.0748 -0.7267 -1.8420
    4CHL1    C5  230   6.417   3.978  10.057 -0.2849 -0.7799 -0.0867
    4CHL1    C6  231   6.323   3.907   9.997 -0.1243  0.5782 -0.0079
    4CHL1    H6  232   6.270   3.831  10.057  0.6051 -0.3650 -0.5316
    4CHL1    C7  233   6.295   3.904   9.848 -0.2158  0.0784  0.8740
    4CHL1   H7A  234   6.274   3.803   9.806  1.5797 -0.2399  0.6341
    4CHL1   H7B  235   6.202   3.964   9.836  1.1475  2.1475  0.0374
    4CHL1    C8  236   6.413   3.969   9.761  0.2663 -0.6614 -0.3320
    4CHL1    H8  237   6.503   3.905   9.769  0.4712 -0.2397  0.9555
    4CHL1   C14  238   6.366   3.999   9.625 -0.2726 -0.1675 -0.8547
    4CHL1   H14  239   6.279   4.066   9.643 -0.2427 -0.2207 -0.4989
    4CHL1   C15  240   6.297   3.883   9.541 -0.5070 -0.5857  0.1194
    4CHL1  H15A  241   6.368   3.800   9.559 -1.3593 -1.6098 -1.0945
    4CHL1  H15B  242   6.199   3.853   9.583  0.3103  1.8695  4.3760
    4CHL1   C16  243   6.308   3.929   9.395 -0.3704 -0.3817  0.2104
    4CHL1  H16A  244   6.365   3.860   9.328 -1.5321  0.5194 -1.7772
    4CHL1  H16B  245   6.207   3.941   9.351 -0.8504  0.3692  1.4767
    4CHL1   C17  246   6.384   4.070   9.397  0.3902 -0.0098 -0.2359
    4CHL1   H17  247   6.305   4.147   9.403  0.0690 -0.3742  0.3224
    4CHL1   C13  248   6.466   4.063   9.529  0.2045 -0.5877 -0.2056
    4CHL1   C18  249   6.581   3.961   9.505  0.6572 -0.3349  0.5778
    4CHL1  H18A  250   6.564   3.866   9.450  1.3718  1.0861 -2.3511
    4CHL1  H18B  251   6.657   4.014   9.443 -1.6734  2.6458  0.0328
    4CHL1  H18C  252   6.628   3.931   9.601  1.7292 -0.6872 -0.0415
    4CHL1   C12  253   6.516   4.190   9.592  0.2577  0.1863  0.8843
    4CHL1  H12A  254   6.599   4.237   9.536 -1.0301  0.6314 -0.7158
    4CHL1  H12B  255   6.443   4.273   9.586  3.1577  2.8203 -2.2078
    4CHL1   C11  256   6.571   4.168   9.733  0.2062 -0.1176  0.3654
    4CHL1  H11A  257   6.659   4.101   9.725 -0.7421 -1.6746  2.3076
    4CHL1  H11B  258   6.603   4.262   9.783 -2.5426  0.1748  1.7654
    4CHL1    C9  259   6.454   4.102   9.825 -0.2846  0.6086 -0.0950
    4CHL1    H9  260   6.373   4.178   9.830 -0.7946 -0.0043  2.7325
    4CHL1   C10  261   6.502   4.079   9.977 -0.3687 -0.2628  0.5920
    4CHL1   C19  262   6.642   4.018   9.972  0.1092 -0.0405 -0.1057
    4CHL1  H19A  263   6.653   3.934   9.900 -0.4231 -0.5442  0.3963
    4CHL1  H19B  264   6.712   4.099   9.941  0.9912  0.4061  2.7761
    4CHL1  H19C  265   6.688   3.986  10.068  1.3816 -0.8277 -0.9394
    4CHL1    C1  266   6.497   4.215  10.050  0.0198  0.9610 -0.4259
    4CHL1   H1A  267   6.579   4.277  10.006  0.2258  0.5258 -0.6566
    4CHL1   H1B  268   6.400   4.267  10.036 -0.5147 -0.1317 -0.8775
    4CHL1    C2  269   6.519   4.204  10.205 -0.5262 -0.4941 -0.0334
    4CHL1   H2A  270   6.527   4.310  10.238 -0.3302 -0.1775 -1.0856
    4CHL1   H2B  271   6.623   4.166  10.213  0.9839  3.3429  0.2329
    4CHL1   C20  272   6.463   4.101   9.267 -0.8995 -0.0022 -0.5998
    4CHL1   H20  273   6.535   4.021   9.242  0.1272  0.5183  0.5576
    4CHL1   C21  274   6.536   4.232   9.268 -0.9914 -0.0288  0.5449
    4CHL1  H21A  275   6.480   4.318   9.310  0.3500  0.3447  1.6131
    4CHL1  H21B  276   6.559   4.266   9.164 -2.8198  0.5066  0.2776
    4CHL1  H21C  277   6.631   4.238   9.325  0.2582  3.1878 -1.5783
    4CHL1   C22  278   6.365   4.107   9.145  0.6022 -0.0746 -0.9631
    4CHL1  H22A  279   6.304   4.015   9.145  0.2159  0.1248  1.0406
    4CHL1  H22B  280   6.291   4.190   9.152 -0.4278 -1.0083 -0.7085
    4CHL1   C23  281   6.425   4.111   9.004  0.5487  0.2964  0.5694
    4CHL1  H23A  282   6.485   4.204   9.001 -0.6628  1.1213  0.7878
    4CHL1  H23B  283   6.499   4.029   9.003  1.3661  1.0189  0.9340
    4CHL1   C24  284   6.327   4.112   8.883 -0.0173  0.7243  0.5035
    4CHL1  H24A  285   6.246   4.186   8.898  0.7379  1.5973  0.3689
    4CHL1  H24B  286   6.379   4.148   8.792 -1.4730 -0.0086 -0.6688
    4CHL1   C25  287   6.268   3.977   8.839  0.2084 -0.5110 -0.0010
    4CHL1   H25  288   6.188   3.958   8.914  0.2523  0.6333  0.3700
    4CHL1   C26  289   6.201   4.004   8.710 -0.1404 -0.8219  0.2009
    4CHL1  H26A  290   6.145   3.916   8.673 -2.3720  0.4044  0.5365
    4CHL1  H26B  291   6.140   4.097   8.723 -1.5475 -1.6567 -0.2787
    4CHL1  H26C  292   6.279   4.032   8.636 -0.5235  0.5169  0.2613
    4CHL1   C27  293   6.368   3.860   8.834  0.0615  0.1810  0.0978
    4CHL1  H27A  294   6.452   3.894   8.770  0.3250  0.5449  0.6286
    4CHL1  H27B  295   6.410   3.842   8.935 -1.8853  0.1611  0.9457
    4CHL1  H27C  296   6.304   3.782   8.787  1.7943 -1.0415 -0.3126
    5CHL1    C3  297   4.129   1.065  10.153  0.0143  0.5102 -0.1836
    5CHL1    H3  298   4.116   1.175  10.152  0.4406  0.5743 -2.1096
    5CHL1    O3  299   4.118   1.017  10.289 -0.0120  0.1157  0.0404
    5CHL1   H3'  300   4.128   0.921  10.292  0.7246  0.1940  0.1142
    5CHL1    C4  301   4.017   1.002  10.064  0.7584  0.1755  0.0586
    5CHL1   H4A  302   4.024   0.892  10.082  0.9934  0.0988 -0.4869
    5CHL1   H4B  303   3.917   1.038  10.097  1.5221  1.2516  1.2871
    5CHL1    C5  304   4.041   1.032   9.913 -0.1294  0.6662 -0.5651
    5CHL1    C6  305   3.939   1.075   9.841  0.1814 -0.4828 -0.1051
    5CHL1    H6  306   3.840   1.083   9.888 -0.6867  1.0249 -2.0295
    5CHL1    C7  307   3.944   1.110   9.693  0.3740  0.5611  0.3256
    5CHL1   H7A  308   3.847   1.082   9.645 -0.1473  0.2456  1.5338
    5CHL1   H7B  309   3.955   1.218   9.672  0.9555  0.7962  1.7511
    5CHL1    C8  310   4.053   1.025   9.627  0.2511 -0.4659 -0.6947
    5CHL1    H8  311   4.025   0.918   9.632 -1.0655 -0.1197 -0.2559
    5CHL1   C14  312   4.069   1.078   9.486 -0.2165 -0.4749  0.6299
    5CHL1   H14  313   4.089   1.187   9.499 -0.9021 -0.2606 -0.0498
    5CHL1   C15  314   3.948   1.070   9.399 -0.0035 -0.0200  1.2636
    5CHL1  H15A  315   3.915   0.963   9.400 -3.1939  0.8142 -0.6929
    5CHL1  H15B  316   3.866   1.143   9.414  0.0396  0.4690 -0.7034
    5CHL1   C16  317   4.002   1.092   9.255 -0.9137 -1.0353  0.0812
    5CHL1  H16A  318   3.972   1.000   9.200  1.7709 -1.8045 -0.2531
    5CHL1  H16B  319   3.964   1.183   9.204 -0.3191 -1.5116 -1.2623
    5CHL1   C17  320   4.155   1.087   9.272 -0.1372 -0.0659 -0.2517
    5CHL1   H17  321   4.184   1.193   9.283  2.3321 -0.6957 -0.2450
    5CHL1   C13  322   4.186   1.016   9.408  0.3608  0.5269  0.5578
    5CHL1   C18  323   4.161   0.868   9.391  0.2879 -0.1956 -0.3636
    5CHL1  H18A  324   4.119   0.822   9.484  0.2313 -1.9476 -1.2062
    5CHL1  H18B  325   4.092   0.855   9.305 -0.0837 -0.9592  0.0415
    5CHL1  H18C  326   4.259   0.816   9.380  0.0412 -0.4357 -1.6239
    5CHL1   C12  327   4.318   1.051   9.489 -0.1853 -0.3821 -0.0792
    5CHL1  H12A  328   4.399   1.000   9.433 -1.8596 -4.0953  0.6126
    5CHL1  H12B  329   4.330   1.161   9.482 -2.6274  0.2342  2.9388
    5CHL1   C11  330   4.310   0.998   9.630  0.3246 -0.2025 -0.0891
    5CHL1  H11A  331   4.329   0.888   9.630  1.1164 -0.0772  0.0993
    5CHL1  H11B  332   4.402   1.033   9.682 -0.3565  0.6567  0.5690
    5CHL1    C9  333   4.186   1.047   9.706 -0.5012  0.0225 -0.4203
    5CHL1    H9  334   4.210   1.156   9.710  2.5365 -0.6012  1.1814
    5CHL1   C10  335   4.178   1.002   9.855 -0.7153  0.0350 -0.2657
    5CHL1   C19  336   4.189   0.846   9.852  0.5848 -0.6374  0.4674
    5CHL1  H19A  337   4.293   0.812   9.835  0.3747 -1.3439  0.5869
    5CHL1  H19B  338   4.147   0.808   9.948 -2.7925  0.1789 -0.5760
    5CHL1  H19C  339   4.125   0.806   9.771  3.3041 -3.0140 -0.6624
    5CHL1    C1  340   4.280   1.072   9.947 -0.3285 -0.4970 -0.5420
    5CHL1   H1A  341   4.386   1.055   9.918  0.2088 -0.4804  1.2699
    5CHL1   H1B  342   4.263   1.182   9.954  1.9785 -0.1176 -0.1543
    5CHL1    C2  343   4.268   1.038  10.094  0.8580 -0.4347  0.1044
    5CHL1   H2A  344   4.345   1.104  10.138 -0.3360  1.0577  0.0498
    5CHL1   H2B  345   4.290   0.931  10.111  0.2401 -0.6023 -0.1116
    5CHL1   C20  346   4.237   1.032   9.149  0.3855 -0.0968  0.3788
    5CHL1   H20  347   4.236   0.921   9.157  1.3843 -0.1423 -0.0515
    5CHL1   C21  348   4.386   1.068   9.148 -0.6238 -0.5740  0.5278
    5CHL1  H21A  349   4.449   1.016   9.072 -0.7006  2.3534 -1.7016
    5CHL1  H21B  350   4.421   1.046   9.251 -1.2150  1.3460  1.1674
    5CHL1  H21C  351   4.406   1.175   9.125  2.1579 -1.0604  0.2645
    5CHL1   C22  352   4.177   1.071   9.006  0.3304 -0.3431 -0.4329
    5CHL1  H22A  353   4.254   1.034   8.934  0.7691  0.2782 -0.2872
    5CHL1  H22B  354   4.084   1.012   8.991  0.5291 -0.8320  0.1897
    5CHL1   C23  355   4.171   1.222   8.976 -0.6599  0.1222 -0.0982
    5CHL1  H23A  356   4.118   1.264   9.065 -2.9488 -1.4223 -0.6320
    5CHL1  H23B  357   4.276   1.253   8.962 -0.7619  0.2980 -0.4606
    5CHL1   C24  358   4.098   1.255   8.842 -0.2430  0.6118 -0.7273
    5CHL1  H24A  359   4.142   1.185   8.767  0.2806  1.1763 -0.9600
    5CHL1  H24B  360   3.994   1.218   8.848 -0.2208 -0.0141 -3.0350
    5CHL1   C25  361   4.110   1.401   8.808  0.4533 -1.1861 -0.7670
    5CHL1   H25  362   4.216   1.432   8.814 -0.2822  1.3264  0.5796
    5CHL1   C26  363   4.056   1.432   8.664 -0.6229 -0.1877 -0.1556
    5CHL1  H26A  364   4.084   1.537   8.643 -0.0536 -0.9881 -4.3155
    5CHL1  H26B  365   4.105   1.366   8.589  1.5028 -1.1728  1.9874
    5CHL1  H26C  366   3.945   1.418   8.669 -0.6476  0.3740  1.1526
    5CHL1   C27  367   4.035   1.491   8.897  0.2040  0.1745  0.1160
    5CHL1  H27A  368   4.081   1.486   8.997  0.3339 -0.2901  0.0352
    5CHL1  H27B  369   4.038   1.596   8.863 -1.5396 -0.1895 -1.3173
    5CHL1  H27C  370   3.928   1.460   8.908  0.3588  0.1320  1.7580
    6CHL1    C3  371   6.121   0.399  10.149 -0.0315 -0.0775 -0.0447
    6CHL1    H3  372   6.041   0.331  10.113 -0.7624  0.5221  0.4204
    6CHL1    O3  373   6.125   0.401  10.293  0.1578 -0.1726  0.6063
    6CHL1   H3'  374   6.181   0.473  10.324  0.9439 -0.1978 -0.6992
    6CHL1    C4  375   6.253   0.340  10.101 -0.5436  0.0391 -0.1237
    6CHL1   H4A  376   6.344   0.391  10.139 -0.7752  1.3032 -1.1650
    6CHL1   H4B  377   6.261   0.241  10.150 -0.5219 -0.4685 -1.1100
    6CHL1    C5  378   6.261   0.328   9.956 -0.4879 -0.0580 -0.2863
    6CHL1    C6  379   6.278   0.217   9.889 -0.0847 -0.4994 -0.4179
    6CHL1    H6  380   6.295   0.125   9.947 -0.7495 -0.4809 -0.1827
    6CHL1    C7  381   6.290   0.196   9.743  0.0127 -0.0087 -0.1522
    6CHL1   H7A  382   6.368   0.121   9.717 -1.9827 -2.1022 -0.4446
    6CHL1   H7B  383   6.196   0.146   9.710 -0.0484  0.6487 -1.0280
    6CHL1    C8  384   6.302   0.334   9.667 -0.6325 -0.1027  0.2541
    6CHL1    H8  385   6.403   0.378   9.680 -0.1122 -0.8634 -0.9742
    6CHL1   C14  386   6.276   0.327   9.515 -0.0505 -0.1124 -0.2579
    6CHL1   H14  387   6.168   0.301   9.518  0.1375 -0.8641  0.4088
    6CHL1   C15  388   6.340   0.215   9.434  0.1159  0.2175  0.0705
    6CHL1  H15A  389   6.450   0.198   9.441  0.1866  0.3820 -0.5713
    6CHL1  H15B  390   6.279   0.125   9.460 -0.5839  1.3619  2.6604
    6CHL1   C16  391   6.306   0.253   9.283  0.4411 -0.0936 -0.3599
    6CHL1  H16A  392   6.403   0.258   9.229  0.8071  0.8556  0.3536
    6CHL1  H16B  393   6.249   0.166   9.243  2.2082 -2.0504  1.1899
    6CHL1   C17  394   6.241   0.393   9.284  0.6778  0.4098  0.0443
    6CHL1   H17  395   6.137   0.357   9.302  1.1433 -0.3573  1.3185
    6CHL1   C13  396   6.280   0.456   9.427  0.8593  0.0099  1.2389
    6CHL1   C18  397   6.411   0.520   9.421 -0.9350  0.2172 -0.1934
    6CHL1  H18A  398   6.448   0.566   9.515 -1.0878 -1.1084  0.5318
    6CHL1  H18B  399   6.480   0.434   9.404 -1.9282 -1.1834  2.3126
    6CHL1  H18C  400   6.417   0.606   9.350  2.1380  2.0184  1.9916
    6CHL1   C12  401   6.184   0.561   9.492  0.4691 -0.5354  0.2635
    6CHL1  H12A  402   6.209   0.654   9.437 -0.5011  0.6638  1.7407
    6CHL1  H12B  403   6.078   0.535   9.471  0.3217  0.9134 -0.9498
    6CHL1   C11  404   6.194   0.570   9.646  0.2332  0.0308  0.1683
    6CHL1  H11A  405   6.274   0.647   9.656 -0.4555  0.9141 -0.9714
    6CHL1  H11B  406   6.102   0.625   9.675  0.3107  0.7008 -0.8132
    6CHL1    C9  407   6.206   0.441   9.727  0.4538  0.3295 -0.0654
    6CHL1    H9  408   6.106   0.394   9.715 -1.3155  3.3965  1.5317
    6CHL1   C10  409   6.229   0.459   9.881 -0.1651 -0.2589 -0.8351
    6CHL1   C19  410   6.356   0.553   9.887 -0.0087  0.6392  0.1736
    6CHL1  H19A  411   6.332   0.659   9.865  1.6697  0.8313 -0.9260
    6CHL1  H19B  412   6.404   0.555   9.987  2.9320  0.8308 -1.1167
    6CHL1  H19C  413   6.441   0.519   9.823  0.2201 -2.9866  2.0808
    6CHL1    C1  414   6.110   0.533   9.942 -0.2270  0.0098 -0.9125
    6CHL1   H1A  415   6.099   0.637   9.907 -1.1482 -0.5620 -2.4274
    6CHL1   H1B  416   6.021   0.477   9.906 -0.3347 -1.3176  1.2497
    6CHL1    C2  417   6.112   0.542  10.097  1.1991  0.3670  0.1727
    6CHL1   H2A  418   6.021   0.589  10.140  0.6599 -1.2664  0.9065
    6CHL1   H2B  419   6.194   0.606  10.136  0.7646  0.0267  1.6955
    6CHL1   C20  420   6.239   0.467   9.150  0.5302 -0.1498 -0.4587
    6CHL1   H20  421   6.334   0.524   9.143  0.1735  0.7758  1.6744
    6CHL1   C21  422   6.120   0.557   9.153  0.1208 -0.3782  1.2082
    6CHL1  H21A  423   6.019   0.513   9.135  0.0641  0.0502  0.4257
    6CHL1  H21B  424   6.117   0.622   9.063  0.0385 -2.1704 -0.1435
    6CHL1  H21C  425   6.124   0.637   9.230  1.3453  2.9771 -2.0210
    6CHL1   C22  426   6.245   0.387   9.020 -0.0134 -0.1211  0.4952
    6CHL1  H22A  427   6.317   0.302   9.019 -1.7058 -1.6134 -0.7535
    6CHL1  H22B  428   6.148   0.333   9.013 -0.6588  0.8764  1.3183
    6CHL1   C23  429   6.262   0.473   8.898 -0.3701 -0.0452  0.4968
    6CHL1  H23A  430   6.163   0.516   8.873  0.0136 -0.0908 -1.2207
    6CHL1  H23B  431   6.338   0.549   8.924  0.5697 -0.7907 -0.0054
    6CHL1   C24  432   6.293   0.388   8.777  0.0766 -0.1871 -0.2906
    6CHL1  H24A  433   6.396   0.347   8.776 -0.0951 -0.8863  2.4312
    6CHL1  H24B  434   6.224   0.301   8.785  0.2495 -0.2498  0.6133
    6CHL1   C25  435   6.274   0.453   8.637  0.1751  0.5589  0.6990
    6CHL1   H25  436   6.184   0.518   8.645  0.8313  1.6219 -0.2366
    6CHL1   C26  437   6.398   0.541   8.613 -0.1190 -0.3765 -0.2031
    6CHL1  H26A  438   6.384   0.644   8.653 -2.0436  0.0212 -1.7283
    6CHL1  H26B  439   6.487   0.501   8.666  2.6902 -0.6679 -4.6695
    6CHL1  H26C  440   6.418   0.554   8.505 -0.5266  0.7313 -0.1610
    6CHL1   C27  441   6.249   0.340   8.531 -0.8451 -0.6794  0.1575
    6CHL1  H27A  442   6.170   0.269   8.565 -0.4762  0.1552  3.0669
    6CHL1  H27B  443   6.210   0.378   8.435  2.5971 -1.1826 -1.6100
    6CHL1  H27C  444   6.346   0.287   8.516  0.1071  0.8452  0.7061
    7CHL1    C3  445   4.363   2.293  10.348  0.1123  0.2381 -0.1879
    7CHL1    H3  446   4.266   2.347  10.349  0.1241  0.2634 -0.4765
    7CHL1    O3  447   4.374   2.233  10.474  0.1349  0.6742  0.2086
    7CHL1   H3'  448   4.317   2.156  10.476  0.8865  0.1062  2.0887
    7CHL1    C4  449   4.353   2.191  10.242  0.9518  0.1453  0.0213
    7CHL1   H4A  450   4.441   2.124  10.246  0.9589 -0.1836 -3.2768
    7CHL1   H4B  451   4.269   2.126  10.275  0.2542  0.5050 -0.9955
    7CHL1    C5  452   4.348   2.249  10.103  0.8826 -0.4111 -0.1866
    7CHL1    C6  453   4.254   2.228  10.007  0.2207  0.3172 -0.5633
    7CHL1    H6  454   4.166   2.165  10.030 -0.2943 -0.1533 -3.4244
    7CHL1    C7  455   4.255   2.273   9.864  0.1486 -0.7362 -0.1405
    7CHL1   H7A  456   4.250   2.185   9.797 -0.1471 -0.6581 -0.2235
    7CHL1   H7B  457   4.166   2.339   9.851  0.3922 -0.2641  0.5585
    7CHL1    C8  458   4.390   2.339   9.819  0.0342  0.2613  0.3567
    7CHL1    H8  459   4.449   2.247   9.798  1.1044  1.5693 -3.0265
    7CHL1   C14  460   4.380   2.426   9.695  0.6042 -0.6383  0.4457
    7CHL1   H14  461   4.322   2.514   9.729  0.9773 -0.9768  2.0587
    7CHL1   C15  462   4.312   2.368   9.571  0.4921 -0.5048 -0.2794
    7CHL1  H15A  463   4.323   2.260   9.548  3.0792 -0.2813 -0.3938
    7CHL1  H15B  464   4.203   2.384   9.583  0.8784  0.8009  2.0870
    7CHL1   C16  465   4.367   2.447   9.453  0.0155 -0.4767 -0.8453
    7CHL1  H16A  466   4.433   2.383   9.390  3.5398  1.0216  1.0005
    7CHL1  H16B  467   4.288   2.497   9.394 -1.7843 -2.2131 -0.0046
    7CHL1   C17  468   4.472   2.546   9.516  0.7138 -0.0886  0.3961
    7CHL1   H17  469   4.405   2.629   9.547 -0.3494 -0.6581 -0.3013
    7CHL1   C13  470   4.515   2.474   9.643  0.1982  0.3769  0.0861
    7CHL1   C18  471   4.611   2.358   9.610  0.0924 -0.0213  0.0153
    7CHL1  H18A  472   4.569   2.292   9.531 -0.5226  0.8528 -0.4059
    7CHL1  H18B  473   4.708   2.405   9.580 -1.1006  1.6256 -1.4456
    7CHL1  H18C  474   4.628   2.291   9.697  2.5087 -1.0340 -1.1242
    7CHL1   C12  475   4.582   2.559   9.756 -0.3012  0.5722  0.0963
    7CHL1  H12A  476   4.682   2.587   9.717 -0.1601  0.3189  0.2697
    7CHL1  H12B  477   4.513   2.645   9.762  2.5385  2.8926  2.3041
    7CHL1   C11  478   4.595   2.492   9.891  0.4771 -0.4056  0.5376
    7CHL1  H11A  479   4.671   2.413   9.876  2.8441  1.8486 -0.0990
    7CHL1  H11B  480   4.645   2.562   9.962  4.7506 -0.4105 -2.1368
    7CHL1    C9  481   4.460   2.418   9.939 -0.0066 -0.3012 -0.4360
    7CHL1    H9  482   4.408   2.514   9.958  0.0802 -0.8953  3.6738
    7CHL1   C10  483   4.466   2.345  10.074  0.2646  0.2874 -0.2504
    7CHL1   C19  484   4.597   2.272  10.076 -0.3943 -0.4182 -0.6216
    7CHL1  H19A  485   4.602   2.190  10.000 -1.0456 -3.3853  2.3120
    7CHL1  H19B  486   4.688   2.336  10.070  1.4813 -2.7732  0.9076
    7CHL1  H19C  487   4.622   2.224  10.173 -1.1514 -0.8693 -0.6419
    7CHL1    C1  488   4.455   2.450  10.190 -0.0842 -0.0483 -0.4546
    7CHL1   H1A  489   4.527   2.527  10.156  0.8911  0.3364  2.1998
    7CHL1   H1B  490   4.358   2.503  10.180 -0.5016 -1.1125 -2.8107
    7CHL1    C2  491   4.479   2.395  10.330  0.4484  0.0474 -0.5427
    7CHL1   H2A  492   4.463   2.477  10.404  1.4281  0.8630 -1.2183
    7CHL1   H2B  493   4.574   2.342  10.352  0.9099  0.0232 -2.4704
    7CHL1   C20  494   4.580   2.603   9.425 -0.0961  0.1346 -0.2508
    7CHL1   H20  495   4.660   2.528   9.413 -0.3804 -0.2283  0.0746
    7CHL1   C21  496   4.663   2.719   9.486  0.3181 -0.4897 -0.3698
    7CHL1  H21A  497   4.716   2.772   9.404 -0.5745 -1.6802 -1.7731
    7CHL1  H21B  498   4.735   2.679   9.560 -1.1870 -2.0972  0.2906
    7CHL1  H21C  499   4.582   2.781   9.530  0.1095 -1.6292  0.9141
    7CHL1   C22  500   4.524   2.628   9.282 -0.4661  0.0853  0.0185
    7CHL1  H22A  501   4.503   2.528   9.239  0.5512 -0.1799  0.1066
    7CHL1  H22B  502   4.430   2.685   9.292 -0.2638  0.3683  0.3355
    7CHL1   C23  503   4.612   2.698   9.183 -0.0512  0.2635 -0.4393
    7CHL1  H23A  504   4.651   2.791   9.230  2.3716  0.1010 -1.9757
    7CHL1  H23B  505   4.704   2.641   9.157 -0.1664 -2.3447  3.8725
    7CHL1   C24  506   4.541   2.714   9.054  0.3636  0.0536  0.0923
    7CHL1  H24A  507   4.519   2.610   9.020  2.7875 -0.7602  0.7914
    7CHL1  H24B  508   4.449   2.775   9.063  0.4821  0.3763 -0.8000
    7CHL1   C25  509   4.630   2.769   8.939  0.0149  0.8219  0.0012
    7CHL1   H25  510   4.732   2.723   8.943  0.1340  1.0931  0.1481
    7CHL1   C26  511   4.593   2.724   8.792 -0.1276  0.1260 -0.9556
    7CHL1  H26A  512   4.618   2.619   8.765  4.0656  0.7987 -0.3327
    7CHL1  H26B  513   4.483   2.734   8.780 -0.2471 -2.0611 -2.3123
    7CHL1  H26C  514   4.647   2.777   8.710  0.6248 -1.1508 -1.3102
    7CHL1   C27  515   4.643   2.923   8.950 -0.0970 -0.1759 -0.3060
    7CHL1  H27A  516   4.700   2.964   8.864  2.0180 -2.5296 -0.1382
    7CHL1  H27B  517   4.546   2.977   8.952  0.5979  1.1328 -0.9724
    7CHL1  H27C  518   4.697   2.941   9.046 -1.8130  0.9634  0.4937
    8CHL1    C3  519   3.659   5.162  10.218 -0.1983  0.1490  0.4202
    8CHL1    H3  520   3.688   5.269  10.221 -2.5498  0.8806 -0.2945
    8CHL1    O3  521   3.644   5.122  10.354 -0.4926 -0.5755  0.7842
    8CHL1   H3'  522   3.732   5.140  10.388 -0.4811  0.0545  0.4348
    8CHL1    C4  523   3.526   5.131  10.150 -0.2123  0.3832  0.2207
    8CHL1   H4A  524   3.484   5.031  10.171  2.2493 -0.6775  0.3956
    8CHL1   H4B  525   3.459   5.206  10.197 -0.6542 -1.0633  1.9956
    8CHL1    C5  526   3.529   5.149   9.998  0.3413 -0.5956  0.0791
    8CHL1    C6  527   3.445   5.239   9.936 -0.1559  0.0327 -0.6687
    8CHL1    H6  528   3.373   5.291  10.002  2.8572  1.5213  1.6879
    8CHL1    C7  529   3.446   5.259   9.789  0.1484 -0.2842 -0.3891
    8CHL1   H7A  530   3.336   5.258   9.772 -0.3353 -0.8251  2.3143
    8CHL1   H7B  531   3.486   5.358   9.760  0.2917 -1.0118 -2.9400
    8CHL1    C8  532   3.518   5.138   9.715 -0.2934 -0.1569 -0.5768
    8CHL1    H8  533   3.450   5.050   9.714  0.5741 -0.9195 -3.4323
    8CHL1   C14  534   3.541   5.189   9.573  0.3504  0.1993  0.0734
    8CHL1   H14  535   3.597   5.285   9.581 -1.4403  1.4761 -1.7311
    8CHL1   C15  536   3.414   5.236   9.497  0.0855 -0.0002 -0.3332
    8CHL1  H15A  537   3.328   5.169   9.519  1.3892 -0.7672  2.8979
    8CHL1  H15B  538   3.389   5.340   9.526  0.7172 -0.1427  0.7798
    8CHL1   C16  539   3.458   5.238   9.354  0.2041  0.2196  1.1085
    8CHL1  H16A  540   3.391   5.177   9.289 -2.3690  1.3665  2.5390
    8CHL1  H16B  541   3.452   5.341   9.313  2.2180  0.0772  0.3287
    8CHL1   C17  542   3.604   5.178   9.346  0.1978 -0.2524  0.2643
    8CHL1   H17  543   3.670   5.268   9.347  0.2650 -0.3030  1.1020
    8CHL1   C13  544   3.614   5.091   9.481 -0.6534 -0.7694  0.3604
    8CHL1   C18  545   3.531   4.961   9.464  0.5141  0.2713  0.0744
    8CHL1  H18A  546   3.528   4.922   9.568 -0.3358  1.1949  0.4160
    8CHL1  H18B  547   3.430   4.976   9.420  0.0311  0.4329  1.2008
    8CHL1  H18C  548   3.585   4.884   9.405  1.6808  0.7731  0.4453
    8CHL1   C12  549   3.754   5.066   9.532 -0.2328 -0.3949 -0.2261
    8CHL1  H12A  550   3.812   4.985   9.484  1.0416  0.6059 -0.4378
    8CHL1  H12B  551   3.811   5.161   9.518 -2.2157  0.7266 -1.0757
    8CHL1   C11  552   3.757   5.032   9.682 -0.6843  0.9571  1.0565
    8CHL1  H11A  553   3.722   4.927   9.681 -0.1310  0.7578 -0.6210
    8CHL1  H11B  554   3.859   5.018   9.723  0.2659  2.1215 -0.7694
    8CHL1    C9  555   3.661   5.114   9.777  0.4122  0.0355  0.2362
    8CHL1    H9  556   3.714   5.212   9.780  0.6979 -0.1401  1.8578
    8CHL1   C10  557   3.641   5.067   9.923 -0.2702  0.2595 -0.2671
    8CHL1   C19  558   3.618   4.914   9.930 -0.1454 -0.2509  0.4849
    8CHL1  H19A  559   3.581   4.884  10.030 -2.7203 -0.4685 -0.4508
    8CHL1  H19B  560   3.535   4.891   9.859 -0.7504  1.2649  0.6632
    8CHL1  H19C  561   3.715   4.865   9.908 -0.2352 -0.1522 -0.1547
    8CHL1    C1  562   3.780   5.098   9.998 -0.0437  0.0953  0.1864
    8CHL1   H1A  563   3.865   5.033   9.967  0.4174  0.2048  1.1843
    8CHL1   H1B  564   3.818   5.201   9.980  1.3897 -0.5543 -0.6759
    8CHL1    C2  565   3.774   5.078  10.150  0.0404  0.2877 -0.5811
    8CHL1   H2A  566   3.870   5.109  10.196 -0.7633  0.4114  1.0859
    8CHL1   H2B  567   3.755   4.970  10.172  1.4388 -0.0071 -0.7316
    8CHL1   C20  568   3.638   5.103   9.211  0.0273 -0.2271  0.0145
    8CHL1   H20  569   3.566   5.020   9.205 -0.2364  0.0179 -0.2208
    8CHL1   C21  570   3.784   5.054   9.221  0.3855 -0.6670 -0.1951
    8CHL1  H21A  571   3.843   5.131   9.275 -1.0457 -0.1470  0.7169
    8CHL1  H21B  572   3.829   5.045   9.120  0.7652 -1.1577  0.0213
    8CHL1  H21C  573   3.799   4.960   9.277 -0.1629 -0.7577 -0.1931
    8CHL1   C22  574   3.620   5.196   9.086  0.2514  0.5164  0.9564
    8CHL1  H22A  575   3.518   5.240   9.091 -0.9423 -1.7434 -1.2796
    8CHL1  H22B  576   3.701   5.270   9.101  1.4474 -0.9266  1.9555
    8CHL1   C23  577   3.641   5.124   8.947 -0.2949  0.0044 -0.1035
    8CHL1  H23A  578   3.746   5.089   8.940 -0.1633  0.3164  0.2247
    8CHL1  H23B  579   3.568   5.040   8.941  0.3970 -0.4984 -2.8292
    8CHL1   C24  580   3.629   5.214   8.832 -0.6012 -0.3918 -0.1134
    8CHL1  H24A  581   3.532   5.265   8.852 -0.1089  0.9639 -1.0115
    8CHL1  H24B  582   3.708   5.292   8.827 -0.7434 -0.2868 -1.1096
    8CHL1   C25  583   3.622   5.136   8.700 -0.1660  0.3285  0.0309
    8CHL1   H25  584   3.567   5.040   8.709  0.0312  0.2845  0.8220
    8CHL1   C26  585   3.538   5.220   8.602 -0.2181 -0.1910 -0.1204
    8CHL1  H26A  586   3.454   5.261   8.662 -1.5587 -0.8259 -1.5156
    8CHL1  H26B  587   3.586   5.315   8.570 -1.2022  0.0155 -1.0156
    8CHL1  H26C  588   3.498   5.170   8.512 -0.5963  0.2475 -0.1976
    8CHL1   C27  589   3.766   5.107   8.654  0.1594 -0.2964 -0.1647
    8CHL1  H27A  590   3.770   5.052   8.557  0.4312  0.7667 -0.7648
    8CHL1  H27B  591   3.831   5.194   8.633  1.7186 -1.4030 -0.1445
    8CHL1  H27C  592   3.824   5.051   8.730  1.3197  1.2507  0.1334
    9CHL1    C3  593   6.593   1.221  10.146  0.7873 -0.4448  0.0018
    9CHL1    H3  594   6.694   1.175  10.150  1.1552  0.2149 -1.2978
    9CHL1    O3  595   6.512   1.203  10.261  0.0659  0.4321 -0.1190
    9CHL1   H3'  596   6.449   1.275  10.264  1.6026  1.8311  1.3011
    9CHL1    C4  597   6.611   1.376  10.113 -0.0018  0.9973 -0.1837
    9CHL1   H4A  598   6.516   1.427  10.139 -0.0930 -0.8260  3.8823
    9CHL1   H4B  599   6.681   1.390  10.198  1.3342 -2.8287 -0.4554
    9CHL1    C5  600   6.668   1.417   9.979  0.3676  0.4886 -0.6562
    9CHL1    C6  601   6.771   1.496   9.967 -0.2078 -0.1591  0.0603
    9CHL1    H6  602   6.820   1.547  10.052 -0.1287  1.5752 -0.9667
    9CHL1    C7  603   6.826   1.537   9.824  0.2959  0.4677  0.0182
    9CHL1   H7A  604   6.856   1.644   9.819 -0.6474  0.7225 -0.3251
    9CHL1   H7B  605   6.913   1.472   9.800 -2.0949 -3.1314  0.2585
    9CHL1    C8  606   6.722   1.507   9.712 -0.2339  0.1852  0.1291
    9CHL1    H8  607   6.638   1.580   9.713  0.5631  1.4033 -3.7972
    9CHL1   C14  608   6.790   1.523   9.573 -0.2845  0.0699 -0.1168
    9CHL1   H14  609   6.872   1.448   9.576 -0.7754 -0.4651  2.0758
    9CHL1   C15  610   6.860   1.651   9.533  0.5556  0.8052  0.2036
    9CHL1  H15A  611   6.798   1.732   9.576 -1.8767 -0.6961 -0.2796
    9CHL1  H15B  612   6.959   1.662   9.582  0.4066 -0.4714  0.8241
    9CHL1   C16  613   6.874   1.654   9.382  0.3459  0.4485 -0.1159
    9CHL1  H16A  614   6.820   1.747   9.353  0.9476  1.0524  0.6673
    9CHL1  H16B  615   6.982   1.639   9.358  0.6909 -0.0375  1.6393
    9CHL1   C17  616   6.793   1.528   9.335  0.2556 -0.3113  0.2562
    9CHL1   H17  617   6.867   1.446   9.324 -0.5248 -0.9664 -0.2383
    9CHL1   C13  618   6.702   1.486   9.452 -0.4034 -0.8201  0.1815
    9CHL1   C18  619   6.585   1.579   9.461 -0.0702 -0.0582  0.4419
    9CHL1  H18A  620   6.538   1.598   9.362  0.8890 -2.7799 -0.6424
    9CHL1  H18B  621   6.498   1.529   9.510 -0.8217  1.2952  0.5304
    9CHL1  H18C  622   6.604   1.678   9.508  0.0609 -0.5943  1.5600
    9CHL1   C12  623   6.653   1.339   9.460 -0.0753  0.0679  0.4933
    9CHL1  H12A  624   6.584   1.305   9.380  2.2348 -2.4938 -0.5599
    9CHL1  H12B  625   6.745   1.280   9.444  1.1868  1.5837  1.8070
    9CHL1   C11  626   6.600   1.299   9.605 -0.1093 -0.3277 -0.0009
    9CHL1  H11A  627   6.492   1.318   9.617  0.0155 -0.1819  0.9382
    9CHL1  H11B  628   6.601   1.188   9.600 -1.2742 -0.3026 -1.6774
    9CHL1    C9  629   6.674   1.359   9.724 -0.6337 -0.5562 -0.1682
    9CHL1    H9  630   6.766   1.297   9.729 -0.4634 -0.5637 -2.2220
    9CHL1   C10  631   6.603   1.347   9.857  0.4299 -0.6266  0.0499
    9CHL1   C19  632   6.465   1.420   9.859  0.1582  0.6579  0.0096
    9CHL1  H19A  633   6.473   1.529   9.840 -0.2549  0.2547 -3.0034
    9CHL1  H19B  634   6.400   1.376   9.781 -1.5172  0.0748  1.6665
    9CHL1  H19C  635   6.407   1.400   9.951  0.3375 -0.6800 -0.1477
    9CHL1    C1  636   6.587   1.194   9.889  0.1347 -0.0780 -0.5609
    9CHL1   H1A  637   6.522   1.162   9.805 -1.3080  1.6160 -0.1488
    9CHL1   H1B  638   6.686   1.143   9.885  0.7634  1.1259 -0.8088
    9CHL1    C2  639   6.518   1.162  10.023 -0.0797 -0.6294 -0.1063
    9CHL1   H2A  640   6.500   1.055  10.046 -1.6435 -0.4647 -0.4545
    9CHL1   H2B  641   6.418   1.209  10.036  0.9133  1.3252  0.8540
    9CHL1   C20  642   6.739   1.562   9.193  0.2388 -0.2694  0.6232
    9CHL1   H20  643   6.677   1.654   9.189  2.0564  1.1441  2.6586
    9CHL1   C21  644   6.653   1.448   9.146  0.5675 -0.0554  0.0863
    9CHL1  H21A  645   6.621   1.453   9.040  1.3025 -0.4895 -0.1635
    9CHL1  H21B  646   6.560   1.434   9.206  1.4095  0.2794  1.5092
    9CHL1  H21C  647   6.717   1.358   9.161 -0.0808 -0.6950 -0.8529
    9CHL1   C22  648   6.858   1.593   9.096 -0.9142 -0.1832  0.3416
    9CHL1  H22A  649   6.940   1.656   9.137 -1.0436 -0.3755  0.9084
    9CHL1  H22B  650   6.902   1.492   9.082 -0.5401 -0.0881  0.8115
    9CHL1   C23  651   6.828   1.653   8.963  0.0405  0.3580  0.2797
    9CHL1  H23A  652   6.754   1.595   8.904  1.2945 -2.9372  1.7248
    9CHL1  H23B  653   6.787   1.755   8.978 -1.0407  0.1246 -0.9033
    9CHL1   C24  654   6.956   1.661   8.877 -0.4624  0.0512  0.7525
    9CHL1  H24A  655   7.040   1.701   8.936 -1.1338  0.5203  1.4055
    9CHL1  H24B  656   6.984   1.558   8.846 -1.5004  0.7743 -3.1640
    9CHL1   C25  657   6.952   1.723   8.736 -0.0133  0.6139  0.2178
    9CHL1   H25  658   6.866   1.683   8.678  0.8904  2.5128 -2.6086
    9CHL1   C26  659   6.953   1.873   8.738  0.0537  0.0698 -0.3254
    9CHL1  H26A  660   7.037   1.904   8.804  0.9226 -0.8053 -0.9938
    9CHL1  H26B  661   6.981   1.906   8.636  0.7015 -2.0946 -0.8945
    9CHL1  H26C  662   6.853   1.907   8.772 -0.8727 -1.4753 -1.4100
    9CHL1   C27  663   7.071   1.671   8.667 -0.2482  0.5085  0.9557
    9CHL1  H27A  664   7.058   1.695   8.559  1.8549  0.5541  0.6636
    9CHL1  H27B  665   7.166   1.719   8.697 -0.9817  2.2354  0.6166
    9CHL1  H27C  666   7.080   1.560   8.665  2.5611  0.6694 -0.7497
   10CHL1    C3  667   0.259   5.098  10.153 -0.4395  0.1175  0.3555
   10CHL1    H3  668   0.345   5.082  10.084 -0.7585 -1.3121  0.2697
   10CHL1    O3  669   0.298   5.111  10.283 -0.0542 -0.4909 -1.0193
   10CHL1   H3'  670   0.389   5.140  10.289  0.3111 -1.8845  2.3626
   10CHL1    C4  671   0.173   5.217  10.100  0.9214  0.5863  0.5229
   10CHL1   H4A  672   0.086   5.242  10.164  0.5079  0.8618 -0.1361
   10CHL1   H4B  673   0.230   5.313  10.104 -0.5225  1.7326 -2.7258
   10CHL1    C5  674   0.117   5.190   9.964  0.2002  0.6696 -0.1831
   10CHL1    C6  675   0.149   5.262   9.858  0.5956 -0.1600  0.2601
   10CHL1    H6  676   0.208   5.354   9.870 -0.3063  0.9297 -2.7194
   10CHL1    C7  677   0.079   5.255   9.726 -0.9132 -0.1928  0.0872
   10CHL1   H7A  678   0.045   5.360   9.709 -0.0391  0.3381  1.4366
   10CHL1   H7B  679   0.154   5.241   9.645 -0.4059 -2.5812  0.9083
   10CHL1    C8  680  -0.041   5.162   9.716 -0.0049 -0.6820  0.3403
   10CHL1    H8  681  -0.130   5.218   9.752 -1.3685 -0.9461 -2.3545
   10CHL1   C14  682  -0.068   5.123   9.572  0.3647 -0.2974  0.0991
   10CHL1   H14  683   0.014   5.061   9.530 -0.6318 -1.9797  0.5308
   10CHL1   C15  684  -0.075   5.234   9.466 -0.0326 -0.5124 -0.2205
   10CHL1  H15A  685  -0.130   5.323   9.505 -0.0854  0.5132 -2.4915
   10CHL1  H15B  686   0.022   5.276   9.431 -0.9445  0.3175 -1.8477
   10CHL1   C16  687  -0.140   5.160   9.342  0.2587  0.0064 -0.1033
   10CHL1  H16A  688  -0.230   5.216   9.311 -0.1734 -0.3073  0.5605
   10CHL1  H16B  689  -0.072   5.163   9.254 -1.0281  1.5226 -1.0912
   10CHL1   C17  690  -0.190   5.019   9.394 -0.1869  0.8141  0.0018
   10CHL1   H17  691  -0.116   4.943   9.362 -0.4429 -0.1298  1.5220
   10CHL1   C13  692  -0.192   5.029   9.550 -0.3397 -0.0954 -0.0062
   10CHL1   C18  693  -0.325   5.090   9.601 -0.2111 -0.1894 -0.2656
   10CHL1  H18A  694  -0.398   5.007   9.611 -1.1022  0.6558  0.6635
   10CHL1  H18B  695  -0.317   5.129   9.705 -0.9654 -0.9800  0.0978
   10CHL1  H18C  696  -0.370   5.171   9.539 -1.9027 -0.0236  1.1014
   10CHL1   C12  697  -0.160   4.896   9.629 -0.3809 -0.0426 -0.4494
   10CHL1  H12A  698  -0.243   4.828   9.602 -0.2796  0.8414 -3.2194
   10CHL1  H12B  699  -0.077   4.849   9.572 -1.1400 -1.3185 -0.5562
   10CHL1   C11  700  -0.128   4.922   9.781 -0.2570  0.5925 -0.5218
   10CHL1  H11A  701  -0.217   4.967   9.831  1.2863  1.0179  2.0388
   10CHL1  H11B  702  -0.103   4.824   9.827 -2.1692  0.9305  1.4148
   10CHL1    C9  703  -0.019   5.030   9.803 -0.0381 -0.1079 -0.6898
   10CHL1    H9  704   0.070   4.976   9.763  0.0526 -2.2016  2.0805
   10CHL1   C10  705   0.023   5.063   9.954 -0.5481 -0.2700 -0.3890
   10CHL1   C19  706  -0.109   5.081  10.038 -1.4518 -0.1366 -0.6147
   10CHL1  H19A  707  -0.176   4.993  10.030 -1.8100 -0.3082  2.8278
   10CHL1  H19B  708  -0.081   5.099  10.144 -3.1190 -1.0806  0.0182
   10CHL1  H19C  709  -0.154   5.174   9.997  1.0453  0.6525 -1.8185
   10CHL1    C1  710   0.105   4.952  10.003 -0.6511 -0.1591 -0.2883
   10CHL1   H1A  711   0.033   4.868  10.000 -1.3762  0.3720  1.1915
   10CHL1   H1B  712   0.185   4.925   9.930 -0.0849 -0.7498  0.5249
   10CHL1    C2  713   0.172   4.968  10.137 -0.3162  0.0103 -0.5007
   10CHL1   H2A  714   0.233   4.876  10.151  0.4696  0.6418  0.2989
   10CHL1   H2B  715   0.099   4.988  10.219  2.8443  0.1009  2.5176
   10CHL1   C20  716  -0.317   4.978   9.325 -1.0903  0.1440  0.0987
   10CHL1   H20  717  -0.398   5.053   9.337 -1.8547 -0.5257 -0.7340
   10CHL1   C21  718  -0.363   4.832   9.369  0.1437 -0.7209  0.0572
   10CHL1  H21A  719  -0.298   4.750   9.332  1.3786  1.5010 -3.1122
   10CHL1  H21B  720  -0.464   4.820   9.325  0.6173 -0.6891 -1.0640
   10CHL1  H21C  721  -0.386   4.835   9.478  1.9137 -0.1858  0.4463
   10CHL1   C22  722  -0.292   4.974   9.169  0.0924  0.0048 -0.2480
   10CHL1  H22A  723  -0.271   5.071   9.120 -2.2436 -0.0011 -1.3742
   10CHL1  H22B  724  -0.196   4.917   9.160 -0.1740 -0.2932 -1.4731
   10CHL1   C23  725  -0.404   4.913   9.084 -0.7075 -0.1644  0.4168
   10CHL1  H23A  726  -0.407   4.806   9.113  2.5301 -0.9407 -1.5778
   10CHL1  H23B  727  -0.495   4.970   9.112 -0.7827 -0.0383 -0.0643
   10CHL1   C24  728  -0.382   4.915   8.938  0.4298 -0.3846  0.1169
   10CHL1  H24A  729  -0.286   4.862   8.924  0.7796  0.4329 -0.6575
   10CHL1  H24B  730  -0.466   4.858   8.892 -1.0155  1.2031  0.6987
   10CHL1   C25  731  -0.351   5.048   8.867 -0.4640  0.2283  0.0779
   10CHL1   H25  732  -0.261   5.094   8.910 -0.1383 -1.1182  0.9052
   10CHL1   C26  733  -0.324   5.029   8.719  0.0904  0.5148 -0.4771
   10CHL1  H26A  734  -0.240   4.958   8.704 -0.8896 -0.2733 -2.7847
   10CHL1  H26B  735  -0.411   4.969   8.685  2.5333 -2.9436 -1.2733
   10CHL1  H26C  736  -0.306   5.121   8.659  0.4664  0.5115 -0.3715
   10CHL1   C27  737  -0.461   5.156   8.880 -0.6700 -0.9805 -0.3025
   10CHL1  H27A  738  -0.452   5.200   8.981 -2.0382  1.2457 -1.0572
   10CHL1  H27B  739  -0.480   5.224   8.794 -0.3828 -1.1770 -0.5237
   10CHL1  H27C  740  -0.556   5.099   8.888 -0.0321 -2.0903 -0.4385
   11CHL1    C3  741   0.776   0.991  10.117 -0.8070  0.0165  1.0210
   11CHL1    H3  742   0.781   0.882  10.096 -0.0657  0.2081  0.1126
   11CHL1    O3  743   0.760   1.014  10.254 -0.6300 -0.0729 -0.0784
   11CHL1   H3'  744   0.827   0.954  10.288  1.4656  1.5019 -1.1536
   11CHL1    C4  745   0.920   1.034  10.081  0.8519  0.4909  0.0170
   11CHL1   H4A  746   0.934   1.142  10.101 -0.2804  1.2638 -2.8250
   11CHL1   H4B  747   0.991   0.984  10.149  0.3333  0.2729  0.4070
   11CHL1    C5  748   0.944   1.009   9.934  0.2958  0.2030 -0.8633
   11CHL1    C6  749   1.064   0.953   9.903  0.2095  0.0359 -0.0163
   11CHL1    H6  750   1.131   0.923   9.984  1.2600 -0.1769 -0.9346
   11CHL1    C7  751   1.099   0.933   9.761  0.3682 -0.1726 -0.4196
   11CHL1   H7A  752   1.208   0.955   9.753  0.5777 -1.3974 -1.2301
   11CHL1   H7B  753   1.096   0.825   9.734  2.5041 -0.4039  0.0482
   11CHL1    C8  754   1.015   1.007   9.658 -0.1974 -0.4612 -0.1065
   11CHL1    H8  755   1.046   1.113   9.654 -0.8673 -0.2976 -2.8117
   11CHL1   C14  756   1.039   0.938   9.522 -0.0248  0.4223  0.1626
   11CHL1   H14  757   1.004   0.833   9.532 -1.6950  0.9904  0.5320
   11CHL1   C15  758   1.178   0.921   9.464  0.1936  0.0312  0.5380
   11CHL1  H15A  759   1.227   1.021   9.470 -0.5531  0.6044 -1.9076
   11CHL1  H15B  760   1.237   0.854   9.531 -0.6230 -0.2601  0.9743
   11CHL1   C16  761   1.158   0.883   9.320 -0.4776 -0.4567  0.5861
   11CHL1  H16A  762   1.213   0.950   9.251 -0.0819  1.1049  2.3204
   11CHL1  H16B  763   1.200   0.783   9.296 -0.6321  0.1405 -2.6504
   11CHL1   C17  764   1.003   0.889   9.290 -0.3091  0.4120 -0.3589
   11CHL1   H17  765   0.958   0.790   9.311  0.8288 -0.2816 -1.0694
   11CHL1   C13  766   0.955   0.987   9.399  0.4508  0.4550 -0.2707
   11CHL1   C18  767   0.992   1.128   9.361 -0.6199 -0.6505  0.7376
   11CHL1  H18A  768   1.101   1.149   9.348 -0.8620  0.3172  0.1087
   11CHL1  H18B  769   0.950   1.153   9.261  0.6505 -0.1780  0.2953
   11CHL1  H18C  770   0.967   1.218   9.421  1.8718  1.1727 -0.7348
   11CHL1   C12  771   0.806   0.993   9.434 -0.0041  0.3170 -0.5775
   11CHL1  H12A  772   0.750   1.049   9.356  0.0825  0.1781 -0.7402
   11CHL1  H12B  773   0.766   0.890   9.442 -1.2689  0.7067 -1.4668
   11CHL1   C11  774   0.786   1.064   9.574  0.4713 -0.3720 -0.5398
   11CHL1  H11A  775   0.835   1.164   9.565  2.5591 -1.1066  1.4523
   11CHL1  H11B  776   0.679   1.083   9.593  0.4549 -0.1500 -0.8442
   11CHL1    C9  777   0.862   1.000   9.685  0.2663  0.2287 -0.0806
   11CHL1    H9  778   0.837   0.892   9.680 -1.0455  0.4948  0.1510
   11CHL1   C10  779   0.836   1.054   9.832 -0.3213 -0.0666  0.9255
   11CHL1   C19  780   0.844   1.211   9.827 -0.1917 -0.3423  0.2974
   11CHL1  H19A  781   0.836   1.258   9.927  0.9679  1.5464 -0.4411
   11CHL1  H19B  782   0.935   1.244   9.772  0.7073 -1.5684  1.0079
   11CHL1  H19C  783   0.749   1.233   9.773 -0.4556 -0.1775  0.8260
   11CHL1    C1  784   0.693   0.999   9.879 -0.5001  0.0906 -0.4211
   11CHL1   H1A  785   0.618   1.051   9.817  0.7860  0.8066 -1.4284
   11CHL1   H1B  786   0.677   0.892   9.857 -2.4137  0.0767  0.8162
   11CHL1    C2  787   0.667   1.044  10.024  0.2988  0.7569 -0.1444
   11CHL1   H2A  788   0.569   1.001  10.054  0.1974 -0.5265 -2.1424
   11CHL1   H2B  789   0.683   1.154  10.033  0.8792  0.9327 -2.6994
   11CHL1   C20  790   0.976   0.912   9.140  0.0042  0.1090 -0.3989
   11CHL1   H20  791   0.993   1.019   9.118  0.8689 -0.2985 -1.8637
   11CHL1   C21  792   0.821   0.883   9.115 -0.3504  0.1344  0.8668
   11CHL1  H21A  793   0.746   0.933   9.180  0.1263  2.7731 -0.4678
   11CHL1  H21B  794   0.824   0.772   9.125  0.7650  0.0086 -0.4751
   11CHL1  H21C  795   0.797   0.892   9.007 -1.8838 -0.0435  1.1697
   11CHL1   C22  796   1.064   0.828   9.040  0.3585 -0.1492  0.7905
   11CHL1  H22A  797   1.173   0.835   9.058  0.6878 -1.4232 -0.5185
   11CHL1  H22B  798   1.040   0.720   9.048  1.0815 -0.2291  2.2067
   11CHL1   C23  799   1.044   0.878   8.897 -0.8612 -0.3169 -0.1347
   11CHL1  H23A  800   0.957   0.835   8.842  0.4702 -0.2127 -2.4493
   11CHL1  H23B  801   1.038   0.989   8.905  0.3150 -0.3049  0.8325
   11CHL1   C24  802   1.168   0.849   8.810  0.1297  0.3349  0.0165
   11CHL1  H24A  803   1.260   0.878   8.864  1.4497 -3.6724  0.2377
   11CHL1  H24B  804   1.173   0.739   8.795 -0.6554  0.6384 -3.2732
   11CHL1   C25  805   1.166   0.914   8.673  0.3241  0.5192 -0.1398
   11CHL1   H25  806   1.143   1.022   8.683 -0.7909  0.5573 -2.4761
   11CHL1   C26  807   1.308   0.913   8.611  0.2618  1.0006  0.1858
   11CHL1  H26A  808   1.347   0.809   8.608 -0.3103  0.8027 -0.7703
   11CHL1  H26B  809   1.287   0.958   8.512  0.1935 -2.2036 -1.3921
   11CHL1  H26C  810   1.373   0.973   8.678  0.0049  1.7122 -0.1915
   11CHL1   C27  811   1.064   0.856   8.577  0.3437 -0.7354 -0.0825
   11CHL1  H27A  812   1.085   0.750   8.552 -0.2246 -0.6693 -0.8797
   11CHL1  H27B  813   0.961   0.872   8.616  1.8097  2.4588  2.9150
   11CHL1  H27C  814   1.063   0.916   8.483  0.5837  0.4842  0.6853
   12CHL1    C3  815   2.629   4.006  10.311  0.9625 -0.7995 -1.1955
   12CHL1    H3  816   2.715   4.077  10.310  1.3177 -1.0440  1.9093
   12CHL1    O3  817   2.609   3.971  10.445 -1.2876  0.1821 -0.4583
   12CHL1   H3'  818   2.552   3.894  10.444 -0.6006 -0.3382 -0.9661
   12CHL1    C4  819   2.493   4.075  10.258  0.5453  0.0171 -0.3881
   12CHL1   H4A  820   2.406   4.012  10.286 -0.0573  0.8648 -0.3526
   12CHL1   H4B  821   2.488   4.170  10.316  2.3962  0.1968 -0.4579
   12CHL1    C5  822   2.503   4.101  10.110 -0.3883 -0.5083 -0.7568
   12CHL1    C6  823   2.487   4.229  10.069  0.4823 -0.1643  0.1025
   12CHL1    H6  824   2.468   4.307  10.144 -0.7994  0.2281 -0.5894
   12CHL1    C7  825   2.485   4.268   9.923  0.4869  0.0638 -0.3165
   12CHL1   H7A  826   2.401   4.335   9.892 -0.2355 -0.3816  0.6211
   12CHL1   H7B  827   2.581   4.319   9.901  1.1149 -1.5318 -1.4161
   12CHL1    C8  828   2.476   4.147   9.822  0.1809  0.8336 -0.4469
   12CHL1    H8  829   2.375   4.101   9.832  1.5585 -1.9401  2.7744
   12CHL1   C14  830   2.503   4.186   9.678 -0.1277 -0.0920  0.0339
   12CHL1   H14  831   2.603   4.230   9.700 -0.4852  0.6681  0.1630
   12CHL1   C15  832   2.428   4.310   9.619 -0.3511  0.9367 -0.4076
   12CHL1  H15A  833   2.320   4.288   9.639  0.1099 -1.0883  0.1278
   12CHL1  H15B  834   2.446   4.401   9.680 -1.7799  0.0324  1.4957
   12CHL1   C16  835   2.452   4.306   9.473  0.0710 -0.0201  0.5405
   12CHL1  H16A  836   2.354   4.315   9.421 -1.1635 -1.3107  2.5080
   12CHL1  H16B  837   2.510   4.391   9.432 -1.9399  2.9654  3.4284
   12CHL1   C17  838   2.527   4.166   9.448  0.4034 -0.0705  0.7811
   12CHL1   H17  839   2.634   4.196   9.449  0.2399  0.5166  1.8983
   12CHL1   C13  840   2.505   4.075   9.575 -0.2960  0.1817 -0.0653
   12CHL1   C18  841   2.370   3.997   9.571  0.7832  0.6354  0.3059
   12CHL1  H18A  842   2.366   3.926   9.486  1.4705  1.1205 -0.1437
   12CHL1  H18B  843   2.348   3.935   9.661 -1.9053  1.7526  0.5128
   12CHL1  H18C  844   2.284   4.065   9.552 -3.7000 -4.2214  0.9205
   12CHL1   C12  845   2.620   3.977   9.622 -0.4417  1.0536  0.3276
   12CHL1  H12A  846   2.620   3.887   9.556  1.9308  1.4140 -0.2174
   12CHL1  H12B  847   2.719   4.025   9.629  0.6926 -1.0922 -0.1328
   12CHL1   C11  848   2.599   3.929   9.765 -0.1408  0.4546 -0.2170
   12CHL1  H11A  849   2.510   3.863   9.760 -0.5710  1.1079 -1.3960
   12CHL1  H11B  850   2.688   3.873   9.802 -0.3306  1.0158  1.1674
   12CHL1    C9  851   2.576   4.039   9.871  0.0364 -0.3203  0.1729
   12CHL1    H9  852   2.671   4.097   9.872  0.3059 -0.6739 -1.3058
   12CHL1   C10  853   2.540   3.989  10.018 -0.0056 -0.3640  0.6037
   12CHL1   C19  854   2.422   3.887  10.015 -0.0148  1.1212 -0.0610
   12CHL1  H19A  855   2.332   3.922   9.959 -0.4278  1.4610  0.7964
   12CHL1  H19B  856   2.466   3.796   9.970 -0.0211  1.4543 -0.7523
   12CHL1  H19C  857   2.384   3.866  10.117 -1.0280 -1.9939 -0.9631
   12CHL1    C1  858   2.663   3.928  10.080  0.1845  0.5803  0.0096
   12CHL1   H1A  859   2.681   3.839  10.017  1.1530  0.5432  0.3262
   12CHL1   H1B  860   2.746   4.000  10.064 -0.7315  1.3683 -1.4468
   12CHL1    C2  861   2.655   3.886  10.228 -0.0237  0.2121 -0.2070
   12CHL1   H2A  862   2.743   3.827  10.262  0.8081  0.7227 -1.4070
   12CHL1   H2B  863   2.559   3.831  10.234 -1.2854  2.3647  0.7501
   12CHL1   C20  864   2.506   4.111   9.307 -0.2234 -0.8718  1.0936
   12CHL1   H20  865   2.397   4.098   9.293 -0.1884  0.1306 -0.5031
   12CHL1   C21  866   2.578   3.972   9.294  1.0565 -0.4030 -0.0248
   12CHL1  H21A  867   2.542   3.886   9.354 -0.1970 -0.4281 -0.7916
   12CHL1  H21B  868   2.689   3.983   9.294  1.3802 -2.9707 -0.1127
   12CHL1  H21C  869   2.540   3.936   9.196  2.2393  1.8296 -1.3910
   12CHL1   C22  870   2.549   4.204   9.192 -1.2466 -0.3669  0.3545
   12CHL1  H22A  871   2.544   4.312   9.220 -1.8167  0.1201 -1.4582
   12CHL1  H22B  872   2.658   4.186   9.175 -0.5409  1.8806  2.0103
   12CHL1   C23  873   2.461   4.181   9.064  0.4572  0.3266  0.5162
   12CHL1  H23A  874   2.477   4.081   9.019  0.0274  0.6895 -0.4840
   12CHL1  H23B  875   2.356   4.186   9.100  0.6786 -0.7941  1.3451
   12CHL1   C24  876   2.495   4.277   8.946 -0.0493 -0.1779 -0.5066
   12CHL1  H24A  877   2.444   4.376   8.953  1.0432  0.4968 -1.5642
   12CHL1  H24B  878   2.601   4.309   8.946 -0.3711  1.1974 -3.5400
   12CHL1   C25  879   2.451   4.225   8.809 -0.5630 -0.6465 -0.3358
   12CHL1   H25  880   2.345   4.196   8.825 -1.0105  1.3336  0.5062
   12CHL1   C26  881   2.448   4.338   8.709  0.7404  0.0489  0.0521
   12CHL1  H26A  882   2.371   4.411   8.741  1.3110 -0.2194  2.1970
   12CHL1  H26B  883   2.539   4.401   8.713 -0.6121  2.4070 -2.5338
   12CHL1  H26C  884   2.438   4.294   8.607  1.0675  0.7082 -0.2655
   12CHL1   C27  885   2.534   4.105   8.759  0.1022  0.2258  0.0002
   12CHL1  H27A  886   2.643   4.122   8.766  0.4459 -1.0316 -1.6789
   12CHL1  H27B  887   2.504   4.013   8.814  1.1196 -0.0696  0.0734
   12CHL1  H27C  888   2.508   4.081   8.654  0.0844 -2.0929  0.4758
   13CHL1    C3  889   2.320   6.705   9.946  0.7313 -0.7979  0.3344
   13CHL1    H3  890   2.214   6.726   9.973  0.6421  2.4790 -1.9543
   13CHL1    O3  891   2.389   6.716  10.070  0.0259 -0.2874  0.0681
   13CHL1   H3'  892   2.483   6.727  10.052 -0.0233 -0.8491 -0.6033
   13CHL1    C4  893   2.332   6.562   9.889 -0.9110 -0.2564 -0.6026
   13CHL1   H4A  894   2.441   6.542   9.890 -0.5521  1.4790 -1.3184
   13CHL1   H4B  895   2.273   6.499   9.959 -1.8428  0.5940 -0.6016
   13CHL1    C5  896   2.282   6.547   9.749  0.1285 -0.1200  0.1769
   13CHL1    C6  897   2.188   6.452   9.731 -0.6483 -0.1310 -0.5163
   13CHL1    H6  898   2.157   6.386   9.813 -2.8178  1.7395  0.2890
   13CHL1    C7  899   2.131   6.437   9.596  0.0273  0.3453 -0.5127
   13CHL1   H7A  900   2.127   6.329   9.569  1.9315 -0.1669  1.0243
   13CHL1   H7B  901   2.024   6.470   9.595 -1.2126 -2.9570  2.6797
   13CHL1    C8  902   2.212   6.504   9.481  0.2685 -0.4957  0.8323
   13CHL1    H8  903   2.310   6.455   9.461  0.4088  0.0586  0.1334
   13CHL1   C14  904   2.127   6.505   9.351 -0.1270  0.2460 -0.5330
   13CHL1   H14  905   2.038   6.567   9.374  0.0811 -0.3084  2.1060
   13CHL1   C15  906   2.065   6.377   9.293 -0.1296  0.0012  0.1086
   13CHL1  H15A  907   2.137   6.292   9.297 -1.2461 -0.9524  0.5079
   13CHL1  H15B  908   1.979   6.347   9.357  1.0440 -1.1956  1.1826
   13CHL1   C16  909   2.038   6.415   9.150  0.2464 -0.1312  0.1174
   13CHL1  H16A  910   2.099   6.343   9.091  1.3580  0.5848  0.3654
   13CHL1  H16B  911   1.929   6.405   9.128 -0.0091  0.1794  1.1953
   13CHL1   C17  912   2.093   6.559   9.127 -0.3927  0.4307  0.5709
   13CHL1   H17  913   2.014   6.631   9.156 -2.3691 -1.2272 -0.5080
   13CHL1   C13  914   2.198   6.571   9.233  0.3487 -0.1034 -0.6401
   13CHL1   C18  915   2.326   6.500   9.196  0.1673 -0.2425  0.4046
   13CHL1  H18A  916   2.316   6.395   9.161 -0.4883 -1.2407  3.2370
   13CHL1  H18B  917   2.382   6.567   9.127 -0.5807  0.4763  0.4865
   13CHL1  H18C  918   2.404   6.484   9.274  0.8150  1.6251  0.1717
   13CHL1   C12  919   2.228   6.719   9.270  0.6515 -0.2462 -0.2922
   13CHL1  H12A  920   2.285   6.771   9.190 -0.7727  0.8265 -0.6512
   13CHL1  H12B  921   2.134   6.778   9.282  0.1041 -1.0642 -0.4555
   13CHL1   C11  922   2.312   6.726   9.402  0.3359 -0.3367 -0.2862
   13CHL1  H11A  923   2.413   6.688   9.375  0.1815  0.1763 -1.7087
   13CHL1  H11B  924   2.330   6.834   9.419 -0.1902 -0.1503 -0.8640
   13CHL1    C9  925   2.246   6.647   9.519  0.2169 -0.4370  0.1062
   13CHL1    H9  926   2.157   6.706   9.549  1.2008  1.3289 -0.2985
   13CHL1   C10  927   2.331   6.651   9.647  0.8881  0.4891 -0.2474
   13CHL1   C19  928   2.480   6.613   9.622  0.0885  0.6498  0.3263
   13CHL1  H19A  929   2.543   6.584   9.709 -0.1030 -1.7493 -0.2665
   13CHL1  H19B  930   2.478   6.531   9.548 -1.2863  0.6771  0.3160
   13CHL1  H19C  931   2.516   6.706   9.573 -0.1855  0.3059 -0.5438
   13CHL1    C1  932   2.320   6.789   9.712  0.7355  0.1149 -0.5954
   13CHL1   H1A  933   2.374   6.859   9.646  4.1693 -2.6428 -0.9737
   13CHL1   H1B  934   2.212   6.815   9.723  0.4209 -1.8948  2.3903
   13CHL1    C2  935   2.377   6.811   9.854  0.0082 -0.3079  0.1274
   13CHL1   H2A  936   2.363   6.914   9.893  1.5494  1.2744 -3.0665
   13CHL1   H2B  937   2.487   6.798   9.846  0.0299  0.0426 -0.1917
   13CHL1   C20  938   2.136   6.597   8.985  0.4126 -0.9424  0.5959
   13CHL1   H20  939   2.242   6.630   8.981 -0.5668  2.4552 -2.7056
   13CHL1   C21  940   2.060   6.735   8.963  0.0632 -0.4057  0.5140
   13CHL1  H21A  941   2.079   6.820   9.031  0.2340  2.0633 -2.4237
   13CHL1  H21B  942   1.950   6.719   8.967 -0.8562  4.5090  2.3171
   13CHL1  H21C  943   2.076   6.761   8.856  4.3859  0.6947  1.2310
   13CHL1   C22  944   2.109   6.481   8.873 -0.7721 -0.2235 -0.3447
   13CHL1  H22A  945   2.180   6.400   8.899  1.5872  2.4911  2.3081
   13CHL1  H22B  946   2.005   6.442   8.882 -0.9268  0.1527 -0.4800
   13CHL1   C23  947   2.140   6.523   8.727  0.3577  0.2567  0.5456
   13CHL1  H23A  948   2.072   6.608   8.707 -1.8718 -1.2138  1.5200
   13CHL1  H23B  949   2.245   6.558   8.730  0.8405 -1.1360  0.7885
   13CHL1   C24  950   2.103   6.411   8.624  0.3067 -0.4785 -0.4141
   13CHL1  H24A  951   1.992   6.419   8.617  0.2194 -2.6704 -2.7990
   13CHL1  H24B  952   2.143   6.444   8.526  0.3474 -0.4169 -0.3769
   13CHL1   C25  953   2.146   6.271   8.655  0.2038  0.1861  0.3147
   13CHL1   H25  954   2.121   6.233   8.756 -0.6555 -0.1195 -0.0089
   13CHL1   C26  955   2.058   6.186   8.558  0.0796 -0.1506  0.7058
   13CHL1  H26A  956   2.098   6.186   8.454 -1.4840  0.4234  0.0702
   13CHL1  H26B  957   2.059   6.082   8.597 -1.2772 -0.1005  0.9011
   13CHL1  H26C  958   1.953   6.220   8.547 -0.0145 -0.7424 -0.3676
   13CHL1   C27  959   2.292   6.249   8.628 -0.3387 -0.3930 -0.0568
   13CHL1  H27A  960   2.326   6.143   8.631  0.5310 -0.1189  0.3427
   13CHL1  H27B  961   2.321   6.287   8.528 -0.0310 -0.3489  0.0479
   13CHL1  H27C  962   2.352   6.311   8.699 -0.6442 -1.5375  1.2499
   14CHL1    C3  963   5.079   1.862  10.061 -0.5140 -0.3847  0.7777
   14CHL1    H3  964   4.982   1.905  10.027 -0.5610 -2.1283 -1.6468
   14CHL1    O3  965   5.097   1.874  10.197  0.3020  0.0694  0.3154
   14CHL1   H3'  966   5.183   1.835  10.217 -0.2115 -0.8163  0.8649
   14CHL1    C4  967   5.089   1.716  10.014  0.0586  0.7681  0.1412
   14CHL1   H4A  968   5.195   1.685  10.018  0.4621  1.8335 -1.5691
   14CHL1   H4B  969   5.034   1.637  10.071 -1.8500  0.2078 -2.3216
   14CHL1    C5  970   5.041   1.716   9.867  0.2513  0.2191 -0.0022
   14CHL1    C6  971   4.937   1.645   9.813  0.2532  0.4411 -1.1973
   14CHL1    H6  972   4.867   1.593   9.881  0.2679  1.3717 -0.4534
   14CHL1    C7  973   4.901   1.637   9.671  0.0859  0.7504 -0.2781
   14CHL1   H7A  974   4.865   1.535   9.648 -0.5767  0.6725  0.9861
   14CHL1   H7B  975   4.809   1.697   9.650 -1.3447 -0.8149  1.1955
   14CHL1    C8  976   5.015   1.686   9.575  0.9958  0.0016  0.6132
   14CHL1    H8  977   5.089   1.603   9.579 -0.0450 -1.0622 -1.0060
   14CHL1   C14  978   4.965   1.717   9.435 -0.6555 -0.2810  0.4933
   14CHL1   H14  979   4.898   1.805   9.446 -1.8995 -1.2522  0.9907
   14CHL1   C15  980   4.876   1.611   9.372 -0.1075  1.0442  0.0819
   14CHL1  H15A  981   4.911   1.507   9.394  1.0539  1.5528  0.7284
   14CHL1  H15B  982   4.774   1.627   9.411 -0.6372 -0.6257 -0.5342
   14CHL1   C16  983   4.887   1.631   9.220  0.1751  0.1088  0.0577
   14CHL1  H16A  984   4.940   1.540   9.185  1.4630  0.5866  0.6663
   14CHL1  H16B  985   4.784   1.640   9.179  0.1960  1.0628  0.2009
   14CHL1   C17  986   4.987   1.754   9.207 -0.2018  0.8113  0.4589
   14CHL1   H17  987   4.930   1.848   9.217 -1.0047  0.2090  1.7532
   14CHL1   C13  988   5.071   1.755   9.331  1.1679 -0.3738  0.9724
   14CHL1   C18  989   5.176   1.647   9.310 -0.2126  1.0623  0.5479
   14CHL1  H18A  990   5.246   1.678   9.230  0.9680  1.1915  1.5946
   14CHL1  H18B  991   5.236   1.627   9.401  0.6834  3.3740  0.5205
   14CHL1  H18C  992   5.125   1.550   9.290  1.9857 -0.0206 -0.0410
   14CHL1   C12  993   5.139   1.885   9.382  0.0934 -0.1106 -0.3210
   14CHL1  H12A  994   5.223   1.912   9.315  0.8244 -1.3837  0.0408
   14CHL1  H12B  995   5.063   1.965   9.386  1.5178  1.2581  1.1671
   14CHL1   C11  996   5.187   1.870   9.527  0.2944  0.2105  0.5188
   14CHL1  H11A  997   5.267   1.796   9.504  0.7399  0.7969  0.1481
   14CHL1  H11B  998   5.232   1.962   9.570 -0.7447  0.1035  1.8943
   14CHL1    C9  999   5.082   1.813   9.636 -0.1926 -0.3151  0.2579
   14CHL1    H9 1000   5.000   1.888   9.638 -0.5982 -0.7529  0.0645
   14CHL1   C10 1001   5.141   1.794   9.779  0.2743 -0.4117  0.9380
   14CHL1   C19 1002   5.280   1.722   9.765 -0.7820  0.6064 -0.1004
   14CHL1  H19A 1003   5.322   1.716   9.868  1.2264 -0.2313 -0.9279
   14CHL1  H19B 1004   5.269   1.625   9.711 -1.9894  1.0852 -0.7596
   14CHL1  H19C 1005   5.352   1.785   9.709  0.6299  0.5739  1.6065
   14CHL1    C1 1006   5.170   1.935   9.838  0.0643 -0.2061 -0.2404
   14CHL1   H1A 1007   5.253   1.982   9.781  1.2319 -1.9357 -0.0538
   14CHL1   H1B 1008   5.087   2.004   9.814  0.9126  0.4786 -1.2237
   14CHL1    C2 1009   5.197   1.939   9.991  0.1045 -0.7615 -0.6622
   14CHL1   H2A 1010   5.193   2.044  10.026  1.0347 -1.5205  1.9825
   14CHL1   H2B 1011   5.293   1.902  10.032  0.6296  2.1172  0.9857
   14CHL1   C20 1012   5.056   1.736   9.064 -0.1789  0.3776 -0.2025
   14CHL1   H20 1013   5.125   1.649   9.068 -0.0633  0.2959 -2.5204
   14CHL1   C21 1014   5.134   1.861   9.039 -0.2875  0.0101  0.3555
   14CHL1  H21A 1015   5.185   1.881   8.942  1.1491 -1.6924  0.7180
   14CHL1  H21B 1016   5.229   1.866   9.097 -0.4111  2.9092  0.4551
   14CHL1  H21C 1017   5.075   1.952   9.061  1.1381  0.9972  0.2455
   14CHL1   C22 1018   4.966   1.708   8.947  0.1072  0.3555 -0.7505
   14CHL1  H22A 1019   4.887   1.636   8.977  1.5132 -0.6699  0.6592
   14CHL1  H22B 1020   4.912   1.796   8.904 -0.7515  0.6397  0.8023
   14CHL1   C23 1021   5.047   1.647   8.830  0.2014 -0.1936  0.2565
   14CHL1  H23A 1022   5.148   1.689   8.811  0.1231 -1.0957 -2.7346
   14CHL1  H23B 1023   5.058   1.538   8.845 -1.6730 -1.0099 -3.2092
   14CHL1   C24 1024   4.967   1.657   8.698 -0.1566 -0.1707 -0.1141
   14CHL1  H24A 1025   4.877   1.593   8.707 -0.0462 -0.7514 -2.3869
   14CHL1  H24B 1026   4.935   1.763   8.689  0.4407 -0.0197 -0.4936
   14CHL1   C25 1027   5.051   1.597   8.581  0.1183  0.2335 -0.4886
   14CHL1   H25 1028   5.102   1.506   8.620  1.4890  0.6847 -1.1330
   14CHL1   C26 1029   4.958   1.545   8.468  0.0242  0.8674 -0.2811
   14CHL1  H26A 1030   4.893   1.461   8.503 -0.5056  1.4358  0.1099
   14CHL1  H26B 1031   4.886   1.616   8.421 -0.2131  0.2680 -0.8505
   14CHL1  H26C 1032   5.024   1.510   8.385  0.3993  1.1659 -0.1068
   14CHL1   C27 1033   5.166   1.679   8.521  0.4829 -0.1491 -0.0163
   14CHL1  H27A 1034   5.216   1.621   8.441  0.4072 -0.6469  0.2927
   14CHL1  H27B 1035   5.134   1.768   8.462 -0.9471 -1.4621 -1.3234
   14CHL1  H27C 1036   5.239   1.708   8.600 -0.6592 -0.4088  1.1858
   15CHL1    C3 1037   3.447   1.642  10.124  0.2758  0.5393  0.1129
   15CHL1    H3 1038   3.359   1.702  10.091  0.2082 -1.2502 -3.4336
   15CHL1    O3 1039   3.438   1.636  10.263  0.0208 -0.0195  0.0017
   15CHL1   H3' 1040   3.383   1.560  10.286 -1.8585  0.9897 -0.8702
   15CHL1    C4 1041   3.438   1.505  10.054  0.2464  0.5494 -0.7293
   15CHL1   H4A 1042   3.523   1.445  10.093  0.4192 -0.2117 -2.1956
   15CHL1   H4B 1043   3.340   1.461  10.083 -1.1365  1.9027 -3.0672
   15CHL1    C5 1044   3.452   1.522   9.905  0.7745 -0.2688 -0.2378
   15CHL1    C6 1045   3.358   1.475   9.824 -0.1996  0.2320  0.0735
   15CHL1    H6 1046   3.278   1.415   9.870 -1.7441  0.9039 -1.6485
   15CHL1    C7 1047   3.358   1.500   9.674 -0.4866  0.1670 -0.3642
   15CHL1   H7A 1048   3.312   1.412   9.623 -0.6437  0.8599 -1.4516
   15CHL1   H7B 1049   3.288   1.581   9.644 -0.9719 -0.0758  0.0813
   15CHL1    C8 1050   3.494   1.545   9.618 -0.2383 -0.2337 -0.4975
   15CHL1    H8 1051   3.552   1.451   9.629 -2.8398 -1.7353  1.7592
   15CHL1   C14 1052   3.486   1.590   9.474  0.7848 -0.2439 -0.0434
   15CHL1   H14 1053   3.437   1.689   9.466 -0.4906 -0.8422  0.0758
   15CHL1   C15 1054   3.420   1.494   9.373  0.4350  0.7461 -0.2722
   15CHL1  H15A 1055   3.451   1.392   9.403 -2.5039 -0.1488  0.0236
   15CHL1  H15B 1056   3.309   1.493   9.371  0.3847  0.2597 -3.6330
   15CHL1   C16 1057   3.469   1.547   9.233 -0.6002  0.9279 -0.2692
   15CHL1  H16A 1058   3.503   1.459   9.175 -1.3780  1.4439 -1.5589
   15CHL1  H16B 1059   3.385   1.583   9.168 -1.2323 -0.3109 -0.1613
   15CHL1   C17 1060   3.586   1.644   9.265 -0.0637  0.3556  0.4811
   15CHL1   H17 1061   3.557   1.751   9.265 -1.1257  0.0878  1.2470
   15CHL1   C13 1062   3.624   1.617   9.410 -0.4264 -0.3606 -0.6086
   15CHL1   C18 1063   3.721   1.489   9.422  0.1584 -0.4806 -0.0879
   15CHL1  H18A 1064   3.687   1.420   9.342 -1.3265 -1.4586  1.3199
   15CHL1  H18B 1065   3.825   1.517   9.396 -0.0507  1.0333  0.5556
   15CHL1  H18C 1066   3.732   1.438   9.520  0.1631 -1.0014 -0.3583
   15CHL1   C12 1067   3.675   1.740   9.493  0.0988 -0.1791  0.8242
   15CHL1  H12A 1068   3.777   1.767   9.457  0.5148 -1.5555  0.9255
   15CHL1  H12B 1069   3.605   1.824   9.474 -0.3371 -0.5787  0.6587
   15CHL1   C11 1070   3.694   1.698   9.642  0.4728  0.0987  0.0841
   15CHL1  H11A 1071   3.756   1.606   9.635  1.4570  0.7557 -0.1705
   15CHL1  H11B 1072   3.765   1.763   9.699  0.4233 -0.7868  1.1945
   15CHL1    C9 1073   3.564   1.655   9.709 -0.1517  0.4589  0.1668
   15CHL1    H9 1074   3.490   1.738   9.701 -1.5797 -0.5533  1.9882
   15CHL1   C10 1075   3.573   1.614   9.860 -0.0302 -0.3884  0.4353
   15CHL1   C19 1076   3.713   1.547   9.884 -0.1006 -0.1974 -0.0669
   15CHL1  H19A 1077   3.799   1.615   9.865  1.1400 -1.8449 -0.6074
   15CHL1  H19B 1078   3.717   1.505   9.987 -0.9352 -0.8210 -0.2757
   15CHL1  H19C 1079   3.736   1.458   9.822  0.6701  0.2738 -0.4720
   15CHL1    C1 1080   3.573   1.748   9.936 -0.6283  0.2992 -0.7401
   15CHL1   H1A 1081   3.650   1.813   9.890  1.0679 -0.9041  0.2865
   15CHL1   H1B 1082   3.479   1.802   9.912  0.2844  3.1325  1.5363
   15CHL1    C2 1083   3.574   1.723  10.092 -0.1752  0.6321  0.6235
   15CHL1   H2A 1084   3.566   1.816  10.152 -1.2045  2.3579 -2.0282
   15CHL1   H2B 1085   3.661   1.658  10.114  1.5101  2.5570 -0.1146
   15CHL1   C20 1086   3.686   1.645   9.148 -1.0835  0.0888 -0.9509
   15CHL1   H20 1087   3.720   1.541   9.129  1.0463  0.6154 -0.3864
   15CHL1   C21 1088   3.809   1.739   9.181 -0.3415 -0.1967  0.2917
   15CHL1  H21A 1089   3.884   1.678   9.237 -1.3113 -1.1821  0.5541
   15CHL1  H21B 1090   3.783   1.832   9.235  3.2313  1.6462 -0.8478
   15CHL1  H21C 1091   3.853   1.779   9.087 -2.1573 -0.2447 -0.6021
   15CHL1   C22 1092   3.621   1.700   9.017  0.1933 -0.0259  0.0033
   15CHL1  H22A 1093   3.520   1.655   9.008  0.8079 -1.5897  0.4792
   15CHL1  H22B 1094   3.599   1.808   9.031  0.0445  0.1905 -1.6843
   15CHL1   C23 1095   3.711   1.676   8.895 -0.4192  0.6382  0.8485
   15CHL1  H23A 1096   3.809   1.727   8.899 -0.6864  1.2369  0.0256
   15CHL1  H23B 1097   3.736   1.569   8.874 -3.6638 -0.0983  0.2302
   15CHL1   C24 1098   3.645   1.733   8.771  0.8317 -0.2404  0.3759
   15CHL1  H24A 1099   3.548   1.683   8.754  1.8305 -1.3558 -2.9795
   15CHL1  H24B 1100   3.621   1.840   8.788 -0.9427 -0.4910 -0.3943
   15CHL1   C25 1101   3.722   1.715   8.637  0.1631 -1.0843 -0.0296
   15CHL1   H25 1102   3.831   1.735   8.651 -0.2263 -0.9779  4.0139
   15CHL1   C26 1103   3.690   1.587   8.573  0.0091  0.4694  0.2021
   15CHL1  H26A 1104   3.724   1.507   8.642 -0.1053  2.4136  2.6700
   15CHL1  H26B 1105   3.584   1.580   8.540  0.4937  0.8508 -1.4926
   15CHL1  H26C 1106   3.755   1.584   8.483 -0.3345 -0.0177 -0.0332
   15CHL1   C27 1107   3.690   1.820   8.532  0.2625 -0.4167 -0.4363
   15CHL1  H27A 1108   3.714   1.806   8.425 -2.4065  2.0265 -1.5000
   15CHL1  H27B 1109   3.579   1.825   8.522  0.2870 -1.8070 -1.8179
   15CHL1  H27C 1110   3.736   1.915   8.568  0.2865 -0.8901  0.8429
   16CHL1    C3 1111   4.754   1.383  10.366  0.7779  0.1605  0.5649
   16CHL1    H3 1112   4.790   1.481  10.328  0.9706  0.0488  0.4582
   16CHL1    O3 1113   4.726   1.386  10.508  0.4074  0.3050  0.4249
   16CHL1   H3' 1114   4.714   1.292  10.524  1.4362  0.2896  1.2251
   16CHL1    C4 1115   4.615   1.355  10.294  0.1027 -0.0109 -0.1788
   16CHL1   H4A 1116   4.560   1.269  10.339 -0.9084  0.1497 -1.0767
   16CHL1   H4B 1117   4.547   1.441  10.312  0.0469  0.1107 -0.9714
   16CHL1    C5 1118   4.633   1.332  10.149  0.2796 -0.3427  0.0088
   16CHL1    C6 1119   4.558   1.409  10.065  0.6351  0.5505 -0.2576
   16CHL1    H6 1120   4.478   1.469  10.111  0.0943 -1.1443  1.1741
   16CHL1    C7 1121   4.561   1.400   9.912 -0.0555  0.0774 -0.0015
   16CHL1   H7A 1122   4.461   1.385   9.868 -0.2309 -0.2939  0.5123
   16CHL1   H7B 1123   4.603   1.484   9.852  1.7991 -2.0423 -1.8398
   16CHL1    C8 1124   4.641   1.272   9.859  0.3255 -0.4936 -0.8215
   16CHL1    H8 1125   4.567   1.188   9.863  0.8016 -0.9002 -0.4937
   16CHL1   C14 1126   4.696   1.280   9.722 -0.4047 -0.1185  0.1421
   16CHL1   H14 1127   4.763   1.369   9.726 -0.2701 -0.2434  0.6566
   16CHL1   C15 1128   4.590   1.319   9.614  0.8513  0.0125 -0.3947
   16CHL1  H15A 1129   4.496   1.259   9.614  2.1144 -2.0491 -0.1527
   16CHL1  H15B 1130   4.567   1.427   9.630 -0.2233  0.4116 -3.7575
   16CHL1   C16 1131   4.665   1.300   9.483  0.7641  0.0420 -0.0173
   16CHL1  H16A 1132   4.609   1.229   9.420  3.3244 -0.3714 -2.0034
   16CHL1  H16B 1133   4.669   1.404   9.444 -3.6183 -0.0941 -1.3056
   16CHL1   C17 1134   4.800   1.224   9.513 -0.0914 -0.7504  0.0276
   16CHL1   H17 1135   4.881   1.299   9.528 -1.9818  1.0883  1.7387
   16CHL1   C13 1136   4.776   1.171   9.659 -0.0307  0.3485  0.2000
   16CHL1   C18 1137   4.690   1.038   9.662  0.3586 -0.1843 -0.8328
   16CHL1  H18A 1138   4.607   1.037   9.588 -1.2647 -1.3554  0.9252
   16CHL1  H18B 1139   4.758   0.950   9.654  0.3771 -0.2414 -0.0889
   16CHL1  H18C 1140   4.645   1.021   9.762 -1.4401  1.0936 -1.3872
   16CHL1   C12 1141   4.900   1.168   9.751 -0.2474  0.2171  0.1635
   16CHL1  H12A 1142   4.963   1.085   9.714 -2.0968 -1.3810  0.4460
   16CHL1  H12B 1143   4.947   1.268   9.741 -0.4686  0.8288  3.7686
   16CHL1   C11 1144   4.861   1.140   9.893 -0.1274  1.0688  0.2805
   16CHL1  H11A 1145   4.820   1.037   9.899  3.7192 -0.5214  2.6919
   16CHL1  H11B 1146   4.951   1.139   9.957  1.0415 -0.8152 -1.2993
   16CHL1    C9 1147   4.764   1.249   9.950  0.4123  0.6316  0.0989
   16CHL1    H9 1148   4.830   1.337   9.952  1.0073  0.3475 -2.8427
   16CHL1   C10 1149   4.730   1.228  10.097  0.2449  0.4112 -0.2094
   16CHL1   C19 1150   4.656   1.089  10.124 -0.3600 -0.2820  0.2191
   16CHL1  H19A 1151   4.576   1.073  10.048 -0.2891 -0.7524  0.2372
   16CHL1  H19B 1152   4.734   1.010  10.122 -1.4101 -1.3379 -0.8741
   16CHL1  H19C 1153   4.605   1.089  10.222  0.0039 -1.5488  0.4343
   16CHL1    C1 1154   4.863   1.236  10.187 -0.7482  0.2010  0.3219
   16CHL1   H1A 1155   4.921   1.144  10.162 -3.9229 -2.2603  1.2997
   16CHL1   H1B 1156   4.912   1.327  10.148 -1.2708 -0.4088 -1.9036
   16CHL1    C2 1157   4.852   1.261  10.338  0.4717  0.8223  0.1141
   16CHL1   H2A 1158   4.951   1.279  10.386  0.9424  0.1599 -0.5917
   16CHL1   H2B 1159   4.812   1.171  10.390  1.1456 -0.0575 -0.8495
   16CHL1   C20 1160   4.849   1.134   9.396  0.6414 -0.4505  0.4361
   16CHL1   H20 1161   4.784   1.044   9.396 -0.8160  0.5530 -0.2489
   16CHL1   C21 1162   4.989   1.076   9.429  0.1773 -0.3865  0.4462
   16CHL1  H21A 1163   5.022   1.007   9.347  1.0478 -0.5930  0.9618
   16CHL1  H21B 1164   4.981   1.020   9.524 -1.4186  1.2636  1.3486
   16CHL1  H21C 1165   5.054   1.165   9.440 -3.2436  2.1057  2.5327
   16CHL1   C22 1166   4.852   1.197   9.259  0.8574  0.4133  0.7586
   16CHL1  H22A 1167   4.760   1.260   9.253  0.6260  0.0230 -0.0400
   16CHL1  H22B 1168   4.929   1.276   9.246 -0.8914  2.1404  0.2472
   16CHL1   C23 1169   4.872   1.115   9.133  0.0195 -0.3861  0.7216
   16CHL1  H23A 1170   4.974   1.073   9.147  0.6135  1.4367  2.3290
   16CHL1  H23B 1171   4.817   1.020   9.118  1.7488 -1.0937 -1.6510
   16CHL1   C24 1172   4.879   1.203   9.009  0.1642  0.2515 -0.7019
   16CHL1  H24A 1173   4.941   1.295   9.017  0.6677  0.0706 -2.2048
   16CHL1  H24B 1174   4.927   1.142   8.929 -0.0911  0.3169 -0.9047
   16CHL1   C25 1175   4.744   1.249   8.949  0.6345  0.2219  0.1470
   16CHL1   H25 1176   4.667   1.281   9.022  1.5229  1.3474  0.6318
   16CHL1   C26 1177   4.764   1.362   8.850 -0.4045 -0.3372  0.3521
   16CHL1  H26A 1178   4.808   1.456   8.890 -0.7278  1.2927 -2.7618
   16CHL1  H26B 1179   4.836   1.314   8.781 -1.5877 -1.8962  0.1421
   16CHL1  H26C 1180   4.669   1.393   8.801  0.3583  1.1007 -0.2686
   16CHL1   C27 1181   4.675   1.132   8.882 -0.0212  0.4836 -0.1457
   16CHL1  H27A 1182   4.645   1.058   8.959  3.7638  0.7097  1.7522
   16CHL1  H27B 1183   4.586   1.176   8.831  0.1403 -1.5021 -2.2833
   16CHL1  H27C 1184   4.736   1.093   8.798 -0.0098  0.2680 -0.0375
   17CHL1    C3 1185   1.813   4.862  10.334 -0.1303 -0.1342  0.6685
   17CHL1    H3 1186   1.879   4.774  10.347 -0.4278  0.0212  3.8089
   17CHL1    O3 1187   1.813   4.931  10.459  0.1422 -0.6229  0.5101
   17CHL1   H3' 1188   1.724   4.940  10.494 -0.9409 -0.1573 -2.0715
   17CHL1    C4 1189   1.875   4.950  10.226 -0.6895  0.2796 -0.4806
   17CHL1   H4A 1190   1.831   5.050  10.240 -0.3334  0.2149  1.3750
   17CHL1   H4B 1191   1.983   4.949  10.253 -0.8966 -0.3955  0.3631
   17CHL1    C5 1192   1.842   4.893  10.090 -0.3607  0.2555  0.0190
   17CHL1    C6 1193   1.938   4.882   9.995  0.4915 -0.3097  0.8694
   17CHL1    H6 1194   2.034   4.931  10.020 -0.4958  4.3739 -3.0403
   17CHL1    C7 1195   1.919   4.856   9.848  0.0686 -0.2832  0.7975
   17CHL1   H7A 1196   1.963   4.940   9.790  0.9058 -0.2664  1.4365
   17CHL1   H7B 1197   1.991   4.775   9.823  1.4659  1.0768  0.1972
   17CHL1    C8 1198   1.769   4.844   9.810  0.3788  1.1130  0.6322
   17CHL1    H8 1199   1.722   4.942   9.788 -2.3392 -0.1154  0.6192
   17CHL1   C14 1200   1.755   4.742   9.693 -0.2805 -0.6982 -0.3949
   17CHL1   H14 1201   1.770   4.640   9.735  0.0072 -1.0659 -1.3667
   17CHL1   C15 1202   1.857   4.748   9.574  0.1127 -0.5095 -0.5110
   17CHL1  H15A 1203   1.887   4.851   9.546  0.4779 -0.1410  1.1269
   17CHL1  H15B 1204   1.949   4.694   9.605 -0.1841 -0.8102 -0.1386
   17CHL1   C16 1205   1.781   4.681   9.458 -0.4072 -0.1013 -0.1306
   17CHL1  H16A 1206   1.780   4.763   9.382  3.4251  0.4243  0.1837
   17CHL1  H16B 1207   1.848   4.606   9.412  0.0696 -0.5922  1.3100
   17CHL1   C17 1208   1.646   4.641   9.512  0.6685  0.0895 -0.1641
   17CHL1   H17 1209   1.656   4.538   9.553 -0.2339 -1.6799 -3.9033
   17CHL1   C13 1210   1.611   4.739   9.633  0.4002  0.2236 -0.0709
   17CHL1   C18 1211   1.584   4.881   9.569 -0.2609  0.3035  0.6836
   17CHL1  H18A 1212   1.504   4.876   9.493  1.1726  1.4295 -0.9675
   17CHL1  H18B 1213   1.562   4.959   9.644  1.5411  1.0677  0.4740
   17CHL1  H18C 1214   1.674   4.922   9.518  0.7133  1.3695  3.0859
   17CHL1   C12 1215   1.514   4.681   9.744 -0.6116  0.2879 -0.0989
   17CHL1  H12A 1216   1.411   4.689   9.705 -0.7265 -1.4712 -0.2474
   17CHL1  H12B 1217   1.538   4.573   9.757  0.7811  0.3306 -1.9203
   17CHL1   C11 1218   1.534   4.763   9.867 -0.3943 -0.3468  0.5958
   17CHL1  H11A 1219   1.497   4.863   9.835  1.1087  0.3263  0.8584
   17CHL1  H11B 1220   1.465   4.726   9.946 -1.1516 -0.9972 -0.3511
   17CHL1    C9 1221   1.683   4.783   9.921 -0.3154 -0.6140  0.4475
   17CHL1    H9 1222   1.730   4.683   9.931 -2.9178 -2.2363 -2.0661
   17CHL1   C10 1223   1.695   4.845  10.065  0.4079 -0.5418  0.4368
   17CHL1   C19 1224   1.603   4.975  10.054 -0.1571  0.3567 -0.4259
   17CHL1  H19A 1225   1.497   4.948  10.074  0.1860  1.1918  3.2492
   17CHL1  H19B 1226   1.632   5.043  10.137 -1.8291  0.2552  0.2628
   17CHL1  H19C 1227   1.617   5.030   9.959  1.9153  0.7518  0.0554
   17CHL1    C1 1228   1.660   4.743  10.176 -0.3094  0.5086  0.6086
   17CHL1   H1A 1229   1.563   4.693  10.159  1.6135 -2.9358 -1.4298
   17CHL1   H1B 1230   1.728   4.655  10.173 -2.4116 -1.1928  0.5463
   17CHL1    C2 1231   1.671   4.802  10.317  0.0725 -0.5158  0.0610
   17CHL1   H2A 1232   1.655   4.726  10.397  0.2517 -1.0022 -0.3645
   17CHL1   H2B 1233   1.599   4.884  10.332 -0.3728 -1.0037  0.6477
   17CHL1   C20 1234   1.542   4.622   9.401 -0.2517 -0.5491 -0.3809
   17CHL1   H20 1235   1.514   4.721   9.359 -2.7521 -0.6068  0.9493
   17CHL1   C21 1236   1.404   4.560   9.443 -0.2208 -0.1356 -0.2767
   17CHL1  H21A 1237   1.353   4.625   9.518  0.1010  0.4224 -0.5339
   17CHL1  H21B 1238   1.420   4.464   9.497  0.5560 -0.0619 -0.3727
   17CHL1  H21C 1239   1.342   4.534   9.355 -0.3787  0.9444 -0.5034
   17CHL1   C22 1240   1.604   4.538   9.280  0.0909 -0.4789  0.1551
   17CHL1  H22A 1241   1.697   4.593   9.250 -0.1050  1.7113  3.0876
   17CHL1  H22B 1242   1.651   4.447   9.323 -0.4773  0.4924  3.0186
   17CHL1   C23 1243   1.509   4.509   9.167 -0.6846  0.3636 -0.2400
   17CHL1  H23A 1244   1.440   4.432   9.208  0.9374 -1.5099 -0.8510
   17CHL1  H23B 1245   1.450   4.601   9.152 -1.2556  0.1406  0.6019
   17CHL1   C24 1246   1.571   4.457   9.036  0.2575  0.2618  0.2566
   17CHL1  H24A 1247   1.647   4.528   8.999  0.3584 -0.4717 -1.0027
   17CHL1  H24B 1248   1.622   4.362   9.059  0.7980  0.0020 -1.8459
   17CHL1   C25 1249   1.462   4.451   8.925 -0.2393 -0.0536 -0.1709
   17CHL1   H25 1250   1.421   4.553   8.908 -0.5640 -0.2531 -0.6026
   17CHL1   C26 1251   1.527   4.410   8.793 -0.1544 -0.0360 -0.2031
   17CHL1  H26A 1252   1.450   4.402   8.714  0.7925  3.0254 -1.5796
   17CHL1  H26B 1253   1.607   4.483   8.769 -1.7179  1.9511  0.3373
   17CHL1  H26C 1254   1.570   4.310   8.818  0.4224  0.4853  0.9918
   17CHL1   C27 1255   1.345   4.354   8.964  0.4816  0.4925  0.1770
   17CHL1  H27A 1256   1.385   4.256   8.998  1.4218  0.1737 -1.6783
   17CHL1  H27B 1257   1.285   4.404   9.043 -2.6402  0.9049 -2.2210
   17CHL1  H27C 1258   1.281   4.346   8.873  0.5047 -1.2397  0.2848
   18CHL1    C3 1259   1.030   5.504  10.015  0.2682  0.0797  0.1214
   18CHL1    H3 1260   1.063   5.400   9.991 -0.1863 -0.0309 -0.0291
   18CHL1    O3 1261   0.962   5.501  10.135  0.4690 -0.2989  0.2628
   18CHL1   H3' 1262   0.883   5.555  10.123 -0.4620 -1.5489  0.4983
   18CHL1    C4 1263   1.157   5.589  10.031 -0.1949 -0.3249  0.1676
   18CHL1   H4A 1264   1.136   5.697  10.045 -0.5296 -0.4206  0.4044
   18CHL1   H4B 1265   1.211   5.556  10.122 -0.7151  0.2666  0.6962
   18CHL1    C5 1266   1.220   5.588   9.892 -0.3113 -0.4240 -0.1902
   18CHL1    C6 1267   1.351   5.552   9.892 -0.1209  0.1783 -0.6972
   18CHL1    H6 1268   1.413   5.514   9.975  1.2020 -1.6016 -2.3893
   18CHL1    C7 1269   1.444   5.556   9.769 -0.1104  0.0254  0.3738
   18CHL1   H7A 1270   1.541   5.594   9.807  0.5855 -0.2125 -1.0720
   18CHL1   H7B 1271   1.457   5.454   9.727  1.6623  0.5256 -0.3834
   18CHL1    C8 1272   1.382   5.643   9.664 -1.0551  0.1803  0.1665
   18CHL1    H8 1273   1.413   5.744   9.698  0.2703  0.8419 -2.7604
   18CHL1   C14 1274   1.458   5.624   9.536 -0.4506 -0.4090 -0.6520
   18CHL1   H14 1275   1.443   5.519   9.505 -0.3678 -0.2741 -1.1691
   18CHL1   C15 1276   1.613   5.645   9.536 -0.0661 -0.4560  0.3294
   18CHL1  H15A 1277   1.621   5.750   9.574 -0.1540 -0.4461  0.3213
   18CHL1  H15B 1278   1.676   5.577   9.597  1.1747 -0.9087 -1.3717
   18CHL1   C16 1279   1.648   5.648   9.388  0.0466  0.2682 -0.3412
   18CHL1  H16A 1280   1.726   5.725   9.372  1.5407 -1.6712 -3.2239
   18CHL1  H16B 1281   1.687   5.553   9.346 -0.4867 -0.7327  1.3040
   18CHL1   C17 1282   1.507   5.661   9.308 -0.1375 -0.7360  0.4770
   18CHL1   H17 1283   1.481   5.561   9.267  0.2365 -0.8829  0.5851
   18CHL1   C13 1284   1.405   5.704   9.419  0.0659  0.5452 -0.4904
   18CHL1   C18 1285   1.414   5.853   9.449  0.0034  0.4761 -0.1138
   18CHL1  H18A 1286   1.515   5.898   9.454 -0.1030  0.6787  0.2636
   18CHL1  H18B 1287   1.349   5.913   9.382  0.6870 -0.6050 -1.7821
   18CHL1  H18C 1288   1.361   5.878   9.544 -1.8703  1.5322 -1.3871
   18CHL1   C12 1289   1.257   5.658   9.394  0.8644  0.3810 -0.0752
   18CHL1  H12A 1290   1.218   5.700   9.299  1.4215  0.8068 -0.1192
   18CHL1  H12B 1291   1.251   5.547   9.389 -0.1917  0.2074  2.8954
   18CHL1   C11 1292   1.174   5.684   9.519  0.2253  0.2192 -0.2017
   18CHL1  H11A 1293   1.167   5.793   9.538 -1.0887 -0.1611  1.8115
   18CHL1  H11B 1294   1.070   5.650   9.499  0.7201 -1.6289  0.1695
   18CHL1    C9 1295   1.232   5.620   9.646 -0.8383  0.3744  0.4000
   18CHL1    H9 1296   1.230   5.514   9.614  0.2002  0.9265 -1.6879
   18CHL1   C10 1297   1.149   5.644   9.773  0.1164  0.6277  0.7186
   18CHL1   C19 1298   1.124   5.794   9.800  0.7920  0.0096  0.0103
   18CHL1  H19A 1299   1.061   5.829   9.716 -1.5053 -0.6051  1.4068
   18CHL1  H19B 1300   1.065   5.816   9.892  0.9715  0.3114  0.0543
   18CHL1  H19C 1301   1.214   5.859   9.810  0.7002 -0.0715  1.7908
   18CHL1    C1 1302   1.017   5.570   9.765  1.7291 -0.1421 -0.5127
   18CHL1   H1A 1303   0.951   5.627   9.697  1.0220  0.0975  0.3531
   18CHL1   H1B 1304   1.033   5.466   9.728  1.7425 -0.3228 -0.0055
   18CHL1    C2 1305   0.937   5.549   9.906  0.2421 -0.5440  0.7488
   18CHL1   H2A 1306   0.856   5.473   9.901  1.8360 -2.3732  1.3281
   18CHL1   H2B 1307   0.899   5.650   9.935  0.0022 -0.2931 -0.3902
   18CHL1   C20 1308   1.532   5.744   9.184  0.3459 -0.0541  1.0035
   18CHL1   H20 1309   1.563   5.846   9.216 -0.8513  1.2951 -1.7691
   18CHL1   C21 1310   1.401   5.765   9.106 -0.1483  0.1488 -0.7429
   18CHL1  H21A 1311   1.335   5.830   9.166  1.2242  1.4936 -0.6211
   18CHL1  H21B 1312   1.352   5.667   9.089 -2.3361  1.3242 -1.6273
   18CHL1  H21C 1313   1.415   5.810   9.005  0.2133 -1.6134 -1.5185
   18CHL1   C22 1314   1.650   5.686   9.101  0.5160 -0.2101  0.3358
   18CHL1  H22A 1315   1.661   5.748   9.010 -1.3975 -1.2649 -0.6704
   18CHL1  H22B 1316   1.747   5.696   9.156  1.3654  0.2887 -1.2038
   18CHL1   C23 1317   1.637   5.541   9.049 -0.5573 -0.0488 -0.1054
   18CHL1  H23A 1318   1.634   5.472   9.135 -0.6623  1.9103  1.5338
   18CHL1  H23B 1319   1.542   5.530   8.992  0.0633 -2.4638 -0.7898
   18CHL1   C24 1320   1.741   5.504   8.947 -0.0494 -0.4194 -0.4175
   18CHL1  H24A 1321   1.770   5.583   8.875 -0.2217 -0.0358 -0.0667
   18CHL1  H24B 1322   1.839   5.494   8.999  0.4859  4.3152 -0.0996
   18CHL1   C25 1323   1.714   5.371   8.863 -0.1819 -0.2875 -0.0208
   18CHL1   H25 1324   1.724   5.284   8.932  2.1919 -1.4688 -1.7248
   18CHL1   C26 1325   1.588   5.371   8.782 -0.2396  0.4029  0.4179
   18CHL1  H26A 1326   1.502   5.414   8.838  0.6624 -1.3804  3.3454
   18CHL1  H26B 1327   1.604   5.445   8.700 -1.1500 -0.1828 -0.3075
   18CHL1  H26C 1328   1.568   5.274   8.732  3.7466  0.2529 -1.2734
   18CHL1   C27 1329   1.834   5.347   8.766 -0.2260  0.5943  0.0568
   18CHL1  H27A 1330   1.823   5.415   8.679 -2.5772 -0.5561 -0.6345
   18CHL1  H27B 1331   1.927   5.350   8.826 -0.3190  0.3044  0.2168
   18CHL1  H27C 1332   1.832   5.248   8.715 -0.7694  1.3490 -1.4319
   19CHL1    C3 1333   0.004   6.089  10.076  0.1435  0.0008  0.4664
   19CHL1    H3 1334   0.113   6.114  10.073  0.4537 -1.1761  1.3796
   19CHL1    O3 1335  -0.021   6.077  10.211  0.0551 -0.3419 -0.1368
   19CHL1   H3' 1336   0.016   6.157  10.250  0.2773 -0.6433  0.2829
   19CHL1    C4 1337  -0.069   6.205  10.008 -0.2765  0.2012  0.1133
   19CHL1   H4A 1338  -0.177   6.193  10.031  0.1134 -1.9925  1.0623
   19CHL1   H4B 1339  -0.026   6.298  10.052  1.6057 -0.9872  0.9241
   19CHL1    C5 1340  -0.053   6.198   9.859  0.3765 -0.1010  0.0242
   19CHL1    C6 1341  -0.015   6.302   9.786 -0.8164 -0.2664 -0.4596
   19CHL1    H6 1342  -0.013   6.397   9.842  1.8253  0.7107 -2.0616
   19CHL1    C7 1343  -0.005   6.313   9.640  1.1031  0.4434  0.4481
   19CHL1   H7A 1344  -0.047   6.409   9.604  1.4093  0.7133  0.7968
   19CHL1   H7B 1345   0.104   6.319   9.618  0.9998  1.0208  0.0944
   19CHL1    C8 1346  -0.070   6.197   9.560  0.4986  0.4164 -0.7585
   19CHL1    H8 1347  -0.181   6.208   9.565  0.6307  1.9209 -0.5143
   19CHL1   C14 1348  -0.025   6.194   9.417 -0.3812 -0.0094 -0.2166
   19CHL1   H14 1349   0.087   6.193   9.417 -0.3855 -1.0813 -0.2877
   19CHL1   C15 1350  -0.052   6.316   9.329 -0.2926 -0.4910 -0.0505
   19CHL1  H15A 1351  -0.153   6.349   9.363 -0.1962  0.2273 -0.4481
   19CHL1  H15B 1352   0.022   6.397   9.348 -1.4091  0.5526 -0.0136
   19CHL1   C16 1353  -0.048   6.261   9.183 -0.4964 -0.8591 -0.5747
   19CHL1  H16A 1354  -0.133   6.305   9.127 -0.4865 -0.3399 -0.1870
   19CHL1  H16B 1355   0.041   6.308   9.137  0.1439 -1.4670  0.0188
   19CHL1   C17 1356  -0.025   6.105   9.188 -0.2859 -0.7057 -0.0699
   19CHL1   H17 1357   0.082   6.076   9.184 -0.3108 -0.6760 -1.4105
   19CHL1   C13 1358  -0.075   6.071   9.339  0.1947 -0.5353 -0.0973
   19CHL1   C18 1359  -0.236   6.066   9.324 -0.0535  0.1065  0.0557
   19CHL1  H18A 1360  -0.277   6.164   9.292 -1.0553 -1.4138 -3.7871
   19CHL1  H18B 1361  -0.278   5.985   9.261  0.4240  0.6902 -1.0446
   19CHL1  H18C 1362  -0.268   6.059   9.430  0.6409  0.2889  0.2892
   19CHL1   C12 1363  -0.025   5.947   9.406  0.0409 -0.4248  0.6213
   19CHL1  H12A 1364  -0.061   5.853   9.358 -2.2574  0.2178  0.9909
   19CHL1  H12B 1365   0.086   5.939   9.411  0.0870  0.3878  1.0643
   19CHL1   C11 1366  -0.075   5.936   9.552  0.4181 -0.3463  0.5076
   19CHL1  H11A 1367  -0.186   5.929   9.548  0.1290  2.8352  0.0819
   19CHL1  H11B 1368  -0.028   5.852   9.608  2.1616  1.3042  1.6535
   19CHL1    C9 1369  -0.035   6.067   9.630 -0.3251  0.6425 -0.0521
   19CHL1    H9 1370   0.075   6.071   9.618 -0.0856 -0.4638  1.4759
   19CHL1   C10 1371  -0.074   6.064   9.781  0.3967  0.3851  0.1899
   19CHL1   C19 1372  -0.223   6.017   9.789 -0.5889  0.0599 -0.1903
   19CHL1  H19A 1373  -0.248   5.922   9.737  0.6432  0.2258 -1.1462
   19CHL1  H19B 1374  -0.255   6.012   9.895  0.1298  0.9756  0.0807
   19CHL1  H19C 1375  -0.290   6.093   9.744 -2.0090 -0.3692  1.1000
   19CHL1    C1 1376   0.020   5.966   9.856  0.1556  0.4058 -0.8822
   19CHL1   H1A 1377   0.003   5.865   9.813  1.2111  0.2047 -0.8625
   19CHL1   H1B 1378   0.125   5.996   9.835  0.8160  0.3578  1.9054
   19CHL1    C2 1379  -0.012   5.957  10.006  0.6921 -0.7903  0.4953
   19CHL1   H2A 1380   0.050   5.877  10.051  1.3030  0.5574  2.1636
   19CHL1   H2B 1381  -0.115   5.914  10.013 -1.1190  2.7811 -1.2494
   19CHL1   C20 1382  -0.106   6.036   9.076 -0.2984  0.5645  1.1762
   19CHL1   H20 1383  -0.212   6.066   9.085  0.3132  2.9499  1.1080
   19CHL1   C21 1384  -0.099   5.889   9.086  0.1952  0.1813 -0.0736
   19CHL1  H21A 1385  -0.098   5.838   8.987 -1.5258 -0.1653  0.0548
   19CHL1  H21B 1386  -0.181   5.840   9.143  1.7655 -0.2392  1.9285
   19CHL1  H21C 1387  -0.004   5.867   9.138  0.0828  1.5143  0.7388
   19CHL1   C22 1388  -0.061   6.083   8.937 -0.5137 -0.1263 -0.0660
   19CHL1  H22A 1389  -0.106   6.011   8.865 -1.4520  1.9591 -1.6491
   19CHL1  H22B 1390  -0.110   6.180   8.912 -1.4116 -0.5427  0.0217
   19CHL1   C23 1391   0.089   6.101   8.906  0.5036  0.9179  0.0054
   19CHL1  H23A 1392   0.124   6.185   8.969 -1.1166  0.5479  1.4758
   19CHL1  H23B 1393   0.141   6.005   8.926  2.7358  2.4629  2.2250
   19CHL1   C24 1394   0.116   6.136   8.760 -0.3043  0.2259 -0.0653
   19CHL1  H24A 1395   0.059   6.227   8.732  2.5268  1.9456 -0.5600
   19CHL1  H24B 1396   0.225   6.152   8.757  0.5238 -4.0059  0.7369
   19CHL1   C25 1397   0.089   6.019   8.655  0.7770  0.4235 -0.4748
   19CHL1   H25 1398  -0.013   5.979   8.672  1.4824 -2.1203 -1.6316
   19CHL1   C26 1399   0.106   6.078   8.517 -0.2925 -0.8635 -0.6609
   19CHL1  H26A 1400   0.209   6.119   8.506 -0.7270  1.6412  2.7712
   19CHL1  H26B 1401   0.094   5.992   8.448 -1.0371  0.0608 -1.7187
   19CHL1  H26C 1402   0.032   6.158   8.496 -0.2665 -0.5740  0.2955
   19CHL1   C27 1403   0.174   5.893   8.683  0.4040  0.6066  0.7346
   19CHL1  H27A 1404   0.276   5.926   8.712  0.9500  0.8215 -1.2907
   19CHL1  H27B 1405   0.124   5.838   8.765 -0.4522 -2.1428 -1.4489
   19CHL1  H27C 1406   0.171   5.829   8.592 -3.5895 -0.2072  1.2600
   20CHL1    C3 1407   5.228   1.219  10.138 -0.0446 -0.0671  0.5023
   20CHL1    H3 1408   5.138   1.198  10.077  1.7099 -2.7172 -1.3559
   20CHL1    O3 1409   5.209   1.207  10.277  0.4011  0.2285 -0.2062
   20CHL1   H3' 1410   5.159   1.125  10.281  1.9342 -0.9486 -2.9503
   20CHL1    C4 1411   5.323   1.106  10.095 -0.8262 -0.2599 -0.6064
   20CHL1   H4A 1412   5.411   1.121  10.161 -0.9156 -0.5426 -0.4213
   20CHL1   H4B 1413   5.296   1.003  10.125  1.5167 -1.1926 -1.4959
   20CHL1    C5 1414   5.352   1.112   9.940 -0.5285  0.2891 -0.2938
   20CHL1    C6 1415   5.328   1.013   9.857 -0.2627  0.0833 -0.0354
   20CHL1    H6 1416   5.287   0.916   9.891  0.7615 -0.4257 -0.2065
   20CHL1    C7 1417   5.339   1.012   9.707 -0.1420 -0.0193 -0.9628
   20CHL1   H7A 1418   5.393   0.922   9.670 -1.0601 -1.6624  1.4263
   20CHL1   H7B 1419   5.237   0.993   9.667 -0.3926 -1.7040  0.3430
   20CHL1    C8 1420   5.417   1.133   9.659  0.4627 -0.5312 -0.8553
   20CHL1    H8 1421   5.525   1.109   9.665  0.7313  0.9580  0.9675
   20CHL1   C14 1422   5.372   1.152   9.519 -0.1565 -0.2059 -0.4415
   20CHL1   H14 1423   5.266   1.184   9.519  0.5934  2.4991  0.1385
   20CHL1   C15 1424   5.368   1.021   9.426 -0.3582 -0.0753  0.6605
   20CHL1  H15A 1425   5.462   0.964   9.439  0.0936  0.8088  1.4317
   20CHL1  H15B 1426   5.279   0.957   9.437  0.3191 -0.7877  2.2493
   20CHL1   C16 1427   5.386   1.088   9.288  0.4115 -0.0897  0.3017
   20CHL1  H16A 1428   5.482   1.054   9.244 -0.6194 -3.5003  0.3885
   20CHL1  H16B 1429   5.301   1.061   9.222  1.1723 -1.3170 -0.2026
   20CHL1   C17 1430   5.396   1.243   9.312  0.1043  0.1025  0.8624
   20CHL1   H17 1431   5.289   1.272   9.314  0.2528  0.6367  1.3229
   20CHL1   C13 1432   5.450   1.260   9.451  0.1644  0.3730 -0.6594
   20CHL1   C18 1433   5.603   1.242   9.441  0.1211 -0.0709  0.0067
   20CHL1  H18A 1434   5.652   1.235   9.540 -0.8298 -0.4263  0.4745
   20CHL1  H18B 1435   5.628   1.147   9.389  1.2320 -1.5460  3.0052
   20CHL1  H18C 1436   5.654   1.325   9.389 -2.8300  0.1612 -2.8603
   20CHL1   C12 1437   5.412   1.391   9.519  0.2297 -0.3736 -0.0234
   20CHL1  H12A 1438   5.463   1.477   9.471  1.9195 -2.1539 -1.6521
   20CHL1  H12B 1439   5.302   1.404   9.509 -0.0465 -0.1053  2.6176
   20CHL1   C11 1440   5.445   1.385   9.672  0.0220 -0.5520  0.3770
   20CHL1  H11A 1441   5.555   1.372   9.683 -0.0462 -0.2010  1.7341
   20CHL1  H11B 1442   5.416   1.478   9.725  0.2109 -0.7306  0.8030
   20CHL1    C9 1443   5.380   1.263   9.740 -0.0906  0.9982  0.0888
   20CHL1    H9 1444   5.270   1.264   9.722 -0.1486 -0.3039  0.2578
   20CHL1   C10 1445   5.399   1.250   9.890  0.3750 -0.6258  0.8786
   20CHL1   C19 1446   5.540   1.275   9.934 -0.0912 -0.1085  0.8542
   20CHL1  H19A 1447   5.572   1.223  10.028 -1.8610 -1.2602  0.8542
   20CHL1  H19B 1448   5.609   1.228   9.861 -1.6713 -0.9368 -0.1405
   20CHL1  H19C 1449   5.578   1.379   9.949  1.0077 -0.5292  1.1570
   20CHL1    C1 1450   5.310   1.369   9.947 -0.0671  0.2374  0.1943
   20CHL1   H1A 1451   5.354   1.469   9.925 -1.6787  1.0077  0.3609
   20CHL1   H1B 1452   5.207   1.374   9.906 -0.2397 -0.7402  0.4767
   20CHL1    C2 1453   5.284   1.350  10.097  0.1153 -0.6436  0.3483
   20CHL1   H2A 1454   5.209   1.425  10.131  0.5061  0.0388 -0.2390
   20CHL1   H2B 1455   5.373   1.386  10.152  1.5191 -0.4397 -1.9357
   20CHL1   C20 1456   5.459   1.322   9.200  0.3834 -0.2823  0.6071
   20CHL1   H20 1457   5.493   1.425   9.223  0.9196 -0.9351  3.0956
   20CHL1   C21 1458   5.342   1.360   9.101  0.3829 -0.4541 -0.1667
   20CHL1  H21A 1459   5.262   1.408   9.161  0.7068  0.4317 -0.4387
   20CHL1  H21B 1460   5.303   1.275   9.041 -0.4853 -0.5498  0.5171
   20CHL1  H21C 1461   5.388   1.416   9.017  0.5250 -1.2429 -0.6239
   20CHL1   C22 1462   5.578   1.257   9.123 -0.1373 -0.6786 -0.2179
   20CHL1  H22A 1463   5.652   1.216   9.194  0.5376 -0.0166 -0.5343
   20CHL1  H22B 1464   5.531   1.168   9.075 -0.3954 -0.2140 -0.8436
   20CHL1   C23 1465   5.656   1.344   9.021  0.1243  0.9761  0.1661
   20CHL1  H23A 1466   5.577   1.404   8.971 -0.3680 -0.2953 -0.6269
   20CHL1  H23B 1467   5.717   1.415   9.081 -0.2003  0.0445  1.6599
   20CHL1   C24 1468   5.748   1.271   8.925 -0.1972 -0.2409 -0.1189
   20CHL1  H24A 1469   5.840   1.241   8.980 -0.8790 -1.7463  0.2404
   20CHL1  H24B 1470   5.700   1.179   8.885  3.7734 -2.0634 -1.2131
   20CHL1   C25 1471   5.759   1.358   8.798 -0.7090 -0.4065  0.3676
   20CHL1   H25 1472   5.789   1.462   8.821  0.6773 -0.6344 -0.3163
   20CHL1   C26 1473   5.880   1.303   8.715  0.8688  0.1473 -0.2148
   20CHL1  H26A 1474   5.851   1.207   8.666 -0.4608 -0.2193  1.2362
   20CHL1  H26B 1475   5.909   1.374   8.635  0.8549  2.5290  1.7807
   20CHL1  H26C 1476   5.967   1.284   8.781 -0.6662 -3.4273  1.0554
   20CHL1   C27 1477   5.634   1.357   8.706  0.1294 -0.6591 -0.2894
   20CHL1  H27A 1478   5.589   1.256   8.708 -0.8368 -0.2318  1.0467
   20CHL1  H27B 1479   5.563   1.433   8.746 -0.7843 -1.8276  0.3717
   20CHL1  H27C 1480   5.651   1.390   8.601 -1.6195  1.0647 -0.0909
   21CHL1    C3 1481   4.151   3.890  10.210  0.3334  0.2302  0.4070
   21CHL1    H3 1482   4.229   3.965  10.182  0.5167  0.0708  0.4878
   21CHL1    O3 1483   4.165   3.874  10.352  0.3993 -0.1734  0.2737
   21CHL1   H3' 1484   4.256   3.855  10.377  0.7820  2.2916  1.0983
   21CHL1    C4 1485   4.012   3.950  10.172 -0.9663  0.6585  0.2185
   21CHL1   H4A 1486   3.931   3.887  10.214  1.4910 -2.8480  0.1024
   21CHL1   H4B 1487   4.003   4.039  10.238 -0.7393  1.0949 -0.3295
   21CHL1    C5 1488   3.985   3.970  10.026 -0.1105  0.1749 -0.3391
   21CHL1    C6 1489   3.927   4.083   9.986 -1.0993  0.3488  0.7041
   21CHL1    H6 1490   3.885   4.157  10.055 -0.2793  0.7509  0.7881
   21CHL1    C7 1491   3.912   4.109   9.835  0.4760  0.6105  0.2868
   21CHL1   H7A 1492   3.823   4.169   9.809 -0.2181 -0.6318 -0.3191
   21CHL1   H7B 1493   4.000   4.169   9.804  0.1421  0.8934 -0.1303
   21CHL1    C8 1494   3.911   3.983   9.746 -0.1127 -0.0606  0.0241
   21CHL1    H8 1495   3.815   3.932   9.764 -0.2948  0.3518  0.2447
   21CHL1   C14 1496   3.901   4.016   9.595 -0.7606  0.2249  0.2047
   21CHL1   H14 1497   3.992   4.076   9.576 -0.0460 -1.6897 -3.3106
   21CHL1   C15 1498   3.782   4.096   9.548  0.1216  0.6948  0.5510
   21CHL1  H15A 1499   3.680   4.062   9.578 -0.3633  1.1051 -0.5460
   21CHL1  H15B 1500   3.791   4.203   9.575 -2.3875  1.0123  0.3914
   21CHL1   C16 1501   3.796   4.089   9.395 -0.5230 -0.1239  0.3087
   21CHL1  H16A 1502   3.697   4.073   9.349  0.6948 -2.2090 -1.8091
   21CHL1  H16B 1503   3.838   4.186   9.362 -1.8298  0.4220  0.2130
   21CHL1   C17 1504   3.898   3.971   9.375  0.1976  0.2057 -0.2799
   21CHL1   H17 1505   3.997   4.021   9.373 -0.2402  1.0532 -1.4413
   21CHL1   C13 1506   3.910   3.891   9.501 -0.0332 -0.3034 -0.4151
   21CHL1   C18 1507   3.795   3.794   9.513  0.2073 -0.8688 -0.7920
   21CHL1  H18A 1508   3.695   3.838   9.491 -0.1590 -0.8551  0.8077
   21CHL1  H18B 1509   3.802   3.723   9.428  0.0452  0.9023 -2.3511
   21CHL1  H18C 1510   3.777   3.744   9.611 -3.7687 -0.2687 -1.0253
   21CHL1   C12 1511   4.046   3.824   9.532  0.1023  0.0221 -0.2945
   21CHL1  H12A 1512   4.060   3.745   9.456  1.9586 -3.3816  3.2647
   21CHL1  H12B 1513   4.126   3.900   9.519  0.7372 -0.8349 -1.4522
   21CHL1   C11 1514   4.045   3.780   9.678 -0.6040 -0.1801  0.2165
   21CHL1  H11A 1515   3.985   3.686   9.683  2.1341 -2.0712 -0.4649
   21CHL1  H11B 1516   4.147   3.741   9.696 -0.9043 -1.0913 -0.0391
   21CHL1    C9 1517   4.026   3.897   9.778 -0.5218  0.7968  0.2342
   21CHL1    H9 1518   4.113   3.964   9.761 -1.0417  0.9851 -2.0151
   21CHL1   C10 1519   4.029   3.855   9.928 -0.0769 -0.2594 -0.4595
   21CHL1   C19 1520   3.917   3.744   9.949  0.0966  0.2130 -0.4096
   21CHL1  H19A 1521   3.910   3.723  10.058  3.2428 -2.4708 -0.5704
   21CHL1  H19B 1522   3.823   3.778   9.900  0.6091 -0.3572 -1.8478
   21CHL1  H19C 1523   3.943   3.651   9.894  0.4968  0.2928 -0.3585
   21CHL1    C1 1524   4.170   3.807   9.963 -0.0110  0.7378 -0.3606
   21CHL1   H1A 1525   4.200   3.720   9.902  0.6281  0.9441 -0.3458
   21CHL1   H1B 1526   4.239   3.892   9.944  1.4586 -0.4846 -0.6080
   21CHL1    C2 1527   4.194   3.771  10.114  0.4840 -0.1353 -0.1472
   21CHL1   H2A 1528   4.300   3.739  10.129  1.5081  1.7048 -2.7882
   21CHL1   H2B 1529   4.132   3.681  10.134 -1.2845  1.0238 -0.2373
   21CHL1   C20 1530   3.884   3.894   9.238 -0.7433 -0.0447  0.2301
   21CHL1   H20 1531   3.936   3.797   9.248 -1.5331 -0.3766  1.3384
   21CHL1   C21 1532   3.960   3.981   9.129 -0.1032  0.7696 -0.1235
   21CHL1  H21A 1533   3.894   4.056   9.081  0.2334  1.9375  1.1692
   21CHL1  H21B 1534   4.000   3.915   9.049 -0.1899 -0.4395  0.8031
   21CHL1  H21C 1535   4.044   4.041   9.171 -0.8059  2.0615 -0.5155
   21CHL1   C22 1536   3.740   3.860   9.195  0.3358 -0.0220 -0.2502
   21CHL1  H22A 1537   3.687   3.794   9.267 -2.2086  0.2358 -1.7478
   21CHL1  H22B 1538   3.683   3.955   9.182  1.8914  0.8503 -1.0120
   21CHL1   C23 1539   3.728   3.778   9.070 -0.2675  0.3975 -0.4159
   21CHL1  H23A 1540   3.621   3.763   9.043 -0.9212  0.2144  1.9588
   21CHL1  H23B 1541   3.787   3.826   8.990 -0.4082  0.9882 -0.1754
   21CHL1   C24 1542   3.785   3.633   9.090 -0.3204  0.4007  0.7254
   21CHL1  H24A 1543   3.892   3.642   9.116  0.0027 -0.5176 -0.2612
   21CHL1  H24B 1544   3.741   3.608   9.190  1.0528  1.3226  1.5938
   21CHL1   C25 1545   3.754   3.537   8.976 -0.0762  0.1120 -0.1537
   21CHL1   H25 1546   3.644   3.523   8.970  0.1077 -1.0212 -1.1739
   21CHL1   C26 1547   3.796   3.585   8.838 -0.2865  0.7180  0.1939
   21CHL1  H26A 1548   3.734   3.670   8.803 -0.7703  1.1126  1.9363
   21CHL1  H26B 1549   3.903   3.612   8.830 -0.2313  0.6670  0.7088
   21CHL1  H26C 1550   3.775   3.509   8.759 -1.0130  1.2530 -0.1350
   21CHL1   C27 1551   3.820   3.404   8.998 -0.1055 -0.4921 -0.5923
   21CHL1  H27A 1552   3.790   3.310   8.947  2.1543 -1.5037 -0.2014
   21CHL1  H27B 1553   3.929   3.408   8.976 -0.2153 -1.9245 -1.5168
   21CHL1  H27C 1554   3.819   3.369   9.104 -1.0355  0.1537 -0.3696
   22CHL1    C3 1555   4.814   4.547  10.147 -0.4739  0.1444 -0.1464
   22CHL1    H3 1556   4.744   4.470  10.187  0.7644 -0.1552  1.5586
   22CHL1    O3 1557   4.850   4.622  10.263  0.2655  0.4290 -0.0188
   22CHL1   H3' 1558   4.945   4.611  10.275  0.3242 -0.7329 -1.1896
   22CHL1    C4 1559   4.950   4.489  10.085 -0.3421 -0.1507  0.4036
   22CHL1   H4A 1560   5.016   4.577  10.067 -1.3026  0.3972 -0.6491
   22CHL1   H4B 1561   4.998   4.424  10.160 -0.9385 -1.5258 -0.3693
   22CHL1    C5 1562   4.929   4.418   9.950  0.4490 -0.4142  0.2920
   22CHL1    C6 1563   4.969   4.290   9.926 -0.4769 -0.3854 -0.6699
   22CHL1    H6 1564   5.025   4.232  10.001  1.1295  1.2280 -0.5558
   22CHL1    C7 1565   4.949   4.224   9.792 -0.0810 -0.4661  0.2472
   22CHL1   H7A 1566   5.033   4.155   9.771 -0.7945 -1.2524 -0.1047
   22CHL1   H7B 1567   4.856   4.164   9.801 -2.5826  3.0965  0.4016
   22CHL1    C8 1568   4.927   4.328   9.685 -0.1291 -0.4897  0.2698
   22CHL1    H8 1569   5.022   4.383   9.672 -0.4274  0.1172  0.6061
   22CHL1   C14 1570   4.896   4.264   9.547  0.0460  0.3256 -0.4689
   22CHL1   H14 1571   4.808   4.196   9.555  0.4249 -0.3241 -1.6885
   22CHL1   C15 1572   5.004   4.161   9.503  0.2712 -0.0076 -0.7448
   22CHL1  H15A 1573   5.099   4.216   9.515 -0.0537  0.8550 -1.8868
   22CHL1  H15B 1574   5.010   4.065   9.558  1.2609  1.4639  1.9402
   22CHL1   C16 1575   4.981   4.147   9.353 -0.3650  0.5068  0.8797
   22CHL1  H16A 1576   5.085   4.156   9.313  0.0218 -2.0982  1.1108
   22CHL1  H16B 1577   4.939   4.049   9.324 -0.0557  0.5763  0.1628
   22CHL1   C17 1578   4.884   4.258   9.313 -0.2489  0.2823 -0.3509
   22CHL1   H17 1579   4.786   4.209   9.330 -0.0164 -0.6595 -1.6273
   22CHL1   C13 1580   4.884   4.357   9.432  0.1329  0.5180  0.5182
   22CHL1   C18 1581   4.999   4.462   9.418 -0.7126  0.1176  0.6372
   22CHL1  H18A 1582   5.009   4.536   9.500  2.2245  0.7887 -0.2211
   22CHL1  H18B 1583   5.097   4.410   9.409 -1.4659 -1.1552 -0.6904
   22CHL1  H18C 1584   4.996   4.530   9.330  0.4658 -1.9249 -1.0758
   22CHL1   C12 1585   4.762   4.454   9.460 -0.1855  0.3721  0.0511
   22CHL1  H12A 1586   4.771   4.536   9.386  1.4943 -1.0427 -1.4022
   22CHL1  H12B 1587   4.668   4.400   9.438  0.7778 -1.6848  0.7090
   22CHL1   C11 1588   4.775   4.512   9.601 -0.1950  0.0996  0.3836
   22CHL1  H11A 1589   4.845   4.595   9.576  0.0928 -0.4417 -0.6491
   22CHL1  H11B 1590   4.679   4.557   9.632  0.3414 -0.0078  2.3312
   22CHL1    C9 1591   4.814   4.420   9.718  0.0350  0.1852  0.1010
   22CHL1    H9 1592   4.726   4.356   9.739  1.1356 -2.1852 -2.0726
   22CHL1   C10 1593   4.847   4.499   9.846  0.3083 -0.1333  0.3115
   22CHL1   C19 1594   4.941   4.621   9.817  0.4457  0.2224  0.4616
   22CHL1  H19A 1595   4.958   4.676   9.912 -1.1105 -1.0332  1.5067
   22CHL1  H19B 1596   5.033   4.582   9.767  0.1148 -2.3688  1.7455
   22CHL1  H19C 1597   4.906   4.708   9.757  2.9672  0.1539 -1.2704
   22CHL1    C1 1598   4.716   4.551   9.917  0.3731 -0.2474  0.3169
   22CHL1   H1A 1599   4.660   4.602   9.836  1.5966 -1.3806 -1.3159
   22CHL1   H1B 1600   4.652   4.465   9.947 -1.8259  0.9788 -0.5990
   22CHL1    C2 1601   4.737   4.633  10.047  0.2177 -0.3208 -0.6861
   22CHL1   H2A 1602   4.637   4.668  10.080  0.1788 -1.1965  0.1482
   22CHL1   H2B 1603   4.796   4.723  10.020  1.3193 -0.6523  0.5016
   22CHL1   C20 1604   4.891   4.311   9.168 -0.3388  0.1334 -0.7494
   22CHL1   H20 1605   4.982   4.374   9.159 -0.7058  0.5419 -1.6178
   22CHL1   C21 1606   4.759   4.395   9.139 -0.6589  0.2333  0.1792
   22CHL1  H21A 1607   4.757   4.499   9.178 -1.2244 -0.0015  0.8077
   22CHL1  H21B 1608   4.663   4.343   9.161  0.0010 -0.2123  2.3126
   22CHL1  H21C 1609   4.757   4.409   9.029 -0.2557 -0.3767  0.0875
   22CHL1   C22 1610   4.898   4.205   9.057 -0.3187 -0.4394  0.4608
   22CHL1  H22A 1611   4.876   4.258   8.962  1.3326  0.1086  0.3516
   22CHL1  H22B 1612   4.999   4.162   9.040 -0.8410 -1.2949 -0.6236
   22CHL1   C23 1613   4.793   4.097   9.052 -0.7523 -0.0529 -0.0133
   22CHL1  H23A 1614   4.772   4.048   9.150 -0.9853 -0.7316 -0.3986
   22CHL1  H23B 1615   4.705   4.152   9.013  0.4616  1.0739 -1.2842
   22CHL1   C24 1616   4.821   3.975   8.954 -0.5356 -0.8829 -0.4671
   22CHL1  H24A 1617   4.860   4.009   8.856 -2.9187 -0.3036 -1.2833
   22CHL1  H24B 1618   4.895   3.902   8.993  0.4154  1.1633  1.8142
   22CHL1   C25 1619   4.697   3.896   8.911 -0.6312  0.0401 -0.5806
   22CHL1   H25 1620   4.620   3.962   8.867 -1.1379 -1.3349 -1.8232
   22CHL1   C26 1621   4.725   3.802   8.796  0.1244  0.5682  0.5830
   22CHL1  H26A 1622   4.818   3.747   8.820  0.6973  0.2005 -2.1436
   22CHL1  H26B 1623   4.635   3.736   8.792  0.0249  0.7442 -0.4742
   22CHL1  H26C 1624   4.736   3.860   8.702  0.9474  1.3698  1.1531
   22CHL1   C27 1625   4.628   3.822   9.034 -0.5410  0.5188  0.2042
   22CHL1  H27A 1626   4.533   3.771   9.008 -0.5311  0.2918  0.5995
   22CHL1  H27B 1627   4.704   3.755   9.079 -1.0660  1.3665  2.5054
   22CHL1  H27C 1628   4.616   3.911   9.100  0.8269  1.5358 -0.8503
   23CHL1    C3 1629   0.635   6.038  10.008 -0.6660  0.0179 -0.6151
   23CHL1    H3 1630   0.599   6.143  10.004  2.4104  1.2050  0.0150
   23CHL1    O3 1631   0.650   6.004  10.147 -0.2347  0.3393  0.4092
   23CHL1   H3' 1632   0.626   6.088  10.186 -0.7161  0.5076 -0.2307
   23CHL1    C4 1633   0.537   5.940   9.948  0.5780 -0.3261 -0.0556
   23CHL1   H4A 1634   0.566   5.835   9.969 -0.0131 -0.6763 -0.9485
   23CHL1   H4B 1635   0.439   5.945  10.002 -0.7813  1.8589 -2.4474
   23CHL1    C5 1636   0.517   5.970   9.800 -0.0332  0.0289  0.4441
   23CHL1    C6 1637   0.396   5.999   9.751  0.2959 -0.3173  0.2200
   23CHL1    H6 1638   0.303   6.003   9.809 -1.6158  0.8610 -2.6953
   23CHL1    C7 1639   0.372   6.020   9.606 -0.0636  0.4204  0.2818
   23CHL1   H7A 1640   0.285   5.955   9.583  0.9733 -1.0679  0.4124
   23CHL1   H7B 1641   0.356   6.129   9.588  3.4183  1.0241  0.1401
   23CHL1    C8 1642   0.494   5.989   9.508  0.2208 -0.0812 -0.3984
   23CHL1    H8 1643   0.498   5.880   9.487 -1.1976 -0.1636 -0.3165
   23CHL1   C14 1644   0.479   6.066   9.379  0.2587 -0.8770 -0.2788
   23CHL1   H14 1645   0.484   6.176   9.394  2.5134 -0.9472 -0.2221
   23CHL1   C15 1646   0.350   6.043   9.298 -0.0362 -0.3988 -0.5776
   23CHL1  H15A 1647   0.316   5.938   9.307  1.2460 -0.9490 -1.8394
   23CHL1  H15B 1648   0.269   6.111   9.333 -0.5584 -0.7906 -1.0043
   23CHL1   C16 1649   0.386   6.082   9.150  0.7645  0.2940  0.2437
   23CHL1  H16A 1650   0.368   5.991   9.089  0.9621 -0.0544  0.7036
   23CHL1  H16B 1651   0.327   6.172   9.123  0.1979  0.6477  2.4924
   23CHL1   C17 1652   0.540   6.117   9.152  0.3354  0.5434  0.1361
   23CHL1   H17 1653   0.531   6.227   9.163 -1.1928  0.3923  0.7460
   23CHL1   C13 1654   0.591   6.040   9.278 -0.0324 -0.5644 -0.2288
   23CHL1   C18 1655   0.605   5.887   9.249  0.0756  0.9864 -0.6330
   23CHL1  H18A 1656   0.637   5.829   9.338 -1.2211  0.7836 -0.2825
   23CHL1  H18B 1657   0.516   5.833   9.210  0.0041 -0.2230  1.0828
   23CHL1  H18C 1658   0.681   5.874   9.168  0.9104  1.0045  0.1253
   23CHL1   C12 1659   0.722   6.097   9.341  0.2548  0.2265 -0.3541
   23CHL1  H12A 1660   0.802   6.064   9.270 -0.0037 -0.2690 -0.4169
   23CHL1  H12B 1661   0.715   6.207   9.350 -0.3874  0.1703 -0.1438
   23CHL1   C11 1662   0.750   6.046   9.477  0.2719 -0.2732 -0.4411
   23CHL1  H11A 1663   0.798   5.947   9.462 -2.8365 -2.3743  2.1134
   23CHL1  H11B 1664   0.819   6.118   9.526 -2.0666  1.2019  0.8927
   23CHL1    C9 1665   0.621   6.042   9.575 -0.1624 -0.9536  0.0622
   23CHL1    H9 1666   0.604   6.150   9.596  1.1894 -0.5461 -0.7952
   23CHL1   C10 1667   0.646   5.983   9.718 -0.8442 -0.5031  0.1515
   23CHL1   C19 1668   0.703   5.837   9.699 -0.4911  0.1864  1.0467
   23CHL1  H19A 1669   0.702   5.788   9.798  2.0509  0.4373  1.2780
   23CHL1  H19B 1670   0.640   5.785   9.623 -0.6712  0.6546  0.8719
   23CHL1  H19C 1671   0.809   5.841   9.663  0.0073 -0.8331  2.3221
   23CHL1    C1 1672   0.758   6.070   9.790  0.2925  0.3425  0.2210
   23CHL1   H1A 1673   0.858   6.059   9.742 -1.2224  0.2299 -3.2453
   23CHL1   H1B 1674   0.717   6.172   9.773 -2.3592 -0.9763 -2.1414
   23CHL1    C2 1675   0.772   6.027   9.937 -0.4758  0.2119  0.0063
   23CHL1   H2A 1676   0.844   6.102   9.975  0.9754 -0.1281 -1.9430
   23CHL1   H2B 1677   0.813   5.924   9.941 -1.3483 -0.1746 -0.7181
   23CHL1   C20 1678   0.617   6.096   9.015 -0.1330  0.0712 -0.3028
   23CHL1   H20 1679   0.654   5.991   9.019 -0.0361  0.0174 -2.0737
   23CHL1   C21 1680   0.739   6.192   9.010  0.0201 -0.0400 -0.2554
   23CHL1  H21A 1681   0.706   6.297   8.998 -0.3099 -0.3403 -2.5214
   23CHL1  H21B 1682   0.810   6.174   8.927  0.1859  0.5015 -0.2309
   23CHL1  H21C 1683   0.798   6.182   9.104  1.2424 -3.4569 -1.2231
   23CHL1   C22 1684   0.538   6.117   8.884 -0.2228  0.7947 -0.1067
   23CHL1  H22A 1685   0.441   6.064   8.874 -2.0706  4.1325 -1.5353
   23CHL1  H22B 1686   0.496   6.220   8.883 -0.3669  0.7534  0.7853
   23CHL1   C23 1687   0.616   6.080   8.751 -0.0341  0.2239 -0.5103
   23CHL1  H23A 1688   0.701   6.150   8.748  0.8085 -0.7859 -0.8273
   23CHL1  H23B 1689   0.642   5.972   8.748 -0.4795  0.0430  1.1825
   23CHL1   C24 1690   0.527   6.105   8.628  0.2350 -0.1975 -0.0244
   23CHL1  H24A 1691   0.440   6.036   8.629  0.3643 -0.3642 -0.1600
   23CHL1  H24B 1692   0.488   6.207   8.643  0.7482  0.3117 -1.8359
   23CHL1   C25 1693   0.594   6.103   8.491 -0.7250  0.3685 -0.0512
   23CHL1   H25 1694   0.665   6.018   8.486  1.4792  1.9293  2.0225
   23CHL1   C26 1695   0.505   6.091   8.366 -0.5008 -0.3180 -0.1078
   23CHL1  H26A 1696   0.449   5.995   8.368 -1.1797  0.0112 -1.8227
   23CHL1  H26B 1697   0.430   6.173   8.370 -1.7625 -1.4663  1.6561
   23CHL1  H26C 1698   0.554   6.091   8.267 -1.9322  0.0375 -0.8457
   23CHL1   C27 1699   0.675   6.219   8.471  0.2257 -0.0127  0.7591
   23CHL1  H27A 1700   0.623   6.314   8.494 -3.4960 -1.6367 -0.1977
   23CHL1  H27B 1701   0.764   6.217   8.537  0.9878  0.8143 -0.2026
   23CHL1  H27C 1702   0.715   6.228   8.367 -0.8803 -2.0147  0.1100
   24CHL1    C3 1703   1.087   0.371  10.192 -0.2105 -0.0598 -0.6714
   24CHL1    H3 1704   1.157   0.289  10.163  0.2083  0.5345 -1.3899
   24CHL1    O3 1705   1.094   0.394  10.333 -0.8267  0.0941  0.1629
   24CHL1   H3' 1706   1.053   0.316  10.372 -2.2019 -0.3355 -1.9291
   24CHL1    C4 1707   1.124   0.503  10.119  0.2640 -0.4927  0.0772
   24CHL1   H4A 1708   1.061   0.580  10.168 -1.4469 -1.4954 -0.4752
   24CHL1   H4B 1709   1.225   0.534  10.154  0.0932  2.2094 -1.5248
   24CHL1    C5 1710   1.099   0.498   9.968  0.4456  0.0621  0.1308
   24CHL1    C6 1711   1.192   0.529   9.878  0.4477  0.6839 -0.2901
   24CHL1    H6 1712   1.293   0.562   9.910  0.4798 -0.1507  0.5203
   24CHL1    C7 1713   1.177   0.517   9.725 -0.1668 -0.6207  0.3416
   24CHL1   H7A 1714   1.207   0.614   9.681  0.3423 -0.5856  0.7604
   24CHL1   H7B 1715   1.231   0.430   9.683  1.3272  0.4615 -0.0263
   24CHL1    C8 1716   1.029   0.492   9.674  0.7043 -0.0472 -0.2812
   24CHL1    H8 1717   0.974   0.588   9.670 -0.5796 -0.7039  0.9133
   24CHL1   C14 1718   1.023   0.434   9.533  0.0569 -0.4652 -0.2052
   24CHL1   H14 1719   1.076   0.336   9.540 -3.5634 -2.5422  0.7800
   24CHL1   C15 1720   1.101   0.523   9.424  0.4158  0.1879 -0.1689
   24CHL1  H15A 1721   1.085   0.632   9.442  0.3758 -0.2302  2.9568
   24CHL1  H15B 1722   1.210   0.502   9.424  0.1723 -1.1372 -0.4594
   24CHL1   C16 1723   1.042   0.470   9.292  0.5193  0.0108 -0.2768
   24CHL1  H16A 1724   1.012   0.558   9.231 -0.4316 -0.1077 -0.0010
   24CHL1  H16B 1725   1.106   0.404   9.231 -1.0498 -0.8382 -1.0525
   24CHL1   C17 1726   0.927   0.377   9.334 -0.0942 -0.0044  0.1716
   24CHL1   H17 1727   0.976   0.278   9.338  4.4666  1.9420 -0.7109
   24CHL1   C13 1728   0.887   0.411   9.478 -0.1260  0.2204  0.0284
   24CHL1   C18 1729   0.798   0.547   9.465  0.4313  1.0392  0.0084
   24CHL1  H18A 1730   0.706   0.530   9.405  1.0341  0.0730 -0.6609
   24CHL1  H18B 1731   0.768   0.590   9.563  0.3845  0.6031  0.1900
   24CHL1  H18C 1732   0.849   0.627   9.408 -0.2962 -0.0588 -2.2861
   24CHL1   C12 1733   0.823   0.311   9.566 -0.7010  1.0422  0.4134
   24CHL1  H12A 1734   0.730   0.259   9.535 -0.2677 -0.3627  1.3847
   24CHL1  H12B 1735   0.896   0.229   9.549 -0.5086  1.2353  0.3057
   24CHL1   C11 1736   0.826   0.344   9.711  1.3819 -0.2889  0.2850
   24CHL1  H11A 1737   0.740   0.412   9.730  0.5352 -1.1900 -0.2606
   24CHL1  H11B 1738   0.802   0.251   9.767  1.2673  0.3932  1.3968
   24CHL1    C9 1739   0.958   0.387   9.775 -0.2808 -0.8750  0.3387
   24CHL1    H9 1740   1.031   0.305   9.758  1.1503  0.7846 -2.0970
   24CHL1   C10 1741   0.961   0.435   9.920 -0.6257 -0.4996 -0.7341
   24CHL1   C19 1742   0.862   0.554   9.945  0.5094  0.1696 -1.0515
   24CHL1  H19A 1743   0.758   0.515   9.946  0.3171  0.5369  1.9383
   24CHL1  H19B 1744   0.883   0.609  10.039  2.3509 -3.2809  0.7685
   24CHL1  H19C 1745   0.865   0.621   9.857 -2.0951  1.0638 -0.5395
   24CHL1    C1 1746   0.925   0.306  10.007 -0.7585  0.1481  0.1886
   24CHL1   H1A 1747   0.819   0.285   9.983 -1.0631  0.8311  0.9131
   24CHL1   H1B 1748   0.987   0.222   9.970 -0.2046  1.6735 -2.6990
   24CHL1    C2 1749   0.939   0.327  10.159  0.6060 -1.1174 -0.3352
   24CHL1   H2A 1750   0.929   0.234  10.219 -2.7625 -0.2815  0.5680
   24CHL1   H2B 1751   0.866   0.406  10.185 -1.2813 -3.1325  0.7684
   24CHL1   C20 1752   0.818   0.374   9.227 -0.0765 -0.5803  0.3481
   24CHL1   H20 1753   0.761   0.468   9.214 -0.0713 -0.3510  1.8250
   24CHL1   C21 1754   0.708   0.266   9.256  0.1791 -0.3249 -0.7160
   24CHL1  H21A 1755   0.659   0.294   9.351 -1.8875  0.2581 -1.8955
   24CHL1  H21B 1756   0.761   0.169   9.268 -1.9945 -1.4116  0.6216
   24CHL1  H21C 1757   0.626   0.258   9.182 -0.4014 -1.1624 -0.0014
   24CHL1   C22 1758   0.875   0.351   9.079  0.0178  0.6101 -0.1952
   24CHL1  H22A 1759   0.942   0.438   9.064  0.2492  0.2137 -1.6272
   24CHL1  H22B 1760   0.938   0.259   9.078 -2.7869 -1.4737  1.1083
   24CHL1   C23 1761   0.772   0.338   8.973 -0.0375  0.0108 -0.6165
   24CHL1  H23A 1762   0.694   0.265   9.003  0.1111  0.4193  0.8379
   24CHL1  H23B 1763   0.719   0.433   8.951 -1.3058 -0.7029 -0.7672
   24CHL1   C24 1764   0.838   0.307   8.839  0.6101 -0.0227 -0.2230
   24CHL1  H24A 1765   0.876   0.203   8.845 -2.1833 -1.0922  0.2278
   24CHL1  H24B 1766   0.751   0.298   8.771 -0.0507 -3.1677  0.8926
   24CHL1   C25 1767   0.948   0.409   8.790  0.2109  0.4651 -0.3312
   24CHL1   H25 1768   1.034   0.416   8.860  0.4602  0.4969 -0.6407
   24CHL1   C26 1769   1.007   0.368   8.657  0.5650  0.5162  0.7100
   24CHL1  H26A 1770   1.055   0.269   8.671  1.0852  0.7314  0.4800
   24CHL1  H26B 1771   0.922   0.364   8.586  0.5321 -2.2223  0.8040
   24CHL1  H26C 1772   1.080   0.446   8.627 -0.0895  1.3875  1.3325
   24CHL1   C27 1773   0.888   0.552   8.777 -0.0221  0.6797  0.1419
   24CHL1  H27A 1774   0.874   0.588   8.881 -2.2608  0.9263 -0.1966
   24CHL1  H27B 1775   0.958   0.606   8.710  2.4452 -1.1392  1.1039
   24CHL1  H27C 1776   0.787   0.543   8.732 -0.1416  0.1073  0.5116
   25CHL1    C3 1777   3.674   0.712  10.346  0.3178  0.2776 -0.8295
   25CHL1    H3 1778   3.625   0.811  10.331  2.0677  1.2110 -0.7177
   25CHL1    O3 1779   3.689   0.705  10.489 -0.4578  0.3611 -0.0173
   25CHL1   H3' 1780   3.712   0.612  10.501 -0.2792 -0.2064 -3.6313
   25CHL1    C4 1781   3.592   0.594  10.290  0.9356 -0.0527 -0.0507
   25CHL1   H4A 1782   3.637   0.495  10.315 -1.4133 -1.1910 -0.0459
   25CHL1   H4B 1783   3.495   0.593  10.345  1.1382  1.5760  0.3735
   25CHL1    C5 1784   3.591   0.604  10.141  0.4993  0.3944 -0.3718
   25CHL1    C6 1785   3.477   0.603  10.076  0.1065 -0.1813  0.2469
   25CHL1    H6 1786   3.387   0.578  10.134 -0.7721  1.0293 -0.5573
   25CHL1    C7 1787   3.471   0.615   9.926  0.5556  0.0141  0.1651
   25CHL1   H7A 1788   3.399   0.543   9.883  1.3060 -0.5565 -0.1454
   25CHL1   H7B 1789   3.432   0.715   9.897  4.2855  1.1394 -1.5776
   25CHL1    C8 1790   3.598   0.588   9.851 -0.6207  0.2166  0.3987
   25CHL1    H8 1791   3.624   0.480   9.858 -2.2432 -0.1541  1.0659
   25CHL1   C14 1792   3.589   0.618   9.706 -0.6553  0.1813  0.2941
   25CHL1   H14 1793   3.556   0.724   9.693 -1.3828 -0.1005 -0.2029
   25CHL1   C15 1794   3.486   0.542   9.623  0.1168  0.2411  0.0505
   25CHL1  H15A 1795   3.506   0.434   9.633 -0.5810 -0.1578 -2.1765
   25CHL1  H15B 1796   3.381   0.573   9.644  0.4881  2.2246 -0.7627
   25CHL1   C16 1797   3.522   0.567   9.475 -0.7358  0.1747 -0.3532
   25CHL1  H16A 1798   3.506   0.472   9.420 -0.3083 -1.1063  1.6552
   25CHL1  H16B 1799   3.466   0.649   9.425  1.0728  1.3591 -0.5508
   25CHL1   C17 1800   3.668   0.625   9.483 -0.5202  0.4450  0.5098
   25CHL1   H17 1801   3.659   0.735   9.468  2.1906  0.3363 -3.2001
   25CHL1   C13 1802   3.719   0.601   9.627  0.0724  0.5453 -0.0200
   25CHL1   C18 1803   3.779   0.458   9.624 -0.0009  0.7609  0.0030
   25CHL1  H18A 1804   3.714   0.386   9.570  2.1535  0.9316 -3.0761
   25CHL1  H18B 1805   3.881   0.462   9.579  1.0169 -0.9334  1.9851
   25CHL1  H18C 1806   3.781   0.406   9.722 -3.0233 -1.5607 -1.0028
   25CHL1   C12 1807   3.818   0.699   9.680 -0.2015  0.2060 -0.0609
   25CHL1  H12A 1808   3.919   0.685   9.636 -0.4996  0.5097 -0.8677
   25CHL1  H12B 1809   3.791   0.807   9.673  1.2123  0.5591 -0.2617
   25CHL1   C11 1810   3.841   0.684   9.832  0.2438  0.5232 -0.3931
   25CHL1  H11A 1811   3.905   0.593   9.841 -0.1903  0.3048  0.6212
   25CHL1  H11B 1812   3.892   0.775   9.871  0.9430  0.5395 -1.3243
   25CHL1    C9 1813   3.711   0.669   9.922 -0.1707  0.5376  0.5310
   25CHL1    H9 1814   3.669   0.771   9.907  1.4215  0.9401 -1.4891
   25CHL1   C10 1815   3.728   0.628  10.071 -0.5637 -0.2266 -0.7040
   25CHL1   C19 1816   3.799   0.497  10.079  0.4876 -0.4264  0.0264
   25CHL1  H19A 1817   3.907   0.517  10.065  0.4277  0.2230  0.4259
   25CHL1  H19B 1818   3.801   0.467  10.186 -1.9852 -1.0168 -0.0259
   25CHL1  H19C 1819   3.756   0.414  10.020 -0.0878  1.7216 -2.7898
   25CHL1    C1 1820   3.816   0.728  10.144  0.5177 -0.2668  0.4624
   25CHL1   H1A 1821   3.919   0.724  10.103  1.6656  1.1405  2.9822
   25CHL1   H1B 1822   3.770   0.825  10.114  0.2054 -1.0046 -1.6326
   25CHL1    C2 1823   3.818   0.715  10.302  0.1949 -0.1788  0.3387
   25CHL1   H2A 1824   3.868   0.804  10.347  1.9508 -0.3146 -1.1955
   25CHL1   H2B 1825   3.876   0.623  10.326  2.0480 -0.1408 -3.2729
   25CHL1   C20 1826   3.752   0.583   9.358  0.3595 -0.4747  0.5570
   25CHL1   H20 1827   3.789   0.478   9.367  0.9621 -0.4072 -0.8116
   25CHL1   C21 1828   3.878   0.669   9.350 -0.2278 -0.0365 -1.0350
   25CHL1  H21A 1829   3.856   0.778   9.362  1.1791  0.1222  0.5288
   25CHL1  H21B 1830   3.919   0.654   9.248 -1.5030  1.1360 -1.7667
   25CHL1  H21C 1831   3.958   0.634   9.418 -1.2631  0.8126  0.6954
   25CHL1   C22 1832   3.663   0.587   9.227  0.9704 -0.6099 -0.0849
   25CHL1  H22A 1833   3.735   0.543   9.155 -0.1086 -1.9983 -0.3550
   25CHL1  H22B 1834   3.585   0.509   9.236  0.4364 -0.0985 -0.2527
   25CHL1   C23 1835   3.604   0.721   9.181 -0.0562  0.0092  0.3501
   25CHL1  H23A 1836   3.521   0.745   9.251  1.0548 -1.2262  2.1919
   25CHL1  H23B 1837   3.674   0.807   9.187  0.8020 -0.6349 -0.1679
   25CHL1   C24 1838   3.552   0.718   9.040 -0.0653  0.3366  0.0373
   25CHL1  H24A 1839   3.460   0.658   9.052  1.0317 -1.1497  1.2867
   25CHL1  H24B 1840   3.520   0.819   9.005 -3.5711 -0.5258  0.4300
   25CHL1   C25 1841   3.655   0.653   8.940 -0.6149 -0.1667  0.5848
   25CHL1   H25 1842   3.661   0.544   8.965  3.9708 -0.0651  0.8153
   25CHL1   C26 1843   3.590   0.656   8.800 -0.2563 -0.1018 -0.3076
   25CHL1  H26A 1844   3.591   0.555   8.755  2.2349 -0.6687  0.8491
   25CHL1  H26B 1845   3.486   0.696   8.801 -0.0497  0.4505  0.7824
   25CHL1  H26C 1846   3.642   0.727   8.733 -1.3047 -0.8562 -1.9759
   25CHL1   C27 1847   3.788   0.726   8.945 -0.2563  0.4958 -0.2533
   25CHL1  H27A 1848   3.840   0.713   9.043  1.0519  1.7733 -0.7438
   25CHL1  H27B 1849   3.859   0.682   8.872 -0.0488 -2.9780  1.8013
   25CHL1  H27C 1850   3.778   0.835   8.927  1.1603  0.4914 -1.2527
   26CHL1    C3 1851   5.572   5.192  10.340 -0.5418  0.0913  0.6109
   26CHL1    H3 1852   5.680   5.166  10.340 -0.8350 -1.1646 -0.3091
   26CHL1    O3 1853   5.526   5.213  10.472  0.4397 -0.6125  0.7949
   26CHL1   H3' 1854   5.433   5.233  10.460  0.4616 -1.0397 -0.2531
   26CHL1    C4 1855   5.568   5.330  10.272 -0.1995  0.4045  0.6171
   26CHL1   H4A 1856   5.464   5.366  10.285 -1.0130 -1.1777 -1.0222
   26CHL1   H4B 1857   5.635   5.397  10.329  0.6499  0.2741 -0.1917
   26CHL1    C5 1858   5.613   5.320  10.121  0.0963  0.4924 -0.4966
   26CHL1    C6 1859   5.712   5.378  10.059 -0.0220  0.0356  0.2324
   26CHL1    H6 1860   5.755   5.462  10.115  1.5758 -0.3938 -0.2792
   26CHL1    C7 1861   5.746   5.379   9.916 -0.0905 -0.3340  0.0358
   26CHL1   H7A 1862   5.778   5.477   9.876 -4.5082  1.5925  0.6887
   26CHL1   H7B 1863   5.830   5.308   9.896 -1.6178 -1.7130 -1.9070
   26CHL1    C8 1864   5.633   5.317   9.833  0.7857  0.3530 -0.5395
   26CHL1    H8 1865   5.547   5.388   9.824 -0.3994 -1.1878 -1.8886
   26CHL1   C14 1866   5.662   5.294   9.685 -0.8811 -0.6428  0.1863
   26CHL1   H14 1867   5.748   5.223   9.683  1.7421  2.2623  0.8967
   26CHL1   C15 1868   5.701   5.414   9.601  0.1540 -0.0988  0.6601
   26CHL1  H15A 1869   5.626   5.490   9.630  0.5653  0.6252 -0.1529
   26CHL1  H15B 1870   5.806   5.448   9.615  0.5488 -1.3235  0.8664
   26CHL1   C16 1871   5.679   5.371   9.454  0.1319 -0.7286 -0.6107
   26CHL1  H16A 1872   5.606   5.444   9.413  1.0969  1.7814  1.8715
   26CHL1  H16B 1873   5.776   5.372   9.399  0.2007 -0.9709 -0.4976
   26CHL1   C17 1874   5.617   5.230   9.456  0.7076  0.4030 -1.0587
   26CHL1   H17 1875   5.702   5.158   9.461 -0.5702 -1.1291 -0.0349
   26CHL1   C13 1876   5.557   5.221   9.608  0.1043  0.6954  0.3030
   26CHL1   C18 1877   5.419   5.300   9.609 -0.4405  0.8377  0.0209
   26CHL1  H18A 1878   5.437   5.405   9.576  1.3221  0.4659 -0.3118
   26CHL1  H18B 1879   5.337   5.259   9.546  0.4345  1.0593 -1.2987
   26CHL1  H18C 1880   5.387   5.304   9.716 -1.3806 -0.6640 -0.1848
   26CHL1   C12 1881   5.538   5.079   9.669  0.2352  0.2810  0.3457
   26CHL1  H12A 1882   5.463   5.015   9.617  0.1645 -0.9072  1.8269
   26CHL1  H12B 1883   5.636   5.027   9.667  1.7445  2.9389  0.8342
   26CHL1   C11 1884   5.507   5.088   9.812 -0.7326  0.5554 -0.6280
   26CHL1  H11A 1885   5.400   5.112   9.831 -0.5130 -0.6647  2.7528
   26CHL1  H11B 1886   5.534   4.990   9.855 -0.6989  0.3939 -1.0112
   26CHL1    C9 1887   5.587   5.191   9.907 -0.0768 -0.0791  0.3516
   26CHL1    H9 1888   5.683   5.139   9.925 -0.4601  0.2037  4.1781
   26CHL1   C10 1889   5.530   5.215  10.048 -0.0962  0.1347 -0.7445
   26CHL1   C19 1890   5.390   5.276  10.030 -0.7596 -0.1159  0.1666
   26CHL1  H19A 1891   5.381   5.361   9.958  2.0684  0.9954  0.9989
   26CHL1  H19B 1892   5.329   5.198   9.979 -0.1555 -0.3755 -0.1628
   26CHL1  H19C 1893   5.332   5.307  10.120 -0.6538  3.6139 -0.8709
   26CHL1    C1 1894   5.526   5.077  10.129 -0.1008  0.3813 -0.6679
   26CHL1   H1A 1895   5.447   5.021  10.074 -0.8626  0.9356 -0.1563
   26CHL1   H1B 1896   5.623   5.024  10.116 -0.0448  0.0488  0.9282
   26CHL1    C2 1897   5.482   5.092  10.272  0.5657  0.1337  0.3344
   26CHL1   H2A 1898   5.494   4.996  10.326  1.5588 -0.7518 -1.3574
   26CHL1   H2B 1899   5.374   5.115  10.277  0.6292  1.0310 -1.4422
   26CHL1   C20 1900   5.527   5.190   9.342 -0.2358  0.7916  0.2476
   26CHL1   H20 1901   5.437   5.255   9.343 -1.7658 -1.2376  0.0981
   26CHL1   C21 1902   5.473   5.046   9.352  0.3459  0.8249  0.1053
   26CHL1  H21A 1903   5.542   4.964   9.382 -1.7249 -1.1376 -0.2462
   26CHL1  H21B 1904   5.418   5.015   9.261 -0.6595 -1.6620  1.4595
   26CHL1  H21C 1905   5.393   5.049   9.429 -0.7610  1.0466 -1.0447
   26CHL1   C22 1906   5.588   5.216   9.199 -0.7553 -0.1037  0.3577
   26CHL1  H22A 1907   5.682   5.275   9.210 -0.7318  0.1082 -0.8134
   26CHL1  H22B 1908   5.620   5.120   9.154  2.3815  2.2733 -3.1179
   26CHL1   C23 1909   5.491   5.292   9.113 -0.3007  0.0349 -0.6501
   26CHL1  H23A 1910   5.405   5.228   9.083 -0.3927 -0.2757  0.2499
   26CHL1  H23B 1911   5.457   5.382   9.168 -0.6422 -0.8653  0.6449
   26CHL1   C24 1912   5.547   5.356   8.985 -0.5877  0.1834 -0.0514
   26CHL1  H24A 1913   5.640   5.411   9.010  0.3412 -1.2651 -0.2408
   26CHL1  H24B 1914   5.584   5.266   8.932  0.6988  0.8272 -0.2996
   26CHL1   C25 1915   5.446   5.431   8.891  0.4733  0.0671 -0.6148
   26CHL1   H25 1916   5.409   5.519   8.947 -1.0888 -1.0677  0.2136
   26CHL1   C26 1917   5.515   5.485   8.767  0.5182  0.3359 -0.5609
   26CHL1  H26A 1918   5.616   5.525   8.790  0.1784  1.3992 -0.8456
   26CHL1  H26B 1919   5.521   5.402   8.694  0.4470 -0.1496 -0.0281
   26CHL1  H26C 1920   5.445   5.564   8.732  0.5508  0.7088  0.1975
   26CHL1   C27 1921   5.323   5.347   8.848 -0.5282 -0.3007  0.5061
   26CHL1  H27A 1922   5.235   5.400   8.805 -0.7736 -0.6086  0.6206
   26CHL1  H27B 1923   5.351   5.259   8.787  0.9964  1.5746 -1.6883
   26CHL1  H27C 1924   5.268   5.318   8.940 -0.3990  0.5174  0.8523
   27CHL1    C3 1925   5.452   3.264  10.178 -0.3711 -0.1511 -0.2973
   27CHL1    H3 1926   5.500   3.167  10.201  2.8408  1.0939 -1.1715
   27CHL1    O3 1927   5.421   3.323  10.306  0.0785 -0.2912  0.1868
   27CHL1   H3' 1928   5.471   3.270  10.369 -1.7950 -1.0650  1.0878
   27CHL1    C4 1929   5.544   3.369  10.116  0.3703 -0.0666 -0.3525
   27CHL1   H4A 1930   5.494   3.468  10.127  0.0094 -0.4474  1.8170
   27CHL1   H4B 1931   5.631   3.382  10.184 -0.2400  0.4415  0.3609
   27CHL1    C5 1932   5.580   3.341   9.975 -0.5484 -0.4264 -0.0486
   27CHL1    C6 1933   5.712   3.331   9.935 -0.5198  0.2558 -0.4516
   27CHL1    H6 1934   5.793   3.341  10.008 -0.9020  1.2340 -0.1387
   27CHL1    C7 1935   5.758   3.297   9.795  0.8967  0.5454 -0.4363
   27CHL1   H7A 1936   5.848   3.354   9.765  1.1256  1.3060  1.5823
   27CHL1   H7B 1937   5.782   3.189   9.784 -0.1889  0.3339 -0.8719
   27CHL1    C8 1938   5.640   3.315   9.695  0.2624 -0.2172 -0.4993
   27CHL1    H8 1939   5.614   3.422   9.679 -2.0345 -0.3027  1.8704
   27CHL1   C14 1940   5.673   3.251   9.564 -0.0164  0.1810  0.1830
   27CHL1   H14 1941   5.690   3.143   9.585  1.4793  0.0948 -1.2894
   27CHL1   C15 1942   5.795   3.306   9.487  0.5547  0.9541 -0.1665
   27CHL1  H15A 1943   5.772   3.413   9.465  0.5795  1.0177  0.1164
   27CHL1  H15B 1944   5.893   3.306   9.540 -0.1992  1.3541  1.2863
   27CHL1   C16 1945   5.781   3.228   9.354  0.1371 -0.0884 -0.6770
   27CHL1  H16A 1946   5.811   3.306   9.281  2.5496 -0.6590 -0.3593
   27CHL1  H16B 1947   5.854   3.144   9.357 -1.0318 -1.3562 -3.6433
   27CHL1   C17 1948   5.636   3.191   9.340  0.1957  0.8564  0.3534
   27CHL1   H17 1949   5.632   3.081   9.358  0.4462  1.1007  2.0343
   27CHL1   C13 1950   5.559   3.248   9.459  0.3736 -0.3368  0.1725
   27CHL1   C18 1951   5.508   3.387   9.423 -0.1934 -0.5081  0.5223
   27CHL1  H18A 1952   5.587   3.454   9.384 -1.6901  0.7399 -0.4646
   27CHL1  H18B 1953   5.429   3.377   9.346  0.2717  0.5912 -0.1216
   27CHL1  H18C 1954   5.469   3.436   9.515 -0.4788 -0.2937  0.2840
   27CHL1   C12 1955   5.450   3.153   9.519  0.8792 -1.2012 -0.6195
   27CHL1  H12A 1956   5.361   3.156   9.453  0.3378 -1.5520  0.0866
   27CHL1  H12B 1957   5.473   3.047   9.541 -0.8151 -1.8167 -1.6604
   27CHL1   C11 1958   5.400   3.220   9.642 -0.3322 -0.5285 -0.6211
   27CHL1  H11A 1959   5.340   3.311   9.620 -0.2188  0.1943  1.6813
   27CHL1  H11B 1960   5.322   3.166   9.699  0.2045 -0.5612  0.1082
   27CHL1    C9 1961   5.512   3.258   9.751 -0.5525  0.9019 -0.0644
   27CHL1    H9 1962   5.546   3.156   9.782  0.6041  1.1248 -0.5452
   27CHL1   C10 1963   5.463   3.323   9.879 -0.0604  0.1472 -0.9928
   27CHL1   C19 1964   5.387   3.457   9.852  0.2124  0.2142  0.2099
   27CHL1  H19A 1965   5.332   3.502   9.937 -1.4232 -1.4809  0.1137
   27CHL1  H19B 1966   5.456   3.536   9.816 -0.1438  0.1899 -0.5532
   27CHL1  H19C 1967   5.316   3.435   9.769  1.2216  0.8640 -0.8586
   27CHL1    C1 1968   5.352   3.228   9.952 -0.4445  0.2381 -0.0342
   27CHL1   H1A 1969   5.263   3.224   9.885 -0.6490  0.8071  0.1970
   27CHL1   H1B 1970   5.407   3.132   9.949 -2.2588 -0.9694  2.0903
   27CHL1    C2 1971   5.319   3.253  10.100 -0.0022  0.5406  0.7619
   27CHL1   H2A 1972   5.269   3.163  10.142  0.4648 -0.1451 -0.1376
   27CHL1   H2B 1973   5.258   3.345  10.115 -0.2984  0.3886  0.5020
   27CHL1   C20 1974   5.590   3.212   9.195  0.1399  0.0201  0.8396
   27CHL1   H20 1975   5.593   3.321   9.171  0.7633 -0.2580 -0.4685
   27CHL1   C21 1976   5.443   3.159   9.180 -0.5422 -0.5408 -0.2637
   27CHL1  H21A 1977   5.434   3.049   9.186 -2.3515 -0.3728  0.6229
   27CHL1  H21B 1978   5.401   3.203   9.087 -0.5926  3.4006  1.4172
   27CHL1  H21C 1979   5.385   3.200   9.265  3.0273  1.3267  1.4872
   27CHL1   C22 1980   5.682   3.144   9.090  1.0798  0.4136  0.1142
   27CHL1  H22A 1981   5.791   3.159   9.108  1.2252 -2.4990  2.2979
   27CHL1  H22B 1982   5.666   3.035   9.091 -1.3759  0.7265  0.0554
   27CHL1   C23 1983   5.667   3.205   8.945  0.4334 -0.2437  0.9250
   27CHL1  H23A 1984   5.564   3.185   8.909  0.6743 -0.3558  0.2889
   27CHL1  H23B 1985   5.675   3.316   8.945 -2.1654  0.0019  1.0231
   27CHL1   C24 1986   5.765   3.147   8.842 -0.3564 -0.4933 -0.5008
   27CHL1  H24A 1987   5.861   3.192   8.875 -2.4113  2.2977  2.2563
   27CHL1  H24B 1988   5.765   3.036   8.853 -0.1156 -0.6126 -1.5491
   27CHL1   C25 1989   5.730   3.177   8.696  0.2973  1.3026 -0.0051
   27CHL1   H25 1990   5.632   3.129   8.677  0.9597  0.1476 -0.5894
   27CHL1   C26 1991   5.705   3.325   8.677 -0.5154  0.5582  0.1901
   27CHL1  H26A 1992   5.678   3.355   8.573 -1.7847 -2.4205 -0.4616
   27CHL1  H26B 1993   5.624   3.360   8.745 -1.7099 -2.4617  0.4960
   27CHL1  H26C 1994   5.799   3.372   8.710 -1.4722  1.4401  1.7668
   27CHL1   C27 1995   5.826   3.112   8.602  0.3966  0.3747 -0.2371
   27CHL1  H27A 1996   5.924   3.163   8.616  0.3239  1.2106 -2.3926
   27CHL1  H27B 1997   5.844   3.006   8.629  1.1776  0.3089 -0.9739
   27CHL1  H27C 1998   5.795   3.114   8.495 -0.4475  0.3231  0.0048
   28CHL1    C3 1999   5.624   0.507  10.090  0.1776 -0.2034  0.5113
   28CHL1    H3 2000   5.676   0.605  10.096 -1.8126  0.8934  0.8579
   28CHL1    O3 2001   5.582   0.472  10.219  0.5873 -0.3868 -0.2172
   28CHL1   H3' 2002   5.609   0.379  10.219  2.4907  0.0696 -2.1153
   28CHL1    C4 2003   5.499   0.500   9.998  0.2188 -0.0241  0.5369
   28CHL1   H4A 2004   5.433   0.415  10.025 -0.7745  0.6897  0.4009
   28CHL1   H4B 2005   5.440   0.588  10.033  0.2293  1.1703 -2.1971
   28CHL1    C5 2006   5.537   0.515   9.851 -0.2752  0.3368 -0.7972
   28CHL1    C6 2007   5.486   0.613   9.775 -0.2469  0.3563  0.0944
   28CHL1    H6 2008   5.415   0.679   9.829  0.9700  1.1002  0.8417
   28CHL1    C7 2009   5.517   0.618   9.627  0.1450  0.8712 -0.0068
   28CHL1   H7A 2010   5.417   0.639   9.582  0.6127  1.8749 -0.6129
   28CHL1   H7B 2011   5.578   0.709   9.606  0.4482  0.4804 -0.8703
   28CHL1    C8 2012   5.565   0.485   9.571 -0.4798  0.0480  0.7360
   28CHL1    H8 2013   5.480   0.414   9.567 -0.8453  0.3452  2.4893
   28CHL1   C14 2014   5.609   0.499   9.427  0.2124 -0.3205 -0.1893
   28CHL1   H14 2015   5.692   0.573   9.422 -1.3146  1.4664 -0.2504
   28CHL1   C15 2016   5.503   0.564   9.336 -0.5033 -0.3091  0.1592
   28CHL1  H15A 2017   5.403   0.520   9.354 -1.1731  0.9059 -0.4319
   28CHL1  H15B 2018   5.510   0.674   9.352 -1.4585  0.4967 -3.8497
   28CHL1   C16 2019   5.551   0.530   9.199  0.0742 -0.3333 -0.9005
   28CHL1  H16A 2020   5.473   0.490   9.130  0.1855  1.4510 -2.1353
   28CHL1  H16B 2021   5.584   0.624   9.148  0.6209  1.0075  1.7586
   28CHL1   C17 2022   5.676   0.437   9.213 -0.2501 -0.2345  0.1151
   28CHL1   H17 2023   5.763   0.505   9.224 -0.6969  0.3370  0.1629
   28CHL1   C13 2024   5.658   0.373   9.353  0.4407  0.1982 -0.0351
   28CHL1   C18 2025   5.550   0.262   9.350 -0.2336  0.8690  0.0532
   28CHL1  H18A 2026   5.588   0.176   9.290 -0.0023  0.3224  0.9642
   28CHL1  H18B 2027   5.530   0.219   9.450 -0.3014  0.3286 -0.1840
   28CHL1  H18C 2028   5.449   0.290   9.312 -0.5648 -0.3865 -0.0464
   28CHL1   C12 2029   5.783   0.317   9.428  0.1755  0.0060 -0.0617
   28CHL1  H12A 2030   5.820   0.217   9.397 -1.4770 -0.5433 -0.3293
   28CHL1  H12B 2031   5.857   0.400   9.425  0.3252 -0.0812  0.8715
   28CHL1   C11 2032   5.758   0.312   9.581  0.5790  0.4950 -0.2649
   28CHL1  H11A 2033   5.707   0.214   9.596  1.3019 -0.2247 -2.2080
   28CHL1  H11B 2034   5.849   0.290   9.640  0.7859 -1.1742 -1.1187
   28CHL1    C9 2035   5.683   0.432   9.651  0.0894 -0.4417  0.0827
   28CHL1    H9 2036   5.751   0.520   9.644  0.5416 -0.7440  0.6206
   28CHL1   C10 2037   5.633   0.405   9.801  1.6619 -0.3936 -0.0357
   28CHL1   C19 2038   5.559   0.269   9.803 -0.0316  0.8432  0.6543
   28CHL1  H19A 2039   5.481   0.252   9.726  0.5654  0.0772  0.2033
   28CHL1  H19B 2040   5.638   0.192   9.791 -0.4918  0.7207 -2.3779
   28CHL1  H19C 2041   5.507   0.261   9.901 -0.8620  0.4167  0.1898
   28CHL1    C1 2042   5.753   0.409   9.895 -0.0764 -0.2303 -0.0153
   28CHL1   H1A 2043   5.813   0.323   9.859  0.5362  0.7093 -1.3409
   28CHL1   H1B 2044   5.809   0.502   9.870 -1.1608  0.5847  0.5092
   28CHL1    C2 2045   5.724   0.395  10.040  0.4562  0.3002 -0.5527
   28CHL1   H2A 2046   5.813   0.397  10.105 -0.1782  2.2565  0.3357
   28CHL1   H2B 2047   5.673   0.300  10.067  0.4818  0.7671  1.3066
   28CHL1   C20 2048   5.706   0.351   9.092 -0.6092  0.5608 -0.2624
   28CHL1   H20 2049   5.615   0.291   9.071 -0.1808 -0.0022 -0.5468
   28CHL1   C21 2050   5.829   0.256   9.120 -0.2344 -0.1541 -0.6520
   28CHL1  H21A 2051   5.908   0.317   9.169 -0.5129 -0.3475  0.0527
   28CHL1  H21B 2052   5.863   0.209   9.025 -0.6036  1.2432 -1.5087
   28CHL1  H21C 2053   5.796   0.179   9.193  0.6912  1.0080  1.0552
   28CHL1   C22 2054   5.742   0.431   8.966 -0.6543 -0.5571 -0.2930
   28CHL1  H22A 2055   5.686   0.526   8.975 -2.9590 -1.7584 -1.3010
   28CHL1  H22B 2056   5.850   0.452   8.979 -0.4605 -1.0579 -1.0130
   28CHL1   C23 2057   5.712   0.368   8.836  0.0393 -0.4810 -0.3290
   28CHL1  H23A 2058   5.744   0.262   8.838 -1.1986 -0.9864 -3.0344
   28CHL1  H23B 2059   5.601   0.368   8.823  0.1296  0.7026 -1.3565
   28CHL1   C24 2060   5.785   0.438   8.721 -0.1226 -0.1536 -0.2266
   28CHL1  H24A 2061   5.754   0.542   8.699  2.6490  0.7516 -0.2559
   28CHL1  H24B 2062   5.893   0.431   8.748 -0.9468 -1.9710  3.2540
   28CHL1   C25 2063   5.758   0.370   8.581  0.0169 -0.4298  0.0536
   28CHL1   H25 2064   5.787   0.263   8.583  0.5499 -0.2798  0.5397
   28CHL1   C26 2065   5.609   0.377   8.531  0.0255 -0.5278 -0.5570
   28CHL1  H26A 2066   5.608   0.361   8.421  0.0623 -1.0951 -0.4809
   28CHL1  H26B 2067   5.551   0.296   8.580  0.3083 -0.8764 -0.7908
   28CHL1  H26C 2068   5.569   0.476   8.558  0.9779  0.4476 -2.5315
   28CHL1   C27 2069   5.856   0.438   8.476  0.0771  0.2697  0.2965
   28CHL1  H27A 2070   5.826   0.545   8.468  0.8183  0.6411  2.0725
   28CHL1  H27B 2071   5.956   0.455   8.521  1.7008  1.6421 -3.4173
   28CHL1  H27C 2072   5.856   0.391   8.375 -0.4519 -1.1124  0.9215
   29CHL1    C3 2073   5.189   5.570   6.592 -0.0999  0.1471 -0.4848
   29CHL1    H3 2074   5.216   5.464   6.571  0.3757  0.4597 -1.5172
   29CHL1    O3 2075   5.154   5.628   6.472  0.4109  0.1329 -0.0259
   29CHL1   H3' 2076   5.121   5.712   6.504 -1.7003 -0.9226  0.7091
   29CHL1    C4 2077   5.069   5.573   6.683 -0.0574 -0.7170 -0.1288
   29CHL1   H4A 2078   5.039   5.680   6.691 -4.7107 -1.8990  1.1980
   29CHL1   H4B 2079   4.988   5.518   6.631 -0.5166  0.0526 -0.2367
   29CHL1    C5 2080   5.098   5.524   6.821  0.0243 -0.0266  0.7950
   29CHL1    C6 2081   5.036   5.414   6.868  0.7442 -0.2087 -0.2526
   29CHL1    H6 2082   4.943   5.386   6.817  1.3820  0.0848 -1.6012
   29CHL1    C7 2083   5.066   5.347   6.998 -0.1914 -0.6186 -0.3489
   29CHL1   H7A 2084   4.977   5.318   7.057  0.8761 -0.4245  1.4321
   29CHL1   H7B 2085   5.113   5.247   6.992 -0.1938 -0.7236  1.1342
   29CHL1    C8 2086   5.139   5.446   7.088  0.1607 -0.4646 -0.6014
   29CHL1    H8 2087   5.067   5.525   7.118 -1.0877 -1.3963 -0.9986
   29CHL1   C14 2088   5.174   5.384   7.216 -0.2392 -0.1564 -0.6376
   29CHL1   H14 2089   5.231   5.294   7.186 -0.4564 -0.1631 -1.0313
   29CHL1   C15 2090   5.060   5.326   7.309  0.5844  0.0643  0.2540
   29CHL1  H15A 2091   4.982   5.404   7.316  0.1316 -0.2767 -0.7870
   29CHL1  H15B 2092   5.005   5.239   7.267 -0.4780 -0.4487  2.6027
   29CHL1   C16 2093   5.116   5.327   7.452  0.2157  0.1407  0.1885
   29CHL1  H16A 2094   5.055   5.404   7.504 -0.6899  0.0730 -0.7387
   29CHL1  H16B 2095   5.109   5.226   7.498 -0.0248 -0.3944 -0.9757
   29CHL1   C17 2096   5.266   5.370   7.438  0.4947  0.7558  0.6667
   29CHL1   H17 2097   5.312   5.276   7.402 -0.7345  0.7229 -0.9284
   29CHL1   C13 2098   5.271   5.467   7.310 -0.3329 -0.0081 -0.2368
   29CHL1   C18 2099   5.217   5.605   7.350  0.3265 -0.1766  0.0098
   29CHL1  H18A 2100   5.284   5.666   7.414 -0.1562 -1.1918  1.5191
   29CHL1  H18B 2101   5.183   5.668   7.264 -2.2284  1.8755  2.3167
   29CHL1  H18C 2102   5.122   5.599   7.407 -0.1477 -1.7409 -0.9055
   29CHL1   C12 2103   5.412   5.479   7.239  0.5099 -0.5389  0.8010
   29CHL1  H12A 2104   5.491   5.537   7.292 -0.1284  0.5975  0.5365
   29CHL1  H12B 2105   5.450   5.376   7.223 -2.1143 -1.4141 -0.3072
   29CHL1   C11 2106   5.377   5.560   7.116  0.3608 -0.8550  0.3059
   29CHL1  H11A 2107   5.350   5.662   7.150 -0.6057 -0.8498 -0.4268
   29CHL1  H11B 2108   5.471   5.576   7.057 -0.4395 -0.9358 -1.0328
   29CHL1    C9 2109   5.261   5.498   7.014 -0.5282 -0.2503 -0.2146
   29CHL1    H9 2110   5.310   5.405   6.976 -0.1293  0.0748 -0.4975
   29CHL1   C10 2111   5.226   5.581   6.894  0.9739 -0.5509 -0.0049
   29CHL1   C19 2112   5.190   5.729   6.936 -0.6022 -0.3312 -0.2978
   29CHL1  H19A 2113   5.169   5.783   6.841 -0.0369 -0.5044 -0.5245
   29CHL1  H19B 2114   5.100   5.744   6.999  0.1916 -0.0094  0.7934
   29CHL1  H19C 2115   5.275   5.784   6.983 -1.0446  0.3110 -0.2277
   29CHL1    C1 2116   5.342   5.592   6.799  0.7715 -0.5362 -0.7539
   29CHL1   H1A 2117   5.415   5.662   6.845 -0.8596  0.2332  0.7388
   29CHL1   H1B 2118   5.383   5.490   6.777 -0.7494 -0.9869 -1.6602
   29CHL1    C2 2119   5.308   5.641   6.654 -0.0041  0.7309 -0.6227
   29CHL1   H2A 2120   5.397   5.625   6.591  0.5649 -0.9452  0.5448
   29CHL1   H2B 2121   5.292   5.751   6.659 -3.4901  0.2894  1.7334
   29CHL1   C20 2122   5.320   5.426   7.563  0.4696  0.0488 -0.4849
   29CHL1   H20 2123   5.291   5.533   7.575 -0.4810 -0.3889  1.4681
   29CHL1   C21 2124   5.474   5.432   7.555  0.2952  0.1940 -0.1126
   29CHL1  H21A 2125   5.517   5.503   7.481 -1.2266  0.8639 -0.3788
   29CHL1  H21B 2126   5.508   5.330   7.529 -1.2860 -0.6287  0.9196
   29CHL1  H21C 2127   5.524   5.462   7.650  1.7450 -1.1065 -0.4283
   29CHL1   C22 2128   5.279   5.347   7.690  0.0543  0.5247  0.1848
   29CHL1  H22A 2129   5.168   5.344   7.693 -0.0491 -0.0331 -2.2306
   29CHL1  H22B 2130   5.303   5.239   7.681 -1.1301  0.2698 -0.1488
   29CHL1   C23 2131   5.332   5.396   7.830 -0.3918  1.0016  0.9823
   29CHL1  H23A 2132   5.291   5.337   7.914 -0.4551  0.4257  0.5486
   29CHL1  H23B 2133   5.441   5.373   7.834 -0.4871 -0.7233 -2.3809
   29CHL1   C24 2134   5.301   5.533   7.878 -0.1990  0.0862  0.2873
   29CHL1  H24A 2135   5.339   5.555   7.980  1.8642  1.3074 -0.6939
   29CHL1  H24B 2136   5.349   5.598   7.802  0.2838  0.6206  1.0445
   29CHL1   C25 2137   5.151   5.574   7.860 -0.7984 -0.1000  0.1516
   29CHL1   H25 2138   5.115   5.531   7.764  0.5860 -1.3821  0.1595
   29CHL1   C26 2139   5.055   5.513   7.966  0.4315  0.4432 -0.3634
   29CHL1  H26A 2140   4.954   5.545   7.934  1.0790  0.1156 -2.9920
   29CHL1  H26B 2141   5.064   5.404   7.949  1.5246  0.5368 -0.4620
   29CHL1  H26C 2142   5.070   5.535   8.074  0.5793 -2.2805  0.2345
   29CHL1   C27 2143   5.144   5.726   7.868 -0.3180  0.2172  0.4072
   29CHL1  H27A 2144   5.222   5.781   7.811 -0.0056 -0.3159  0.3159
   29CHL1  H27B 2145   5.048   5.772   7.836 -0.8652 -1.3760 -0.3545
   29CHL1  H27C 2146   5.162   5.757   7.973 -0.7068 -0.7042  0.7508
   30CHL1    C3 2147   3.534   3.236   7.318  0.7284 -0.0342  0.0360
   30CHL1    H3 2148   3.577   3.338   7.334  0.2882  0.1192  0.2623
   30CHL1    O3 2149   3.504   3.213   7.184  0.2403  0.3741 -0.4796
   30CHL1   H3' 2150   3.472   3.293   7.142 -2.1897 -0.6856 -0.8255
   30CHL1    C4 2151   3.644   3.138   7.370 -0.0144 -0.0802  0.4049
   30CHL1   H4A 2152   3.608   3.035   7.348  0.1189  0.2745 -1.7072
   30CHL1   H4B 2153   3.737   3.159   7.313 -0.7815  0.4387 -0.6956
   30CHL1    C5 2154   3.670   3.163   7.519 -0.3664 -0.1923 -0.6161
   30CHL1    C6 2155   3.789   3.194   7.572 -0.4772 -0.6378 -0.4131
   30CHL1    H6 2156   3.874   3.196   7.504  0.1947 -1.2284  0.3806
   30CHL1    C7 2157   3.824   3.210   7.720  0.4878  0.6535 -0.2295
   30CHL1   H7A 2158   3.913   3.151   7.749 -1.5244 -1.6145  1.8603
   30CHL1   H7B 2159   3.845   3.317   7.738  1.3820  0.5430 -0.5950
   30CHL1    C8 2160   3.708   3.175   7.811 -0.2421 -0.1708  0.1076
   30CHL1    H8 2161   3.713   3.064   7.815  0.9917 -0.1064  0.8291
   30CHL1   C14 2162   3.727   3.241   7.947  0.2991  0.0775  0.3219
   30CHL1   H14 2163   3.714   3.349   7.925 -1.8329 -0.4185 -1.1566
   30CHL1   C15 2164   3.858   3.220   8.015  0.1372 -0.5013 -0.4674
   30CHL1  H15A 2165   3.878   3.112   7.997 -4.3272 -1.5003 -0.5396
   30CHL1  H15B 2166   3.949   3.272   7.978  0.3311 -0.7279 -0.3202
   30CHL1   C16 2167   3.838   3.266   8.165 -0.0896  0.3330  0.5076
   30CHL1  H16A 2168   3.890   3.196   8.234 -2.9962 -1.1235  1.3900
   30CHL1  H16B 2169   3.872   3.370   8.181  0.0953  0.5829 -1.2589
   30CHL1   C17 2170   3.687   3.256   8.183  0.9453  0.6110 -0.0253
   30CHL1   H17 2171   3.657   3.363   8.180  1.1782  0.6685 -0.4771
   30CHL1   C13 2172   3.622   3.206   8.049  1.2586 -0.9348 -0.2998
   30CHL1   C18 2173   3.620   3.052   8.061  0.0354 -0.1970 -0.0314
   30CHL1  H18A 2174   3.721   3.018   8.093  0.5446 -0.4125 -1.7808
   30CHL1  H18B 2175   3.541   3.010   8.127 -1.4082  0.3588 -1.3139
   30CHL1  H18C 2176   3.588   2.992   7.973 -1.5310 -0.4123  0.6439
   30CHL1   C12 2177   3.487   3.257   8.002 -0.1212 -0.2222 -0.1265
   30CHL1  H12A 2178   3.402   3.221   8.063 -0.9849  0.4980 -0.8667
   30CHL1  H12B 2179   3.486   3.368   7.999  0.9115 -0.0847  2.5466
   30CHL1   C11 2180   3.451   3.202   7.859  0.2654  0.3261 -0.2854
   30CHL1  H11A 2181   3.424   3.094   7.864  0.4088  0.3148  0.2281
   30CHL1  H11B 2182   3.362   3.253   7.816  1.0969  0.5627 -1.7928
   30CHL1    C9 2183   3.568   3.221   7.755  0.4017  0.3237 -0.0979
   30CHL1    H9 2184   3.577   3.331   7.745 -0.2302  0.3164 -0.8784
   30CHL1   C10 2185   3.545   3.165   7.609 -0.2018 -0.3520  0.6658
   30CHL1   C19 2186   3.486   3.025   7.628  0.3928  0.2586 -0.3334
   30CHL1  H19A 2187   3.547   2.973   7.705  1.6468  1.4262 -0.4949
   30CHL1  H19B 2188   3.381   3.020   7.663  0.4569 -0.3497 -0.2108
   30CHL1  H19C 2189   3.476   2.966   7.534  2.0643 -0.4942 -0.0791
   30CHL1    C1 2190   3.436   3.252   7.546  0.3960  0.7178  0.2413
   30CHL1   H1A 2191   3.340   3.229   7.596  0.2655 -0.0769 -0.3535
   30CHL1   H1B 2192   3.455   3.360   7.564  3.9078  0.1586  0.6279
   30CHL1    C2 2193   3.411   3.229   7.396 -0.3670 -0.4404  0.0055
   30CHL1   H2A 2194   3.341   3.308   7.361 -1.1430 -1.1899 -0.1832
   30CHL1   H2B 2195   3.356   3.133   7.391  1.6327 -1.6637  0.5850
   30CHL1   C20 2196   3.640   3.213   8.322 -0.5470  0.3726  0.1413
   30CHL1   H20 2197   3.655   3.103   8.328 -0.3307  0.4005  0.1190
   30CHL1   C21 2198   3.486   3.227   8.342 -0.0935  0.0010  0.4670
   30CHL1  H21A 2199   3.433   3.166   8.266 -2.4839  1.1283  1.1605
   30CHL1  H21B 2200   3.458   3.334   8.338 -2.7773 -0.5930  1.4047
   30CHL1  H21C 2201   3.463   3.192   8.445 -0.5369 -0.4586  0.2147
   30CHL1   C22 2202   3.715   3.278   8.449 -0.1317 -0.7908  0.1122
   30CHL1  H22A 2203   3.765   3.372   8.419 -2.9934  1.1001  0.8207
   30CHL1  H22B 2204   3.640   3.324   8.517  1.2953  0.0007  1.1984
   30CHL1   C23 2205   3.809   3.179   8.519 -0.4107 -0.2713  0.5558
   30CHL1  H23A 2206   3.740   3.102   8.560 -0.3181 -0.5109  0.2737
   30CHL1  H23B 2207   3.876   3.129   8.445  1.2865  0.7739  1.3110
   30CHL1   C24 2208   3.895   3.243   8.626  0.1104 -0.0745 -0.5261
   30CHL1  H24A 2209   3.950   3.331   8.587 -0.9023  0.5917 -0.4793
   30CHL1  H24B 2210   3.828   3.282   8.705  0.1922 -2.1172  0.6395
   30CHL1   C25 2211   4.005   3.150   8.690 -0.5312 -0.3944  0.1946
   30CHL1   H25 2212   4.050   3.091   8.607  0.5203 -1.1418  1.2577
   30CHL1   C26 2213   4.115   3.231   8.750  0.9940  0.1508 -0.1311
   30CHL1  H26A 2214   4.184   3.165   8.807 -0.3539 -1.1531  0.0342
   30CHL1  H26B 2215   4.169   3.289   8.672 -0.7146  0.0871 -1.4056
   30CHL1  H26C 2216   4.063   3.301   8.820  0.4366 -0.0426 -0.3433
   30CHL1   C27 2217   3.939   3.043   8.779  0.3675 -0.1764  0.0322
   30CHL1  H27A 2218   4.021   2.984   8.825  1.0604 -0.1894 -1.1839
   30CHL1  H27B 2219   3.876   3.098   8.853 -1.3332 -1.6899 -0.2182
   30CHL1  H27C 2220   3.868   2.975   8.727 -2.6685  1.1435  2.1149
   31CHL1    C3 2221   2.413   6.776   6.876 -0.1487  0.3047  0.0344
   31CHL1    H3 2222   2.310   6.811   6.895 -0.0489  0.6367 -0.0330
   31CHL1    O3 2223   2.436   6.749   6.735 -0.0861  0.1156  0.1082
   31CHL1   H3' 2224   2.504   6.682   6.725 -2.5122 -2.7341  1.1610
   31CHL1    C4 2225   2.519   6.875   6.930  0.2286  0.2812 -0.0964
   31CHL1   H4A 2226   2.615   6.834   6.890  0.0804  1.2304 -1.4741
   31CHL1   H4B 2227   2.503   6.974   6.882 -0.3029 -0.6640 -1.9567
   31CHL1    C5 2228   2.510   6.894   7.081 -0.7499  0.1783 -0.1354
   31CHL1    C6 2229   2.513   7.020   7.132  0.2717  0.1989 -0.5576
   31CHL1    H6 2230   2.495   7.103   7.063 -4.2808  0.8716  1.0856
   31CHL1    C7 2231   2.506   7.048   7.283  0.1785 -0.3092  0.9330
   31CHL1   H7A 2232   2.578   7.129   7.308 -0.6071  1.1376 -1.1461
   31CHL1   H7B 2233   2.404   7.083   7.310 -0.5461 -2.1700  0.7234
   31CHL1    C8 2234   2.543   6.927   7.367  0.5345  0.0985  0.2581
   31CHL1    H8 2235   2.653   6.912   7.359  0.5358 -0.0225  0.4879
   31CHL1   C14 2236   2.506   6.950   7.509 -0.1643  0.8329  0.9026
   31CHL1   H14 2237   2.395   6.949   7.505 -0.2479 -1.9147  1.8618
   31CHL1   C15 2238   2.552   7.081   7.579  0.0407 -0.0400  0.0016
   31CHL1  H15A 2239   2.656   7.101   7.545 -0.3785 -1.4291 -2.3379
   31CHL1  H15B 2240   2.487   7.167   7.552 -1.3522 -0.8984  0.5589
   31CHL1   C16 2241   2.546   7.047   7.728 -0.5374  0.0431 -0.5129
   31CHL1  H16A 2242   2.649   7.060   7.767 -0.0953 -2.3575 -0.7217
   31CHL1  H16B 2243   2.460   7.107   7.764  0.7118  1.2937  0.4686
   31CHL1   C17 2244   2.509   6.894   7.741 -0.0326 -0.3141  0.0325
   31CHL1   H17 2245   2.399   6.900   7.745 -0.0977 -0.2686 -1.3343
   31CHL1   C13 2246   2.549   6.834   7.608  0.8339  0.7751  0.6945
   31CHL1   C18 2247   2.698   6.803   7.618 -0.2166 -0.4828 -0.2331
   31CHL1  H18A 2248   2.766   6.888   7.642 -1.9384  0.6948  0.6286
   31CHL1  H18B 2249   2.730   6.728   7.692  0.0592 -0.3306 -0.1967
   31CHL1  H18C 2250   2.739   6.770   7.520 -0.3235 -0.4376 -0.2939
   31CHL1   C12 2251   2.475   6.707   7.562 -0.0359 -0.2200 -0.1059
   31CHL1  H12A 2252   2.485   6.615   7.623 -0.1083 -1.2108 -1.5228
   31CHL1  H12B 2253   2.367   6.733   7.566  0.7063  4.3563 -2.3628
   31CHL1   C11 2254   2.487   6.673   7.411  0.3191 -0.4637 -0.6837
   31CHL1  H11A 2255   2.580   6.615   7.393  0.9517  0.5472 -0.7745
   31CHL1  H11B 2256   2.395   6.620   7.380 -2.7143  3.0490  1.5179
   31CHL1    C9 2257   2.478   6.797   7.314 -0.3050 -0.4171 -0.1591
   31CHL1    H9 2258   2.373   6.829   7.301  0.1325  0.8478 -0.7893
   31CHL1   C10 2259   2.514   6.770   7.166  0.1343  0.7781 -0.4458
   31CHL1   C19 2260   2.661   6.720   7.161  0.2601 -0.0866 -0.0149
   31CHL1  H19A 2261   2.728   6.786   7.220 -1.2744  1.0384  0.5379
   31CHL1  H19B 2262   2.668   6.614   7.196  1.9916 -0.5281 -1.5055
   31CHL1  H19C 2263   2.699   6.720   7.056  3.1282 -1.9453  0.8896
   31CHL1    C1 2264   2.409   6.667   7.101 -0.9151 -0.2117 -0.0316
   31CHL1   H1A 2265   2.425   6.569   7.151  0.7416 -0.9443 -1.8595
   31CHL1   H1B 2266   2.303   6.696   7.116 -0.8785  0.8807 -1.6874
   31CHL1    C2 2267   2.420   6.640   6.950 -0.2788 -0.4223 -0.0584
   31CHL1   H2A 2268   2.349   6.564   6.910 -2.1143  1.5647 -0.7734
   31CHL1   H2B 2269   2.520   6.599   6.928 -1.0891 -1.4720 -2.1590
   31CHL1   C20 2270   2.552   6.824   7.871  0.2414  0.3787 -0.9481
   31CHL1   H20 2271   2.663   6.833   7.867  0.1896  1.2226 -0.7814
   31CHL1   C21 2272   2.514   6.675   7.879  0.1439 -0.2262  0.1974
   31CHL1  H21A 2273   2.414   6.656   7.835  0.4545 -0.4133 -0.4369
   31CHL1  H21B 2274   2.514   6.641   7.985  0.0744 -1.3816 -0.1690
   31CHL1  H21C 2275   2.588   6.614   7.824 -1.6691 -1.5094 -0.9489
   31CHL1   C22 2276   2.511   6.905   7.990 -0.3558  0.0959 -0.3856
   31CHL1  H22A 2277   2.576   6.874   8.075 -0.0252  0.2699 -0.5712
   31CHL1  H22B 2278   2.548   7.009   7.977 -0.5442  0.1917 -0.1679
   31CHL1   C23 2279   2.360   6.906   8.032 -0.8138  0.4274  0.2215
   31CHL1  H23A 2280   2.298   6.938   7.945 -2.0623 -1.0020  0.5519
   31CHL1  H23B 2281   2.334   6.803   8.063 -1.1867  0.2318 -0.6859
   31CHL1   C24 2282   2.335   7.001   8.148  0.6833  0.2344  0.2584
   31CHL1  H24A 2283   2.345   7.110   8.128 -3.4156  1.1383  1.9171
   31CHL1  H24B 2284   2.224   6.988   8.155  0.1783  1.5636 -3.3254
   31CHL1   C25 2285   2.381   6.946   8.282  0.1866  0.5500 -0.6508
   31CHL1   H25 2286   2.489   6.917   8.283 -0.1108 -0.5608  0.4494
   31CHL1   C26 2287   2.378   7.051   8.390 -1.0742  0.7743 -0.2688
   31CHL1  H26A 2288   2.270   7.060   8.415 -1.4784 -2.9999 -0.0707
   31CHL1  H26B 2289   2.442   7.017   8.474  0.5364  0.7750 -1.4487
   31CHL1  H26C 2290   2.418   7.145   8.347  0.2590 -0.0066 -0.7891
   31CHL1   C27 2291   2.296   6.827   8.337  0.2114  0.1568 -0.4623
   31CHL1  H27A 2292   2.331   6.799   8.439 -0.3571 -1.3889 -0.6730
   31CHL1  H27B 2293   2.299   6.732   8.280  1.7774 -1.6697  2.4072
   31CHL1  H27C 2294   2.189   6.850   8.357 -0.0241 -1.1195 -0.2022
   32CHL1    C3 2295   4.900   4.344   6.899  0.4077 -0.3501  0.0643
   32CHL1    H3 2296   4.997   4.367   6.851  0.4659 -0.2075  0.2514
   32CHL1    O3 2297   4.797   4.330   6.798  0.5795 -0.1700 -0.4236
   32CHL1   H3' 2298   4.781   4.236   6.794 -0.3810 -0.4251  4.1333
   32CHL1    C4 2299   4.920   4.210   6.980 -0.3291  0.8578  0.3136
   32CHL1   H4A 2300   4.819   4.185   7.019 -0.3839 -0.6651 -0.7063
   32CHL1   H4B 2301   4.949   4.127   6.912 -0.6067  0.5369  0.5831
   32CHL1    C5 2302   5.029   4.229   7.086  0.1569 -0.5426  0.5559
   32CHL1    C6 2303   5.136   4.160   7.082 -0.7317 -0.9899 -0.5989
   32CHL1    H6 2304   5.141   4.084   7.002 -0.9331 -0.0127 -1.5621
   32CHL1    C7 2305   5.253   4.166   7.174 -0.1929  0.1692  0.6743
   32CHL1   H7A 2306   5.275   4.061   7.204  0.8843  0.8166  2.2375
   32CHL1   H7B 2307   5.345   4.206   7.127 -0.4124  0.2640  0.3243
   32CHL1    C8 2308   5.212   4.240   7.302 -0.0764  0.3851 -0.1395
   32CHL1    H8 2309   5.148   4.167   7.356  0.2569  0.2916  0.1379
   32CHL1   C14 2310   5.332   4.272   7.390 -0.5598  0.0088 -0.9329
   32CHL1   H14 2311   5.397   4.338   7.328 -0.7690  1.2235  0.1141
   32CHL1   C15 2312   5.436   4.158   7.440  0.6373 -0.5251 -0.6386
   32CHL1  H15A 2313   5.375   4.069   7.467  0.4939 -0.6288 -1.2855
   32CHL1  H15B 2314   5.507   4.138   7.357  2.0310  0.0798  0.3813
   32CHL1   C16 2315   5.499   4.217   7.566 -0.3840 -0.5076 -0.5887
   32CHL1  H16A 2316   5.482   4.150   7.653 -1.1266 -2.9760 -2.5102
   32CHL1  H16B 2317   5.609   4.231   7.557 -0.1887 -0.9936  0.7097
   32CHL1   C17 2318   5.441   4.364   7.580 -0.4052  0.7645  0.1038
   32CHL1   H17 2319   5.508   4.420   7.510 -0.9121  0.0553 -0.9764
   32CHL1   C13 2320   5.299   4.353   7.516  0.0118 -0.2618  0.4347
   32CHL1   C18 2321   5.200   4.277   7.610 -0.3203  0.1210  0.4883
   32CHL1  H18A 2322   5.257   4.191   7.653 -1.6403 -0.0795  1.9390
   32CHL1  H18B 2323   5.170   4.339   7.698  3.6373  1.2793  1.2166
   32CHL1  H18C 2324   5.106   4.243   7.562 -0.5532  0.6679  0.5447
   32CHL1   C12 2325   5.235   4.489   7.476  0.3022 -1.0455  0.2531
   32CHL1  H12A 2326   5.214   4.547   7.569 -2.3618 -0.2120 -0.7892
   32CHL1  H12B 2327   5.300   4.555   7.415  0.7510  0.6065  2.3902
   32CHL1   C11 2328   5.107   4.458   7.394  0.4079 -0.3949 -0.2349
   32CHL1  H11A 2329   5.030   4.415   7.462 -0.1483 -0.4976 -0.9145
   32CHL1  H11B 2330   5.056   4.551   7.362  1.1522  0.6774  1.5520
   32CHL1    C9 2331   5.132   4.369   7.271 -0.1011  0.2292 -0.2901
   32CHL1    H9 2332   5.194   4.432   7.203  0.2842  1.5607  1.2249
   32CHL1   C10 2333   5.006   4.338   7.187  0.6603 -0.5616  0.5116
   32CHL1   C19 2334   4.891   4.298   7.282 -0.2882  0.0085  0.1398
   32CHL1  H19A 2335   4.926   4.210   7.340 -1.5227 -0.8401 -0.3623
   32CHL1  H19B 2336   4.864   4.385   7.346 -2.5061 -1.2887  1.1096
   32CHL1  H19C 2337   4.792   4.280   7.234 -0.4921 -1.6685  1.1076
   32CHL1    C1 2338   4.969   4.468   7.106  0.0173 -0.8055 -0.5178
   32CHL1   H1A 2339   4.944   4.544   7.184  1.9560  0.2850 -0.8803
   32CHL1   H1B 2340   5.064   4.503   7.060  0.5566 -1.5122  0.0312
   32CHL1    C2 2341   4.860   4.452   7.004 -0.7183 -0.3371  0.9311
   32CHL1   H2A 2342   4.854   4.550   6.952 -3.3188 -1.0660 -0.2737
   32CHL1   H2B 2343   4.755   4.429   7.031 -0.9987 -0.8859 -0.5499
   32CHL1   C20 2344   5.454   4.436   7.716  0.0201  0.6057  0.2936
   32CHL1   H20 2345   5.352   4.465   7.748 -0.4522 -0.6815  0.0367
   32CHL1   C21 2346   5.523   4.571   7.688 -0.3234  0.2943 -0.2846
   32CHL1  H21A 2347   5.475   4.625   7.604  0.0754  0.8904 -0.1345
   32CHL1  H21B 2348   5.628   4.548   7.659 -0.9856 -1.3123 -1.6165
   32CHL1  H21C 2349   5.523   4.636   7.778  2.2761 -1.3286  1.0125
   32CHL1   C22 2350   5.524   4.349   7.827 -0.2791  0.8948  0.3407
   32CHL1  H22A 2351   5.461   4.261   7.855 -0.3946  0.7969 -0.2154
   32CHL1  H22B 2352   5.618   4.307   7.787 -0.3973  0.6938  0.2741
   32CHL1   C23 2353   5.564   4.422   7.959  0.5953  0.7651 -0.1531
   32CHL1  H23A 2354   5.618   4.351   8.024 -0.4848  1.2164  1.2832
   32CHL1  H23B 2355   5.636   4.502   7.932 -0.2918  0.9598 -2.1404
   32CHL1   C24 2356   5.436   4.467   8.037  0.2071  0.3021  0.1223
   32CHL1  H24A 2357   5.365   4.526   7.975 -0.8420  1.4917  2.3799
   32CHL1  H24B 2358   5.380   4.377   8.072  0.3991 -0.3815 -1.2391
   32CHL1   C25 2359   5.470   4.552   8.167 -0.0494  0.8836  0.2271
   32CHL1   H25 2360   5.520   4.642   8.126  1.6970 -0.7427 -1.4539
   32CHL1   C26 2361   5.336   4.588   8.219  0.4640 -0.1388  0.0285
   32CHL1  H26A 2362   5.351   4.658   8.304 -0.7695 -0.4054  0.4971
   32CHL1  H26B 2363   5.279   4.642   8.140 -1.1478 -0.9893  0.5692
   32CHL1  H26C 2364   5.282   4.499   8.257  0.5276 -0.1866  0.0066
   32CHL1   C27 2365   5.556   4.477   8.271 -0.5674  0.7196 -0.9954
   32CHL1  H27A 2366   5.656   4.448   8.233 -0.1721  1.1141 -0.2792
   32CHL1  H27B 2367   5.566   4.538   8.363 -0.7947 -0.2742 -0.2949
   32CHL1  H27C 2368   5.499   4.383   8.291  0.7451  0.2256  0.6951
   33CHL1    C3 2369   4.160   3.359   6.807 -0.1778  0.5366  0.0938
   33CHL1    H3 2370   4.126   3.263   6.853 -0.0190  0.6357  0.4171
   33CHL1    O3 2371   4.215   3.331   6.684  0.3078 -0.1385 -0.7537
   33CHL1   H3' 2372   4.188   3.408   6.633 -3.5727 -0.8646 -0.1565
   33CHL1    C4 2373   4.045   3.457   6.800  0.4321  0.3209  0.0570
   33CHL1   H4A 2374   4.080   3.549   6.749  1.0598 -0.4226 -0.8919
   33CHL1   H4B 2375   3.973   3.418   6.725  0.6927  0.9325 -0.5158
   33CHL1    C5 2376   3.981   3.502   6.929 -0.0085 -0.1366  0.9121
   33CHL1    C6 2377   3.852   3.501   6.947  0.5383  0.0096  0.7023
   33CHL1    H6 2378   3.791   3.467   6.862  1.2050 -0.3438  0.3605
   33CHL1    C7 2379   3.776   3.541   7.069  0.1421  0.1813  0.1273
   33CHL1   H7A 2380   3.706   3.627   7.058 -0.1999  0.0146  0.8936
   33CHL1   H7B 2381   3.720   3.452   7.105  0.2080 -0.9939 -2.4995
   33CHL1    C8 2382   3.871   3.584   7.182 -0.1557  0.0152  0.2330
   33CHL1    H8 2383   3.887   3.693   7.169 -1.0216  0.3430  1.6696
   33CHL1   C14 2384   3.810   3.564   7.318  0.6208 -0.6192 -0.1439
   33CHL1   H14 2385   3.791   3.454   7.318 -0.2354 -0.5780 -3.2290
   33CHL1   C15 2386   3.663   3.612   7.343  0.1191  0.5764  0.3224
   33CHL1  H15A 2387   3.656   3.721   7.323 -0.7567  0.1695 -1.7951
   33CHL1  H15B 2388   3.590   3.547   7.291  1.4895 -0.9053  0.1574
   33CHL1   C16 2389   3.642   3.596   7.492  0.0202  0.1695  0.4334
   33CHL1  H16A 2390   3.599   3.686   7.540  0.8116  0.8883 -0.1710
   33CHL1  H16B 2391   3.572   3.511   7.506 -1.4490  1.0623 -1.1047
   33CHL1   C17 2392   3.787   3.580   7.557  0.6324 -0.2396 -0.3194
   33CHL1   H17 2393   3.805   3.473   7.583 -0.3041 -0.2726  0.2550
   33CHL1   C13 2394   3.890   3.603   7.441 -0.0589 -0.2630  0.3214
   33CHL1   C18 2395   3.933   3.751   7.431  0.5313 -0.2524 -0.6294
   33CHL1  H18A 2396   3.961   3.774   7.326  0.8001  0.2464 -0.4480
   33CHL1  H18B 2397   3.846   3.810   7.465  0.7332 -0.2547 -0.1032
   33CHL1  H18C 2398   4.019   3.766   7.500 -0.8918 -0.2246  1.2162
   33CHL1   C12 2399   4.018   3.530   7.431 -0.0778  0.0024 -0.1647
   33CHL1  H12A 2400   4.084   3.551   7.518 -2.0508 -1.8110  1.9156
   33CHL1  H12B 2401   4.000   3.421   7.442 -0.4877  0.1074  0.2466
   33CHL1   C11 2402   4.097   3.547   7.300 -0.5092 -0.3036 -0.1871
   33CHL1  H11A 2403   4.144   3.648   7.298 -1.5439  0.1819 -0.3511
   33CHL1  H11B 2404   4.179   3.474   7.313 -0.3282  0.2344  2.1531
   33CHL1    C9 2405   4.010   3.513   7.177 -0.1237  0.5550  0.4190
   33CHL1    H9 2406   4.000   3.403   7.179  0.9874  0.4288 -0.0378
   33CHL1   C10 2407   4.088   3.522   7.039  0.2440 -1.0001 -0.6782
   33CHL1   C19 2408   4.138   3.669   7.015  0.0819 -1.0070 -0.2613
   33CHL1  H19A 2409   4.054   3.741   7.021  1.7972  1.0633 -0.1069
   33CHL1  H19B 2410   4.216   3.691   7.091 -0.2159 -1.6437  0.2454
   33CHL1  H19C 2411   4.179   3.687   6.914  3.0604 -0.7338  0.8964
   33CHL1    C1 2412   4.210   3.424   7.034  0.7735 -0.3667 -0.5211
   33CHL1   H1A 2413   4.286   3.455   7.108 -0.4501 -1.5210  1.3035
   33CHL1   H1B 2414   4.190   3.319   7.065  3.2334 -0.8744 -0.4792
   33CHL1    C2 2415   4.268   3.421   6.896 -0.3046 -0.3284  0.3831
   33CHL1   H2A 2416   4.355   3.351   6.895  0.3448  0.4634  0.7763
   33CHL1   H2B 2417   4.291   3.522   6.858 -0.9172 -0.3452 -0.0461
   33CHL1   C20 2418   3.817   3.654   7.687  0.0939 -0.8664  0.0628
   33CHL1   H20 2419   3.823   3.765   7.678  1.1073 -0.9714 -0.7284
   33CHL1   C21 2420   3.952   3.613   7.744 -0.2210 -0.5409 -0.0732
   33CHL1  H21A 2421   3.955   3.502   7.756 -2.3766 -0.4261  2.4520
   33CHL1  H21B 2422   3.959   3.654   7.847 -1.8291 -2.5332  0.8967
   33CHL1  H21C 2423   4.039   3.635   7.678 -2.4509  1.1735 -2.6799
   33CHL1   C22 2424   3.718   3.616   7.795 -0.3758 -0.4798  0.8741
   33CHL1  H22A 2425   3.616   3.624   7.752 -0.5850  2.4987  1.6926
   33CHL1  H22B 2426   3.738   3.513   7.831 -2.3181 -1.1192  0.2574
   33CHL1   C23 2427   3.710   3.703   7.918  0.0029 -0.3914 -0.4752
   33CHL1  H23A 2428   3.809   3.722   7.965 -0.5467  3.7181 -0.6294
   33CHL1  H23B 2429   3.689   3.804   7.878 -0.0847  0.0356  0.6175
   33CHL1   C24 2430   3.609   3.656   8.026  0.4473  0.0799  0.2777
   33CHL1  H24A 2431   3.506   3.630   7.992 -1.1131  2.3274  2.8675
   33CHL1  H24B 2432   3.654   3.562   8.064  0.5757 -0.4756 -1.1620
   33CHL1   C25 2433   3.579   3.746   8.151  0.3850 -0.3039  0.3907
   33CHL1   H25 2434   3.676   3.773   8.198 -0.4976  1.0693  1.5010
   33CHL1   C26 2435   3.502   3.872   8.107  0.4930 -0.7378  0.8175
   33CHL1  H26A 2436   3.479   3.927   8.201 -0.3113  0.7077 -0.1936
   33CHL1  H26B 2437   3.558   3.941   8.040 -1.0748  0.4903  0.7364
   33CHL1  H26C 2438   3.410   3.833   8.059  1.6225 -1.7165 -0.6706
   33CHL1   C27 2439   3.506   3.677   8.271  0.0145 -0.4861  0.1281
   33CHL1  H27A 2440   3.397   3.680   8.251  0.0465  3.1369 -0.0484
   33CHL1  H27B 2441   3.536   3.570   8.282 -0.4807 -0.8430 -1.6523
   33CHL1  H27C 2442   3.520   3.729   8.368  0.9648 -3.0125  1.4529
   34CHL1    C3 2443   0.289   2.257   6.870  0.3500 -0.0590 -0.5015
   34CHL1    H3 2444   0.255   2.177   6.938  0.0901 -0.3572 -0.9830
   34CHL1    O3 2445   0.297   2.205   6.741  0.3980 -0.3057 -0.3316
   34CHL1   H3' 2446   0.259   2.117   6.738  0.2886 -0.2674 -0.0435
   34CHL1    C4 2447   0.196   2.379   6.866 -0.1580 -0.1536 -0.1613
   34CHL1   H4A 2448   0.245   2.450   6.796 -1.0729 -0.8778 -1.5811
   34CHL1   H4B 2449   0.100   2.349   6.820  0.1396 -3.8659  1.2920
   34CHL1    C5 2450   0.189   2.447   7.005 -0.1283 -0.6187  0.3486
   34CHL1    C6 2451   0.065   2.468   7.063 -0.0439  0.6348 -0.0236
   34CHL1    H6 2452  -0.028   2.446   7.008  0.1692  3.1032 -1.4931
   34CHL1    C7 2453   0.037   2.538   7.191 -0.7166 -0.9991 -0.3317
   34CHL1   H7A 2454  -0.037   2.620   7.177 -1.1660 -1.5542 -1.3279
   34CHL1   H7B 2455   0.007   2.465   7.269  1.9644 -0.2409  1.5498
   34CHL1    C8 2456   0.174   2.606   7.242 -0.0956  0.3741  0.6849
   34CHL1    H8 2457   0.184   2.703   7.188 -0.1279  1.3154  2.2942
   34CHL1   C14 2458   0.161   2.632   7.392 -0.1092 -0.0289 -0.4072
   34CHL1   H14 2459   0.151   2.529   7.430  1.7195 -0.0927 -0.0195
   34CHL1   C15 2460   0.034   2.704   7.445 -0.2050 -0.0026 -0.3622
   34CHL1  H15A 2461   0.000   2.787   7.380  0.3744  2.5701  2.3601
   34CHL1  H15B 2462  -0.056   2.639   7.441  0.4782 -0.8897 -2.7501
   34CHL1   C16 2463   0.078   2.750   7.580 -0.3099 -0.4624  0.2975
   34CHL1  H16A 2464   0.046   2.857   7.585  0.9225 -0.0561 -0.1934
   34CHL1  H16B 2465   0.033   2.691   7.663  0.3125 -2.2408 -0.5747
   34CHL1   C17 2466   0.234   2.733   7.593 -0.4521 -0.0682 -0.5254
   34CHL1   H17 2467   0.250   2.631   7.633 -2.6026 -0.8809 -1.5268
   34CHL1   C13 2468   0.280   2.713   7.447  0.3157 -0.0356 -1.0298
   34CHL1   C18 2469   0.285   2.850   7.374  0.1326  0.0624  0.5145
   34CHL1  H18A 2470   0.194   2.913   7.378  1.0856  1.5293 -0.0049
   34CHL1  H18B 2471   0.368   2.910   7.416 -0.1715 -0.5889  2.1011
   34CHL1  H18C 2472   0.317   2.846   7.267  0.2294 -0.6063  0.5629
   34CHL1   C12 2473   0.407   2.622   7.431  0.2911  0.0662  0.7047
   34CHL1  H12A 2474   0.496   2.676   7.468  1.1092 -0.3553 -0.5764
   34CHL1  H12B 2475   0.398   2.528   7.489  1.7973 -1.0062 -0.7165
   34CHL1   C11 2476   0.432   2.585   7.287  0.7484  0.4290  0.6891
   34CHL1  H11A 2477   0.455   2.683   7.239  0.2051  0.1233 -0.2113
   34CHL1  H11B 2478   0.519   2.520   7.261 -0.3187  0.0310 -2.1996
   34CHL1    C9 2479   0.303   2.523   7.219 -0.2256  0.3290 -0.7354
   34CHL1    H9 2480   0.296   2.431   7.282  0.4960  1.3491  0.9007
   34CHL1   C10 2481   0.320   2.486   7.071 -1.0065 -0.5178  0.0365
   34CHL1   C19 2482   0.385   2.610   7.001  0.0790  0.3457 -0.0408
   34CHL1  H19A 2483   0.367   2.609   6.891  1.3566 -2.1174 -0.2945
   34CHL1  H19B 2484   0.342   2.710   7.024  1.1664  0.8225 -0.0325
   34CHL1  H19C 2485   0.493   2.615   7.023 -0.2609  0.3178  1.7657
   34CHL1    C1 2486   0.420   2.365   7.054  0.1320 -0.3042  0.0832
   34CHL1   H1A 2487   0.518   2.392   7.098  0.0230 -0.9933  0.7763
   34CHL1   H1B 2488   0.391   2.296   7.136  0.3120  1.4927  1.7263
   34CHL1    C2 2489   0.426   2.302   6.911  0.0068 -0.5696 -0.6844
   34CHL1   H2A 2490   0.495   2.216   6.920 -0.9140 -1.1279  1.4810
   34CHL1   H2B 2491   0.464   2.385   6.847 -1.0793  0.9930  0.5974
   34CHL1   C20 2492   0.310   2.828   7.687 -0.4991 -0.3288  0.2361
   34CHL1   H20 2493   0.312   2.924   7.631 -1.2046 -0.9832 -0.9389
   34CHL1   C21 2494   0.454   2.778   7.716  0.0902  0.1318 -0.3972
   34CHL1  H21A 2495   0.488   2.812   7.816 -5.0741 -1.9287  2.4650
   34CHL1  H21B 2496   0.522   2.796   7.629  0.6028  1.6508  0.2918
   34CHL1  H21C 2497   0.440   2.669   7.732  2.6659  0.0050  1.6104
   34CHL1   C22 2498   0.225   2.848   7.815 -0.4355 -0.2111  0.1988
   34CHL1  H22A 2499   0.139   2.911   7.785 -0.1543  0.4847  0.8103
   34CHL1  H22B 2500   0.184   2.750   7.848 -0.2251 -0.9754 -1.7027
   34CHL1   C23 2501   0.287   2.929   7.929  0.0350  1.2308  0.1187
   34CHL1  H23A 2502   0.382   2.882   7.963 -0.4905  1.7440  2.4523
   34CHL1  H23B 2503   0.309   3.032   7.891  1.3527  0.9190 -0.0273
   34CHL1   C24 2504   0.207   2.934   8.057  0.0351 -0.2675  0.1889
   34CHL1  H24A 2505   0.121   3.004   8.058 -0.0778 -0.4013  1.6578
   34CHL1  H24B 2506   0.159   2.834   8.066 -0.6406 -0.1886 -2.0306
   34CHL1   C25 2507   0.279   2.951   8.195  0.2199  0.1745  0.1685
   34CHL1   H25 2508   0.361   2.875   8.192  3.0261  3.0155 -1.3800
   34CHL1   C26 2509   0.361   3.084   8.213  0.8081 -0.0516 -0.7522
   34CHL1  H26A 2510   0.437   3.055   8.289 -0.0550  0.6799  0.4296
   34CHL1  H26B 2511   0.406   3.116   8.116 -1.4798  2.3307 -1.1361
   34CHL1  H26C 2512   0.294   3.163   8.253  0.0274 -0.8975 -0.3661
   34CHL1   C27 2513   0.178   2.922   8.307  0.4768  0.5205 -0.2041
   34CHL1  H27A 2514   0.100   2.998   8.284 -0.4602 -0.4188 -0.1690
   34CHL1  H27B 2515   0.133   2.821   8.305 -0.2411  0.8429 -1.7467
   34CHL1  H27C 2516   0.232   2.942   8.402  0.1524  2.9657 -0.4656
   35CHL1    C3 2517   1.809   1.506   7.267  0.2286 -0.1342  1.3457
   35CHL1    H3 2518   1.719   1.446   7.291 -1.3244  1.6492  0.2149
   35CHL1    O3 2519   1.799   1.539   7.125  0.1801 -0.5135 -0.1614
   35CHL1   H3' 2520   1.864   1.609   7.112 -0.4984  0.4479  1.2738
   35CHL1    C4 2521   1.810   1.640   7.344 -1.1186  0.6659 -0.0152
   35CHL1   H4A 2522   1.911   1.683   7.323  0.6532 -3.1043 -0.0859
   35CHL1   H4B 2523   1.737   1.718   7.314  0.1492  2.0562  0.3928
   35CHL1    C5 2524   1.813   1.601   7.494 -1.1095 -0.5175 -0.4019
   35CHL1    C6 2525   1.719   1.652   7.573  0.0434 -0.1502 -0.0710
   35CHL1    H6 2526   1.638   1.716   7.535 -0.1086  0.2418  0.8638
   35CHL1    C7 2527   1.727   1.644   7.725  0.1019 -0.0480  0.2074
   35CHL1   H7A 2528   1.712   1.740   7.778 -2.2729 -1.1682  1.7159
   35CHL1   H7B 2529   1.648   1.569   7.748  0.4014 -0.4574 -0.0712
   35CHL1    C8 2530   1.865   1.587   7.770 -0.7152  0.4939 -0.2233
   35CHL1    H8 2531   1.939   1.668   7.757 -1.0264  1.2222  2.0565
   35CHL1   C14 2532   1.854   1.544   7.917 -0.7056  0.3885  0.1457
   35CHL1   H14 2533   1.791   1.453   7.911 -0.9129  0.5139  0.4144
   35CHL1   C15 2534   1.790   1.638   8.017 -0.1005 -0.2988  0.2959
   35CHL1  H15A 2535   1.826   1.743   8.010 -1.5035  0.1431 -0.7956
   35CHL1  H15B 2536   1.681   1.656   8.005 -0.0286  2.3511  2.6180
   35CHL1   C16 2537   1.824   1.570   8.150  0.4733 -0.6103  0.4224
   35CHL1  H16A 2538   1.876   1.649   8.209 -0.1574 -0.7155  1.1418
   35CHL1  H16B 2539   1.739   1.538   8.214  0.1220  0.3325  0.4322
   35CHL1   C17 2540   1.926   1.455   8.115 -0.3554 -0.3487 -0.2983
   35CHL1   H17 2541   1.865   1.362   8.112  0.2116 -0.7048 -1.4834
   35CHL1   C13 2542   1.983   1.486   7.983 -0.7610  0.3197  0.3994
   35CHL1   C18 2543   2.100   1.590   7.998  0.4291 -0.6462  0.2146
   35CHL1  H18A 2544   2.126   1.637   7.901  1.3449 -2.1939 -0.3295
   35CHL1  H18B 2545   2.066   1.675   8.061  2.2212 -2.0726  3.3538
   35CHL1  H18C 2546   2.194   1.552   8.045  1.1325 -0.5532 -1.0730
   35CHL1   C12 2547   2.031   1.368   7.901 -0.1445  0.4855  0.4401
   35CHL1  H12A 2548   2.134   1.332   7.923  0.4053  2.4164  1.2606
   35CHL1  H12B 2549   1.949   1.293   7.899 -0.4112  0.7810 -0.0088
   35CHL1   C11 2550   2.049   1.416   7.749 -0.0754  0.1209 -0.1272
   35CHL1  H11A 2551   2.143   1.475   7.745  0.6178 -0.9336  0.2117
   35CHL1  H11B 2552   2.074   1.330   7.683  0.4552 -1.2012  1.7017
   35CHL1    C9 2553   1.922   1.478   7.679  1.2634 -0.0743 -0.5842
   35CHL1    H9 2554   1.847   1.396   7.677  0.0802  0.9721 -0.1627
   35CHL1   C10 2555   1.939   1.517   7.537  0.2673  0.4533  0.4065
   35CHL1   C19 2556   2.069   1.604   7.521 -0.3041  0.2694 -1.3274
   35CHL1  H19A 2557   2.092   1.650   7.422  0.8038 -1.0852 -1.7243
   35CHL1  H19B 2558   2.085   1.683   7.598  2.5607 -0.2979 -1.2336
   35CHL1  H19C 2559   2.151   1.531   7.541  1.2134  2.0381 -0.7842
   35CHL1    C1 2560   1.941   1.394   7.438  0.0545 -0.0677 -0.5739
   35CHL1   H1A 2561   2.027   1.330   7.470 -1.0900 -1.7689 -0.7349
   35CHL1   H1B 2562   1.854   1.324   7.447  1.1617 -1.6311 -1.5142
   35CHL1    C2 2563   1.935   1.415   7.290  0.5053 -0.1237  0.0550
   35CHL1   H2A 2564   1.925   1.315   7.243  2.2098 -0.2222 -0.1884
   35CHL1   H2B 2565   2.029   1.457   7.249  0.1153  0.9221  0.2202
   35CHL1   C20 2566   2.014   1.427   8.237  0.0792 -0.3840 -0.4579
   35CHL1   H20 2567   2.080   1.514   8.259  0.2155 -0.6847  0.3726
   35CHL1   C21 2568   2.113   1.308   8.216  0.5002  0.7610  0.0275
   35CHL1  H21A 2569   2.066   1.210   8.191  3.1511 -0.7623  0.5994
   35CHL1  H21B 2570   2.180   1.288   8.303  0.4751 -0.8173 -0.2807
   35CHL1  H21C 2571   2.184   1.316   8.130  1.0504 -0.9623  0.2706
   35CHL1   C22 2572   1.932   1.410   8.366  0.5117 -0.8568 -0.4796
   35CHL1  H22A 2573   2.018   1.402   8.436  1.4532  0.5320 -1.4169
   35CHL1  H22B 2574   1.879   1.500   8.404  3.2273  0.2426  1.0230
   35CHL1   C23 2575   1.850   1.285   8.383 -0.4190 -0.0117  0.5017
   35CHL1  H23A 2576   1.776   1.274   8.301  1.4547 -0.5587 -1.1922
   35CHL1  H23B 2577   1.916   1.196   8.380  0.0169  0.2830  1.1034
   35CHL1   C24 2578   1.782   1.289   8.520 -0.1995 -0.4662  0.2503
   35CHL1  H24A 2579   1.858   1.300   8.600  0.0952  1.2183 -0.2407
   35CHL1  H24B 2580   1.721   1.381   8.529 -0.5075 -0.6459  0.0058
   35CHL1   C25 2581   1.697   1.164   8.548 -0.3794  0.2474 -0.0550
   35CHL1   H25 2582   1.747   1.067   8.526  1.1336  1.3620 -1.7413
   35CHL1   C26 2583   1.662   1.174   8.697  0.0442 -0.0880 -0.4909
   35CHL1  H26A 2584   1.626   1.275   8.728 -0.2700 -0.4863  0.4935
   35CHL1  H26B 2585   1.583   1.100   8.721  0.4977 -1.3280 -2.6190
   35CHL1  H26C 2586   1.762   1.161   8.742  0.4773 -4.3639 -2.2638
   35CHL1   C27 2587   1.570   1.174   8.469 -0.4591  0.0574 -0.8391
   35CHL1  H27A 2588   1.589   1.196   8.362 -1.1517  1.9625 -0.6075
   35CHL1  H27B 2589   1.496   1.238   8.521  0.8681  0.9296  0.0428
   35CHL1  H27C 2590   1.507   1.083   8.468 -2.5105  1.2872  2.0378
   36CHL1    C3 2591   3.824   2.572   7.149 -0.3844  0.5836 -0.4086
   36CHL1    H3 2592   3.900   2.491   7.142 -0.6796  0.1513  1.0204
   36CHL1    O3 2593   3.749   2.581   7.030  0.2303 -0.1628  0.7170
   36CHL1   H3' 2594   3.690   2.653   7.054  1.5000  0.9645  0.6309
   36CHL1    C4 2595   3.735   2.541   7.272 -1.0677 -0.1119 -0.3227
   36CHL1   H4A 2596   3.640   2.596   7.255 -1.4719 -0.6998  0.0334
   36CHL1   H4B 2597   3.699   2.438   7.255  1.4504 -0.7966 -2.1930
   36CHL1    C5 2598   3.794   2.557   7.409 -1.0550  0.2943  0.6788
   36CHL1    C6 2599   3.799   2.455   7.495  0.0573  0.0188 -0.1366
   36CHL1    H6 2600   3.759   2.357   7.465 -1.3599 -0.1771  2.1592
   36CHL1    C7 2601   3.861   2.463   7.626  0.0169  0.4825  0.0862
   36CHL1   H7A 2602   3.802   2.402   7.698 -0.1287 -2.4324 -2.3410
   36CHL1   H7B 2603   3.958   2.411   7.612 -1.1497 -2.1766  1.2577
   36CHL1    C8 2604   3.884   2.610   7.670 -0.3208  0.3458  0.1927
   36CHL1    H8 2605   3.782   2.648   7.690 -0.9784  0.6656 -3.1021
   36CHL1   C14 2606   3.978   2.613   7.795  0.0957 -0.8873  0.0880
   36CHL1   H14 2607   4.073   2.573   7.754 -0.7139 -0.0626 -2.8214
   36CHL1   C15 2608   3.943   2.522   7.913 -0.7698  0.6235  0.3228
   36CHL1  H15A 2609   3.835   2.516   7.936 -0.8590  0.7675 -0.0374
   36CHL1  H15B 2610   3.977   2.421   7.881 -0.3408  0.6119  0.8000
   36CHL1   C16 2611   4.021   2.581   8.033 -0.3791  0.9972  0.2453
   36CHL1  H16A 2612   3.941   2.593   8.109 -1.4321 -0.5272 -0.5407
   36CHL1  H16B 2613   4.086   2.499   8.070 -0.0561  1.6418  1.1379
   36CHL1   C17 2614   4.084   2.712   7.974  0.1248  0.4531 -0.2914
   36CHL1   H17 2615   4.184   2.680   7.936 -1.0257 -0.9103 -2.2977
   36CHL1   C13 2616   4.012   2.751   7.843 -0.0377 -0.0746 -0.5789
   36CHL1   C18 2617   3.884   2.830   7.886  0.8930 -0.1735  0.3237
   36CHL1  H18A 2618   3.906   2.938   7.901  1.4360 -0.2190 -0.1018
   36CHL1  H18B 2619   3.813   2.827   7.801 -0.8428  2.5992  1.5262
   36CHL1  H18C 2620   3.839   2.787   7.978 -0.8435 -2.1201 -1.3443
   36CHL1   C12 2621   4.091   2.823   7.730  0.4217 -0.0589 -0.6142
   36CHL1  H12A 2622   4.122   2.926   7.759  2.8209 -1.1828  1.1811
   36CHL1  H12B 2623   4.183   2.763   7.714  0.0177 -1.4980  1.8930
   36CHL1   C11 2624   4.000   2.831   7.607  0.1971 -0.2399 -0.1649
   36CHL1  H11A 2625   3.908   2.889   7.630 -0.1850 -1.6012  2.0957
   36CHL1  H11B 2626   4.061   2.875   7.525 -0.5583  0.8819 -0.1447
   36CHL1    C9 2627   3.952   2.695   7.563  0.6237  0.3401  0.0008
   36CHL1    H9 2628   4.049   2.644   7.545 -0.0986 -0.4414 -1.8695
   36CHL1   C10 2629   3.862   2.692   7.435 -0.4325 -0.1567 -0.7073
   36CHL1   C19 2630   3.753   2.810   7.452 -0.4288  0.0362  0.1245
   36CHL1  H19A 2631   3.683   2.789   7.536 -0.7908 -1.0607 -0.4441
   36CHL1  H19B 2632   3.803   2.910   7.455 -0.8745  0.2686 -0.0962
   36CHL1  H19C 2633   3.689   2.815   7.361 -1.8914  0.7351  1.1517
   36CHL1    C1 2634   3.952   2.733   7.314  0.0882  0.3495  0.8466
   36CHL1   H1A 2635   3.978   2.840   7.326  1.1314  0.2799 -0.5460
   36CHL1   H1B 2636   4.048   2.677   7.308 -0.9893 -1.4615 -0.3083
   36CHL1    C2 2637   3.891   2.714   7.167 -0.1456  0.6574 -0.4790
   36CHL1   H2A 2638   3.971   2.727   7.091  0.3715 -2.2988 -0.5772
   36CHL1   H2B 2639   3.818   2.796   7.153  1.2826  2.1668  0.5073
   36CHL1   C20 2640   4.107   2.808   8.087  0.4682 -0.1473  0.1629
   36CHL1   H20 2641   4.003   2.832   8.117 -0.3302 -0.5284 -2.1091
   36CHL1   C21 2642   4.173   2.940   8.034  0.3041 -0.6020 -0.2444
   36CHL1  H21A 2643   4.269   2.906   7.989  1.3414 -0.9266  2.0793
   36CHL1  H21B 2644   4.187   3.019   8.110  0.3888 -0.2187 -0.6528
   36CHL1  H21C 2645   4.107   2.980   7.955  0.9442 -0.3258 -0.6480
   36CHL1   C22 2646   4.191   2.732   8.199 -0.0472 -1.2012 -0.1000
   36CHL1  H22A 2647   4.178   2.625   8.227  1.2511 -1.8739 -1.8789
   36CHL1  H22B 2648   4.293   2.737   8.155  0.1064 -0.2492  0.3485
   36CHL1   C23 2649   4.190   2.816   8.334 -0.6375  0.4291  0.4582
   36CHL1  H23A 2650   4.204   2.926   8.322  2.7011  0.0124 -0.2314
   36CHL1  H23B 2651   4.101   2.790   8.395 -2.0679 -2.3257 -2.4670
   36CHL1   C24 2652   4.318   2.785   8.417 -0.1765  0.1641  0.8404
   36CHL1  H24A 2653   4.324   2.679   8.451  0.8234 -0.4480 -1.1046
   36CHL1  H24B 2654   4.409   2.798   8.356  0.6112  2.1156  2.3202
   36CHL1   C25 2655   4.351   2.876   8.539  0.0360 -0.1784  0.3413
   36CHL1   H25 2656   4.443   2.838   8.588  0.2324  0.9733  0.9029
   36CHL1   C26 2657   4.368   3.026   8.506  0.5105 -0.5753  0.0442
   36CHL1  H26A 2658   4.445   3.036   8.427 -2.6678  1.2698 -3.0648
   36CHL1  H26B 2659   4.271   3.070   8.476  0.5872 -1.2320 -1.2297
   36CHL1  H26C 2660   4.402   3.073   8.601 -1.8299  1.0041  0.1687
   36CHL1   C27 2661   4.247   2.852   8.651 -0.0503  0.0249 -0.5340
   36CHL1  H27A 2662   4.263   2.931   8.726 -0.9817  1.4217 -1.7512
   36CHL1  H27B 2663   4.143   2.857   8.611  0.1631  0.7532 -1.0176
   36CHL1  H27C 2664   4.252   2.751   8.698 -2.9150 -0.3283 -0.8147
   37CHL1    C3 2665   1.116   5.129   6.918  1.0193  0.2379 -0.4889
   37CHL1    H3 2666   1.190   5.212   6.923  3.1661 -1.6251  0.8497
   37CHL1    O3 2667   1.084   5.109   6.788 -0.1727 -0.2190  0.0176
   37CHL1   H3' 2668   1.168   5.098   6.743  0.4734  3.2475  0.1026
   37CHL1    C4 2669   1.180   5.010   6.972  0.2293 -0.5830 -0.4798
   37CHL1   H4A 2670   1.111   4.923   6.965  1.2919 -1.3744 -1.3964
   37CHL1   H4B 2671   1.276   4.987   6.921  0.4474 -0.8231  0.0305
   37CHL1    C5 2672   1.217   5.030   7.118 -0.1450 -0.7454 -0.2753
   37CHL1    C6 2673   1.344   5.030   7.159  0.3574  0.0140 -0.0074
   37CHL1    H6 2674   1.415   4.999   7.080 -0.1025 -1.3600  0.0950
   37CHL1    C7 2675   1.392   5.051   7.294  0.0379 -0.0158 -0.7111
   37CHL1   H7A 2676   1.468   4.976   7.326 -2.3104 -1.4360  2.0336
   37CHL1   H7B 2677   1.441   5.151   7.298  0.7374 -0.3955  0.9728
   37CHL1    C8 2678   1.275   5.055   7.394  0.6373  0.5609 -0.5731
   37CHL1    H8 2679   1.231   4.953   7.402 -1.2478  1.3631 -0.0889
   37CHL1   C14 2680   1.311   5.091   7.537 -0.8576  0.1473 -0.2178
   37CHL1   H14 2681   1.346   5.196   7.528 -1.7531  0.5542  0.7505
   37CHL1   C15 2682   1.419   4.996   7.609  0.2261 -0.9186  0.2365
   37CHL1  H15A 2683   1.391   4.890   7.593 -1.0884 -0.5815  0.1454
   37CHL1  H15B 2684   1.525   5.004   7.577 -0.1198 -0.2031 -0.7781
   37CHL1   C16 2685   1.396   5.036   7.753 -0.2389 -0.8704  0.1631
   37CHL1  H16A 2686   1.375   4.940   7.803 -0.5922 -2.2431 -2.4584
   37CHL1  H16B 2687   1.478   5.092   7.801 -0.6342 -0.9758  0.9706
   37CHL1   C17 2688   1.259   5.113   7.767  0.6606 -1.1384  0.7330
   37CHL1   H17 2689   1.283   5.222   7.760  1.7439 -1.4458 -1.3316
   37CHL1   C13 2690   1.186   5.096   7.632 -0.1911 -0.3620  0.4513
   37CHL1   C18 2691   1.108   4.967   7.638  0.0118 -0.2486 -0.5076
   37CHL1  H18A 2692   1.176   4.885   7.670 -0.1120  0.2874  1.2670
   37CHL1  H18B 2693   1.028   4.985   7.713  0.5543 -0.0450  0.0348
   37CHL1  H18C 2694   1.063   4.936   7.542 -2.3076  4.0492 -1.0470
   37CHL1   C12 2695   1.100   5.216   7.587  0.2196 -0.2694  0.1703
   37CHL1  H12A 2696   1.008   5.226   7.649 -0.0975  1.6472 -0.5305
   37CHL1  H12B 2697   1.171   5.301   7.584  0.6754 -0.3408  4.1229
   37CHL1   C11 2698   1.049   5.180   7.446 -0.1095 -0.4241  0.8870
   37CHL1  H11A 2699   0.966   5.109   7.465 -2.8402  2.7063  1.6289
   37CHL1  H11B 2700   0.991   5.271   7.419  1.0607  0.5271  1.4777
   37CHL1    C9 2701   1.160   5.142   7.344  0.7290 -0.2820  0.3311
   37CHL1    H9 2702   1.219   5.231   7.314  1.3620 -0.1128  1.9757
   37CHL1   C10 2703   1.101   5.087   7.205  0.0381  0.1184 -0.6551
   37CHL1   C19 2704   1.001   4.970   7.235  0.5060 -0.1866  0.6161
   37CHL1  H19A 2705   1.046   4.878   7.280 -0.0579 -0.4370  0.6782
   37CHL1  H19B 2706   0.914   5.000   7.296  0.9790  0.1708  1.1290
   37CHL1  H19C 2707   0.958   4.935   7.139 -0.3310  1.6970  0.2670
   37CHL1    C1 2708   1.023   5.206   7.141 -0.0232  0.4749 -0.0228
   37CHL1   H1A 2709   0.940   5.232   7.210 -0.9504 -4.1981  0.9933
   37CHL1   H1B 2710   1.104   5.282   7.132 -1.1680  1.6008 -1.2716
   37CHL1    C2 2711   0.990   5.179   6.995  0.3798 -0.1680 -0.6109
   37CHL1   H2A 2712   0.944   5.271   6.953 -0.3324 -0.3794 -0.3064
   37CHL1   H2B 2713   0.913   5.098   6.988 -0.2789  0.1900  1.6404
   37CHL1   C20 2714   1.189   5.088   7.895  0.0818 -0.0136 -0.0385
   37CHL1   H20 2715   1.137   4.990   7.888 -1.8306  1.0766 -1.9639
   37CHL1   C21 2716   1.077   5.196   7.917  0.4806 -0.1539 -0.6014
   37CHL1  H21A 2717   0.992   5.196   7.845 -1.0418  2.8636  1.0138
   37CHL1  H21B 2718   1.115   5.299   7.930  1.0900 -0.5794  1.3940
   37CHL1  H21C 2719   1.019   5.176   8.010 -1.8433  2.0071 -1.4479
   37CHL1   C22 2720   1.290   5.091   8.014  0.2622  0.0946 -0.3563
   37CHL1  H22A 2721   1.377   5.022   8.005  0.1671 -0.1020  0.2177
   37CHL1  H22B 2722   1.328   5.194   8.029 -1.5324  1.2634 -3.0041
   37CHL1   C23 2723   1.235   5.052   8.154 -0.2752 -0.8778  0.2186
   37CHL1  H23A 2724   1.146   5.114   8.174 -0.4206 -0.9800 -0.1038
   37CHL1  H23B 2725   1.193   4.949   8.146 -1.0764 -0.7470  2.2063
   37CHL1   C24 2726   1.347   5.072   8.268  0.1531 -0.4538  0.7666
   37CHL1  H24A 2727   1.427   5.001   8.239  0.6049 -0.4047  1.8511
   37CHL1  H24B 2728   1.381   5.177   8.253 -1.5262  0.1488  0.9543
   37CHL1   C25 2729   1.315   5.036   8.413 -0.3702 -0.2440  1.3007
   37CHL1   H25 2730   1.220   5.085   8.444 -1.6957 -1.1177 -1.0710
   37CHL1   C26 2731   1.284   4.890   8.419 -0.8184  0.1851  0.5693
   37CHL1  H26A 2732   1.200   4.866   8.350  0.1769 -0.8559 -0.3400
   37CHL1  H26B 2733   1.368   4.819   8.398 -0.8529 -0.3700  2.2021
   37CHL1  H26C 2734   1.251   4.864   8.522  0.3678 -1.8320  0.4924
   37CHL1   C27 2735   1.429   5.078   8.504 -0.1605  0.1569  0.6535
   37CHL1  H27A 2736   1.521   5.022   8.476  0.2478 -0.1839  2.4965
   37CHL1  H27B 2737   1.459   5.185   8.511  2.7399 -0.5785  1.0968
   37CHL1  H27C 2738   1.412   5.055   8.612 -0.4279 -0.5747  0.4601
   38CHL1    C3 2739   2.819   0.507   6.576 -0.5779 -0.0846  0.5213
   38CHL1    H3 2740   2.879   0.600   6.561  1.5267 -1.3816  0.4865
   38CHL1    O3 2741   2.786   0.462   6.446 -0.2623  0.7741 -0.4444
   38CHL1   H3' 2742   2.868   0.469   6.397  0.9683 -2.3210  0.9113
   38CHL1    C4 2743   2.915   0.410   6.637 -1.1151 -0.2849  0.6418
   38CHL1   H4A 2744   2.876   0.307   6.646  0.6682 -1.0884 -0.1974
   38CHL1   H4B 2745   3.003   0.396   6.570 -2.3124 -1.4464 -0.7625
   38CHL1    C5 2746   2.954   0.462   6.771  0.2237  0.2707 -0.9989
   38CHL1    C6 2747   3.076   0.489   6.800 -0.1851 -0.0827 -0.5436
   38CHL1    H6 2748   3.148   0.495   6.717 -1.3593  4.2228 -1.4785
   38CHL1    C7 2749   3.125   0.523   6.934  0.4838 -0.2163  0.2598
   38CHL1   H7A 2750   3.221   0.472   6.958  0.7608  0.2782  0.2145
   38CHL1   H7B 2751   3.150   0.630   6.946  0.9844 -0.3188  0.1268
   38CHL1    C8 2752   3.022   0.476   7.047  0.3661  0.2984 -0.1253
   38CHL1    H8 2753   3.019   0.365   7.044 -3.3004  0.2777 -1.6601
   38CHL1   C14 2754   3.056   0.529   7.191  0.0971  0.1826 -0.0689
   38CHL1   H14 2755   3.056   0.639   7.180  0.1950  0.2225  0.3104
   38CHL1   C15 2756   3.195   0.487   7.241 -0.3392 -0.3291 -0.6555
   38CHL1  H15A 2757   3.213   0.378   7.241 -0.9088 -0.4281 -0.9195
   38CHL1  H15B 2758   3.281   0.534   7.189  0.5338  3.3491  3.4869
   38CHL1   C16 2759   3.196   0.521   7.389  0.4835 -0.0337  0.3402
   38CHL1  H16A 2760   3.229   0.436   7.453  0.8964 -0.7557 -0.7931
   38CHL1  H16B 2761   3.263   0.609   7.393 -0.0205  0.2950  1.9882
   38CHL1   C17 2762   3.041   0.547   7.427 -0.0460  0.0605  0.2487
   38CHL1   H17 2763   3.036   0.658   7.429  2.0074  0.2539 -1.7620
   38CHL1   C13 2764   2.961   0.488   7.305  0.4566 -0.4418 -0.5660
   38CHL1   C18 2765   2.949   0.337   7.316  0.1733  0.2149  1.0276
   38CHL1  H18A 2766   2.917   0.296   7.218  1.8076  1.2086  0.0373
   38CHL1  H18B 2767   3.049   0.293   7.336 -0.1145 -0.4540  1.0296
   38CHL1  H18C 2768   2.876   0.300   7.392  0.7814  1.1213  2.0927
   38CHL1   C12 2769   2.821   0.552   7.271 -0.3882 -0.0201  0.1377
   38CHL1  H12A 2770   2.748   0.515   7.346 -0.5512  0.5055  0.2437
   38CHL1  H12B 2771   2.831   0.662   7.283  1.8005  0.0428 -1.6401
   38CHL1   C11 2772   2.770   0.520   7.126 -0.4282  1.0914 -0.8812
   38CHL1  H11A 2773   2.725   0.419   7.133 -0.1878  0.7219 -3.7016
   38CHL1  H11B 2774   2.690   0.596   7.106 -2.1991 -0.2313  0.7602
   38CHL1    C9 2775   2.882   0.529   7.008  0.3105  0.1322  0.4186
   38CHL1    H9 2776   2.898   0.637   6.990 -2.0333  0.5244  0.3592
   38CHL1   C10 2777   2.844   0.463   6.877  0.1583 -0.0230  0.2557
   38CHL1   C19 2778   2.797   0.322   6.898 -0.3489 -0.1095  0.0832
   38CHL1  H19A 2779   2.769   0.273   6.803  0.7934  0.1313 -0.3950
   38CHL1  H19B 2780   2.877   0.267   6.951  0.7965  0.1495 -1.3166
   38CHL1  H19C 2781   2.704   0.320   6.959  0.1671 -0.0095  0.9001
   38CHL1    C1 2782   2.725   0.554   6.818  0.0667 -0.1914  0.1715
   38CHL1   H1A 2783   2.631   0.563   6.876 -0.1134  1.2319 -0.3145
   38CHL1   H1B 2784   2.766   0.657   6.819  0.3875 -0.3209  0.8143
   38CHL1    C2 2785   2.693   0.506   6.671 -0.3514  0.0714 -0.5885
   38CHL1   H2A 2786   2.615   0.575   6.632  0.3109  2.1601  1.5234
   38CHL1   H2B 2787   2.638   0.410   6.670  1.2483 -0.8863 -2.1748
   38CHL1   C20 2788   3.004   0.510   7.581  0.1991 -0.1684  0.2883
   38CHL1   H20 2789   3.041   0.406   7.592  1.3307  0.1921  0.0546
   38CHL1   C21 2790   2.858   0.510   7.611  0.8583 -0.8061  0.4272
   38CHL1  H21A 2791   2.815   0.609   7.586  2.1807 -0.1758  0.5328
   38CHL1  H21B 2792   2.836   0.503   7.720 -1.7304  2.6159  0.2820
   38CHL1  H21C 2793   2.798   0.444   7.546 -0.1459 -0.7331  1.2527
   38CHL1   C22 2794   3.087   0.606   7.678 -0.0052 -0.6207 -0.9533
   38CHL1  H22A 2795   3.170   0.654   7.623 -0.1411  4.1760  2.4007
   38CHL1  H22B 2796   3.023   0.691   7.709  1.5534  0.1184  0.3445
   38CHL1   C23 2797   3.122   0.537   7.812 -0.4606 -0.1153  0.0327
   38CHL1  H23A 2798   3.029   0.490   7.851 -0.4081  1.3984  2.0955
   38CHL1  H23B 2799   3.204   0.465   7.787  0.8070  0.9725  0.9395
   38CHL1   C24 2800   3.175   0.619   7.927 -0.0477 -0.5366 -0.5075
   38CHL1  H24A 2801   3.087   0.682   7.951 -0.2990 -0.5364 -1.3985
   38CHL1  H24B 2802   3.201   0.560   8.017 -0.2675 -1.5153 -1.0751
   38CHL1   C25 2803   3.297   0.715   7.900  0.0196 -0.6390  0.5136
   38CHL1   H25 2804   3.293   0.748   7.794 -1.4033 -0.4621  0.5953
   38CHL1   C26 2805   3.265   0.842   7.981 -0.2544 -0.2200 -0.4745
   38CHL1  H26A 2806   3.357   0.904   7.973  0.0716 -0.8583 -2.3096
   38CHL1  H26B 2807   3.174   0.897   7.951 -1.2557 -2.4177 -1.7272
   38CHL1  H26C 2808   3.254   0.829   8.090  0.5406 -0.0175 -0.3641
   38CHL1   C27 2809   3.435   0.659   7.940 -0.0877  0.5511 -0.3434
   38CHL1  H27A 2810   3.456   0.557   7.902  2.7072  0.3674  1.4309
   38CHL1  H27B 2811   3.507   0.729   7.893  0.8848 -1.1234 -1.4073
   38CHL1  H27C 2812   3.438   0.663   8.051 -0.9377  3.3460 -0.3425
   39CHL1    C3 2813   3.062   5.481   6.849  0.1265  0.2246 -0.4141
   39CHL1    H3 2814   2.968   5.526   6.885  1.0015  0.1537  2.1262
   39CHL1    O3 2815   3.070   5.536   6.710  0.5689 -0.2904  0.4679
   39CHL1   H3' 2816   3.134   5.478   6.668 -1.3004 -1.4579 -0.9187
   39CHL1    C4 2817   3.186   5.529   6.925 -0.3476 -0.7023 -0.1180
   39CHL1   H4A 2818   3.275   5.494   6.869 -0.3273  0.3665 -0.7855
   39CHL1   H4B 2819   3.185   5.640   6.915 -2.9370 -0.5966  0.6332
   39CHL1    C5 2820   3.177   5.467   7.060  0.0747  0.0959 -0.0799
   39CHL1    C6 2821   3.164   5.557   7.162 -0.2291  0.6820 -0.6186
   39CHL1    H6 2822   3.158   5.665   7.139 -1.1308  1.0078  0.9837
   39CHL1    C7 2823   3.153   5.517   7.303  0.5026 -0.4957  0.3377
   39CHL1   H7A 2824   3.196   5.594   7.371 -2.2937 -0.6808  2.5349
   39CHL1   H7B 2825   3.045   5.507   7.327 -0.3595  2.9213 -1.4480
   39CHL1    C8 2826   3.198   5.373   7.328  0.2365 -0.2400  0.0930
   39CHL1    H8 2827   3.308   5.371   7.312  0.0756 -2.4263 -1.2020
   39CHL1   C14 2828   3.146   5.326   7.466  0.2753 -0.4671 -0.1546
   39CHL1   H14 2829   3.036   5.312   7.462  0.3709 -1.0941 -3.1948
   39CHL1   C15 2830   3.177   5.422   7.579  0.0684  0.6689  0.1687
   39CHL1  H15A 2831   3.263   5.489   7.560  1.3966 -0.6630  1.2121
   39CHL1  H15B 2832   3.095   5.496   7.588 -1.0947 -0.5954  0.2674
   39CHL1   C16 2833   3.197   5.334   7.704  0.8493 -0.1802 -0.1489
   39CHL1  H16A 2834   3.303   5.347   7.735  0.1296 -0.3791  2.6405
   39CHL1  H16B 2835   3.139   5.365   7.793  1.5715  3.9964 -0.8918
   39CHL1   C17 2836   3.158   5.183   7.657  0.1634 -0.3757  0.3679
   39CHL1   H17 2837   3.048   5.168   7.660  0.2345 -0.6864  1.5225
   39CHL1   C13 2838   3.200   5.192   7.509  0.5737  0.7643  0.2806
   39CHL1   C18 2839   3.355   5.189   7.500  0.1903 -0.3380 -0.4337
   39CHL1  H18A 2840   3.376   5.211   7.394 -3.2354 -1.3422 -1.4610
   39CHL1  H18B 2841   3.403   5.270   7.559  0.2746 -0.8512  0.2175
   39CHL1  H18C 2842   3.403   5.093   7.528 -0.0864 -0.3397  0.0509
   39CHL1   C12 2843   3.136   5.084   7.409 -0.1795 -0.4699  1.2263
   39CHL1  H12A 2844   3.179   4.986   7.439  2.7095 -0.1618 -1.3709
   39CHL1  H12B 2845   3.028   5.102   7.429 -0.2316  0.3248  0.3228
   39CHL1   C11 2846   3.167   5.131   7.264 -0.7149  0.2138  0.2536
   39CHL1  H11A 2847   3.272   5.106   7.241 -1.3473 -3.0228  0.3870
   39CHL1  H11B 2848   3.109   5.076   7.187 -0.2339  2.9418 -2.2762
   39CHL1    C9 2849   3.140   5.273   7.222  0.1104 -0.5746 -0.3193
   39CHL1    H9 2850   3.030   5.284   7.233  0.1955  0.8903 -0.7941
   39CHL1   C10 2851   3.171   5.312   7.078  0.7913  0.1112  0.6537
   39CHL1   C19 2852   3.309   5.264   7.035  0.2746  0.2496 -0.4853
   39CHL1  H19A 2853   3.385   5.287   7.113 -1.3231  1.2628  0.8477
   39CHL1  H19B 2854   3.314   5.154   7.019 -0.8999  0.0441  0.4501
   39CHL1  H19C 2855   3.346   5.320   6.947 -0.0751 -1.9346 -2.0811
   39CHL1    C1 2856   3.047   5.266   6.981  0.0791 -0.1911  0.2497
   39CHL1   H1A 2857   3.047   5.156   6.971  0.5758 -0.2066  0.3779
   39CHL1   H1B 2858   2.946   5.288   7.022 -1.3422 -1.5135 -2.2846
   39CHL1    C2 2859   3.053   5.324   6.841  0.1128  0.1507  0.4407
   39CHL1   H2A 2860   2.977   5.290   6.768 -0.4140 -1.3841  1.6536
   39CHL1   H2B 2861   3.152   5.293   6.802  0.4468 -1.3630  2.3606
   39CHL1   C20 2862   3.219   5.085   7.745  0.1377  0.1394 -0.1008
   39CHL1   H20 2863   3.328   5.102   7.756 -0.1430  1.7437  0.6098
   39CHL1   C21 2864   3.199   4.940   7.702  0.5630  0.1508  0.2030
   39CHL1  H21A 2865   3.090   4.924   7.693  0.4370  0.0608  1.6424
   39CHL1  H21B 2866   3.238   4.870   7.779 -1.2257 -1.6705 -0.4869
   39CHL1  H21C 2867   3.268   4.925   7.616 -0.1209  2.8638 -0.9299
   39CHL1   C22 2868   3.187   5.096   7.895 -0.2385 -1.1770 -0.1186
   39CHL1  H22A 2869   3.186   5.202   7.927 -0.6307 -1.2748  0.1883
   39CHL1  H22B 2870   3.083   5.064   7.917 -0.0723 -1.1139  0.7886
   39CHL1   C23 2871   3.279   5.024   7.997  0.8030 -0.0430 -0.6642
   39CHL1  H23A 2872   3.223   4.928   8.006 -1.7287  1.2613 -1.3854
   39CHL1  H23B 2873   3.380   4.999   7.958  1.8363  0.6677  1.4306
   39CHL1   C24 2874   3.286   5.084   8.137  0.2537 -0.7440  0.3817
   39CHL1  H24A 2875   3.189   5.124   8.172  0.8078  0.7917  0.2660
   39CHL1  H24B 2876   3.327   5.019   8.218 -3.1427 -2.1165  1.1390
   39CHL1   C25 2877   3.371   5.213   8.135 -0.5477 -0.3533  0.5998
   39CHL1   H25 2878   3.355   5.280   8.047  0.1003  1.5455  1.8731
   39CHL1   C26 2879   3.358   5.291   8.265  0.4498 -0.2285 -0.7122
   39CHL1  H26A 2880   3.434   5.372   8.274  1.4748 -1.1564 -0.8271
   39CHL1  H26B 2881   3.259   5.333   8.294  0.8618 -0.1910  0.7091
   39CHL1  H26C 2882   3.380   5.224   8.351  0.7956  2.1856  1.1725
   39CHL1   C27 2883   3.518   5.186   8.111 -0.4054  0.1688  0.3023
   39CHL1  H27A 2884   3.588   5.270   8.128  1.4310 -0.8423 -1.8418
   39CHL1  H27B 2885   3.548   5.097   8.170 -0.9289 -0.3589 -0.2155
   39CHL1  H27C 2886   3.539   5.152   8.007 -2.3310  1.0079 -0.4102
   40CHL1    C3 2887   6.477   3.504   6.943 -0.5274 -0.2501  0.3036
   40CHL1    H3 2888   6.573   3.464   6.984  0.5688  1.9560  0.0253
   40CHL1    O3 2889   6.479   3.484   6.801  0.6771  0.2006  0.2554
   40CHL1   H3' 2890   6.404   3.427   6.783 -0.1771  1.3110  0.2133
   40CHL1    C4 2891   6.350   3.421   6.997  0.0308 -0.9581  0.4511
   40CHL1   H4A 2892   6.256   3.443   6.942  1.0154 -0.6509 -1.1876
   40CHL1   H4B 2893   6.352   3.317   6.958 -0.9284 -0.7866 -0.0661
   40CHL1    C5 2894   6.329   3.436   7.145 -0.3657  0.0530 -0.3565
   40CHL1    C6 2895   6.323   3.324   7.220  0.0846 -0.5385  0.3698
   40CHL1    H6 2896   6.339   3.230   7.164  0.8417 -0.0418 -0.2742
   40CHL1    C7 2897   6.309   3.328   7.370 -0.4490  0.1606  0.1500
   40CHL1   H7A 2898   6.233   3.251   7.396 -0.9694  0.5355 -0.2434
   40CHL1   H7B 2899   6.410   3.311   7.412 -0.5317  1.4592  0.9166
   40CHL1    C8 2900   6.263   3.463   7.423  0.0168 -0.0011 -0.1122
   40CHL1    H8 2901   6.156   3.477   7.395  0.3648 -0.8367 -2.0212
   40CHL1   C14 2902   6.291   3.481   7.575 -0.1236 -0.8653  0.3335
   40CHL1   H14 2903   6.400   3.464   7.587 -0.1662 -0.6727  1.0903
   40CHL1   C15 2904   6.230   3.368   7.656 -0.2146  0.2664  0.5402
   40CHL1  H15A 2905   6.123   3.352   7.628 -0.0298  0.0217 -0.0627
   40CHL1  H15B 2906   6.278   3.271   7.633 -1.4567 -0.0216 -1.0823
   40CHL1   C16 2907   6.239   3.419   7.792 -0.0190 -0.9006 -0.0805
   40CHL1  H16A 2908   6.156   3.403   7.865  0.0320  0.4306  0.3070
   40CHL1  H16B 2909   6.325   3.361   7.831 -0.3612 -0.5638  1.2459
   40CHL1   C17 2910   6.279   3.571   7.781  0.3933  1.2480  0.3946
   40CHL1   H17 2911   6.390   3.568   7.783  0.4364  0.5917 -1.1940
   40CHL1   C13 2912   6.250   3.611   7.641 -0.5466 -0.0650  0.9982
   40CHL1   C18 2913   6.099   3.631   7.629 -0.1095  0.1668 -0.7278
   40CHL1  H18A 2914   6.051   3.608   7.532  0.5053 -3.4748 -0.2854
   40CHL1  H18B 2915   6.049   3.576   7.711 -1.7542  0.3514 -1.5617
   40CHL1  H18C 2916   6.078   3.740   7.642 -0.4721 -0.1856  2.3771
   40CHL1   C12 2917   6.333   3.728   7.573  0.5470 -0.4936  0.3879
   40CHL1  H12A 2918   6.307   3.822   7.626 -0.4465  0.3184 -1.4456
   40CHL1  H12B 2919   6.440   3.700   7.581  0.6026 -0.5897 -0.5864
   40CHL1   C11 2920   6.305   3.720   7.424 -0.1130  0.1687  0.0252
   40CHL1  H11A 2921   6.198   3.737   7.398  0.2289  2.1006 -0.2663
   40CHL1  H11B 2922   6.349   3.805   7.369  0.0048  0.5323  0.6711
   40CHL1    C9 2923   6.339   3.578   7.361 -0.7728  0.6801  0.5337
   40CHL1    H9 2924   6.441   3.562   7.402 -1.5881  0.4622  2.6480
   40CHL1   C10 2925   6.339   3.581   7.205  0.1560  0.3479  0.6263
   40CHL1   C19 2926   6.211   3.656   7.154  0.2688 -0.3428  0.4524
   40CHL1  H19A 2927   6.206   3.760   7.193  2.1545 -0.6462  1.6254
   40CHL1  H19B 2928   6.197   3.647   7.044  1.5359 -2.9803  0.4188
   40CHL1  H19C 2929   6.115   3.613   7.188 -1.1929  1.2185 -1.4778
   40CHL1    C1 2930   6.459   3.653   7.140 -0.8769 -0.5534  0.4594
   40CHL1   H1A 2931   6.457   3.759   7.174  3.4239  0.0201 -0.5681
   40CHL1   H1B 2932   6.548   3.604   7.185 -0.7095 -1.6939 -1.0732
   40CHL1    C2 2933   6.470   3.651   6.986  0.0187 -0.0005  0.3072
   40CHL1   H2A 2934   6.570   3.691   6.959  0.4332 -1.9713 -1.3087
   40CHL1   H2B 2935   6.380   3.702   6.944 -1.4316 -1.1009  1.9391
   40CHL1   C20 2936   6.233   3.654   7.906  0.5883  0.7059 -0.2378
   40CHL1   H20 2937   6.122   3.642   7.915  0.2006  3.3218 -0.8882
   40CHL1   C21 2938   6.254   3.809   7.890  0.1357  0.4950  0.1180
   40CHL1  H21A 2939   6.191   3.845   7.806 -0.1976  2.9863  1.3270
   40CHL1  H21B 2940   6.363   3.828   7.881  0.0544  0.8022 -0.2458
   40CHL1  H21C 2941   6.217   3.863   7.981  0.2686  1.7945 -0.5758
   40CHL1   C22 2942   6.299   3.595   8.032 -0.7245  0.3600 -0.0651
   40CHL1  H22A 2943   6.280   3.485   8.042  1.2093  0.0848  1.2380
   40CHL1  H22B 2944   6.408   3.596   8.009 -0.8193 -2.0815 -0.9496
   40CHL1   C23 2945   6.270   3.664   8.161  0.6399  0.2389 -0.4033
   40CHL1  H23A 2946   6.296   3.771   8.149 -2.6159  1.1704 -0.1436
   40CHL1  H23B 2947   6.161   3.651   8.180  1.1464 -0.1104  2.8564
   40CHL1   C24 2948   6.338   3.610   8.282 -0.2687  0.4540  0.7033
   40CHL1  H24A 2949   6.316   3.502   8.283 -1.1100  0.6055  2.3289
   40CHL1  H24B 2950   6.448   3.618   8.268 -0.3177 -0.8340 -0.6025
   40CHL1   C25 2951   6.311   3.675   8.421  0.0573 -0.4531 -0.3340
   40CHL1   H25 2952   6.354   3.777   8.421  0.6004 -0.6763 -0.0093
   40CHL1   C26 2953   6.159   3.668   8.451 -0.5012 -0.0820  0.1044
   40CHL1  H26A 2954   6.122   3.564   8.434 -0.4696  0.0372 -0.7358
   40CHL1  H26B 2955   6.145   3.689   8.559 -0.7384 -1.1787  0.2962
   40CHL1  H26C 2956   6.104   3.737   8.384 -2.1395 -2.1757 -0.8280
   40CHL1   C27 2957   6.389   3.597   8.533  0.5457 -0.0208  0.4878
   40CHL1  H27A 2958   6.377   3.667   8.619 -3.8856 -0.5475  0.5151
   40CHL1  H27B 2959   6.336   3.503   8.560 -1.6183  1.1287  0.4814
   40CHL1  H27C 2960   6.494   3.566   8.517 -0.2176 -4.0422  1.8322
   41CHL1    C3 2961   6.335   5.440   6.958 -0.6754  0.3462  0.0047
   41CHL1    H3 2962   6.256   5.517   6.952 -0.8706  0.0165 -2.8432
   41CHL1    O3 2963   6.335   5.388   6.824  0.4239  0.1195  0.4782
   41CHL1   H3' 2964   6.411   5.330   6.826  1.4131  1.3761  1.0708
   41CHL1    C4 2965   6.474   5.490   6.995 -0.4291  0.2882 -0.3785
   41CHL1   H4A 2966   6.552   5.418   6.962 -0.6236  0.5190 -1.3984
   41CHL1   H4B 2967   6.487   5.577   6.927 -0.5385 -0.1513 -0.9697
   41CHL1    C5 2968   6.474   5.537   7.138 -0.1329 -0.1160  0.2679
   41CHL1    C6 2969   6.505   5.659   7.180  0.2637  0.1096  0.0910
   41CHL1    H6 2970   6.544   5.736   7.112 -0.5103 -0.0353 -0.5234
   41CHL1    C7 2971   6.515   5.696   7.319 -0.1121 -0.0228  0.5622
   41CHL1   H7A 2972   6.605   5.758   7.334  0.5587 -0.4161 -1.5688
   41CHL1   H7B 2973   6.426   5.755   7.349  0.7484  0.1295  3.0310
   41CHL1    C8 2974   6.518   5.577   7.417 -0.0604 -0.7582 -0.0890
   41CHL1    H8 2975   6.621   5.536   7.412  0.6041  0.8179 -0.0261
   41CHL1   C14 2976   6.496   5.625   7.564  0.1223  0.8506  0.1675
   41CHL1   H14 2977   6.396   5.672   7.570  0.3904  1.2883  1.4679
   41CHL1   C15 2978   6.582   5.738   7.614 -0.1968 -1.0801 -0.4550
   41CHL1  H15A 2979   6.689   5.718   7.591  0.0219  1.1257 -1.5984
   41CHL1  H15B 2980   6.567   5.842   7.579  3.1438 -0.2398  0.2220
   41CHL1   C16 2981   6.559   5.740   7.766 -0.0560  0.3377 -0.1553
   41CHL1  H16A 2982   6.657   5.732   7.819 -0.8552  2.4178  1.7934
   41CHL1  H16B 2983   6.501   5.826   7.803  0.2600  0.3065  0.4288
   41CHL1   C17 2984   6.476   5.611   7.787  0.3185 -0.3007 -0.2248
   41CHL1   H17 2985   6.373   5.655   7.784 -0.0905 -0.6826  3.3748
   41CHL1   C13 2986   6.501   5.515   7.667 -0.0980  0.3927 -0.0340
   41CHL1   C18 2987   6.644   5.456   7.685  0.3138 -0.1504  0.6570
   41CHL1  H18A 2988   6.691   5.400   7.601  3.6154  1.9229  0.9616
   41CHL1  H18B 2989   6.715   5.537   7.713 -0.5332  1.2832 -1.1230
   41CHL1  H18C 2990   6.642   5.395   7.777 -2.4290  0.3704  1.0409
   41CHL1   C12 2991   6.395   5.405   7.635 -0.2277 -0.4390 -0.2785
   41CHL1  H12A 2992   6.405   5.317   7.703  1.3970 -0.0687 -0.0119
   41CHL1  H12B 2993   6.292   5.447   7.639  0.2864  0.9081 -0.7997
   41CHL1   C11 2994   6.416   5.358   7.493  0.3428 -0.5350 -0.5513
   41CHL1  H11A 2995   6.505   5.293   7.484  0.9976  0.4739 -1.8019
   41CHL1  H11B 2996   6.330   5.292   7.468 -0.9279 -0.3166  2.7814
   41CHL1    C9 2997   6.418   5.470   7.383  0.1610  0.1586  0.0972
   41CHL1    H9 2998   6.317   5.516   7.389  0.5674  0.9581  1.0862
   41CHL1   C10 2999   6.434   5.420   7.236  0.9946  0.0278  0.0753
   41CHL1   C19 3000   6.535   5.297   7.237  0.6603  0.2498  0.6748
   41CHL1  H19A 3001   6.640   5.334   7.249  0.5902  0.4994  0.5404
   41CHL1  H19B 3002   6.513   5.206   7.296 -2.6167 -1.2447 -2.4992
   41CHL1  H19C 3003   6.546   5.259   7.133  2.9138 -0.0274  0.9523
   41CHL1    C1 3004   6.294   5.368   7.201  0.1236 -0.3753 -0.0288
   41CHL1   H1A 3005   6.277   5.277   7.262  0.4209 -0.1507  0.3890
   41CHL1   H1B 3006   6.210   5.437   7.224 -1.1912 -2.4922  2.0415
   41CHL1    C2 3007   6.293   5.328   7.049  0.2793 -0.5744 -0.4771
   41CHL1   H2A 3008   6.190   5.304   7.013  0.7521 -0.2308 -2.1170
   41CHL1   H2B 3009   6.358   5.240   7.037 -0.0270 -1.4318  3.0823
   41CHL1   C20 3010   6.488   5.559   7.931 -0.7889  0.1545  0.6734
   41CHL1   H20 3011   6.596   5.541   7.950 -0.3768  2.4977  0.8714
   41CHL1   C21 3012   6.400   5.432   7.950 -0.7316 -0.8687  0.3563
   41CHL1  H21A 3013   6.298   5.444   7.908 -1.3260  3.1942  2.4763
   41CHL1  H21B 3014   6.381   5.422   8.059  0.7630  1.0620  0.8512
   41CHL1  H21C 3015   6.442   5.335   7.916 -2.1115 -0.6201 -2.3442
   41CHL1   C22 3016   6.465   5.673   8.032  0.1072  0.9059 -0.6826
   41CHL1  H22A 3017   6.488   5.638   8.135 -0.0237 -1.4418 -1.3807
   41CHL1  H22B 3018   6.525   5.763   8.008  0.9288  0.4155 -0.5030
   41CHL1   C23 3019   6.316   5.724   8.039  0.2830 -0.5026  0.2977
   41CHL1  H23A 3020   6.290   5.757   7.936 -0.8249 -0.2339  0.6585
   41CHL1  H23B 3021   6.255   5.633   8.053  1.2362 -1.5398 -1.8070
   41CHL1   C24 3022   6.301   5.827   8.150  0.4566 -0.2350 -0.9377
   41CHL1  H24A 3023   6.341   5.794   8.248 -0.1663  0.8711 -0.2950
   41CHL1  H24B 3024   6.362   5.916   8.120 -0.1720  1.0001  1.2137
   41CHL1   C25 3025   6.156   5.881   8.174 -0.8789  0.6543 -0.4607
   41CHL1   H25 3026   6.138   5.927   8.075  2.4983 -1.2924 -2.1597
   41CHL1   C26 3027   6.059   5.771   8.209 -0.5058  0.5282 -0.1598
   41CHL1  H26A 3028   6.080   5.721   8.306 -1.6042  1.5024  0.6174
   41CHL1  H26B 3029   5.955   5.803   8.234 -1.0599 -1.6776  0.5746
   41CHL1  H26C 3030   6.058   5.703   8.122  0.0560 -1.8409  1.5824
   41CHL1   C27 3031   6.156   5.986   8.284  0.7478  0.6000 -0.5724
   41CHL1  H27A 3032   6.161   5.929   8.379 -2.0924  0.7330 -0.2594
   41CHL1  H27B 3033   6.233   6.066   8.281  0.5577  0.8696  0.8956
   41CHL1  H27C 3034   6.066   6.051   8.277  0.9582  1.1621  1.3516
   42CHL1    C3 3035   5.550   0.338   6.824 -0.3313 -0.1156  0.0824
   42CHL1    H3 3036   5.629   0.413   6.843 -1.6286  0.6529  3.2376
   42CHL1    O3 3037   5.578   0.310   6.686  0.4986  0.3899 -0.2870
   42CHL1   H3' 3038   5.504   0.255   6.660  1.3510 -2.9231  3.3869
   42CHL1    C4 3039   5.578   0.214   6.911 -0.0853 -0.2932  0.2316
   42CHL1   H4A 3040   5.516   0.130   6.872 -1.9491  1.0880  0.0979
   42CHL1   H4B 3041   5.686   0.189   6.901  1.0774  3.4365  1.7286
   42CHL1    C5 3042   5.554   0.238   7.058 -0.3523 -0.0098 -0.2055
   42CHL1    C6 3043   5.643   0.205   7.153  0.3396 -0.1509 -0.2185
   42CHL1    H6 3044   5.742   0.169   7.121  1.5427  1.3326  1.5802
   42CHL1    C7 3045   5.620   0.200   7.300  0.2396 -0.2296 -0.0601
   42CHL1   H7A 3046   5.663   0.106   7.341  0.5665 -0.4346 -0.8452
   42CHL1   H7B 3047   5.677   0.282   7.349 -1.0608 -0.7644  2.4731
   42CHL1    C8 3048   5.481   0.229   7.334  0.2110  0.1221  0.1125
   42CHL1    H8 3049   5.418   0.138   7.331 -0.4640  0.5451  0.9296
   42CHL1   C14 3050   5.470   0.288   7.470 -0.2376  0.0358 -0.1945
   42CHL1   H14 3051   5.509   0.391   7.457  0.7036 -0.1066  1.3330
   42CHL1   C15 3052   5.558   0.220   7.576 -0.4007  0.4198  0.6964
   42CHL1  H15A 3053   5.548   0.112   7.550  3.5068  0.2201 -0.8044
   42CHL1  H15B 3054   5.664   0.253   7.573 -0.5833  0.9582 -0.2657
   42CHL1   C16 3055   5.484   0.249   7.699  0.7871 -0.6626 -0.4289
   42CHL1  H16A 3056   5.449   0.157   7.751  0.7065  0.7937  2.2444
   42CHL1  H16B 3057   5.547   0.309   7.767 -1.4776  1.6135 -0.1825
   42CHL1   C17 3058   5.363   0.340   7.663  0.0978 -0.0178 -0.2289
   42CHL1   H17 3059   5.399   0.445   7.650 -2.1283  0.5671 -2.6078
   42CHL1   C13 3060   5.328   0.301   7.520 -0.1516 -0.8791 -0.3416
   42CHL1   C18 3061   5.242   0.173   7.521 -0.2666 -0.2036  0.3284
   42CHL1  H18A 3062   5.298   0.092   7.573 -0.1808  0.6119  1.5617
   42CHL1  H18B 3063   5.151   0.175   7.584 -0.1607  0.3964  0.4695
   42CHL1  H18C 3064   5.211   0.140   7.420 -1.2546  0.6016  0.3575
   42CHL1   C12 3065   5.266   0.404   7.428  0.3305 -0.6589  0.2644
   42CHL1  H12A 3066   5.161   0.418   7.463  1.0001 -1.4038  2.8350
   42CHL1  H12B 3067   5.307   0.505   7.445  0.6285 -0.8297  0.5800
   42CHL1   C11 3068   5.266   0.364   7.284 -0.2901 -0.3826  0.0386
   42CHL1  H11A 3069   5.193   0.282   7.273 -0.5460  0.1385 -2.8741
   42CHL1  H11B 3070   5.219   0.444   7.223  0.4532 -0.0815 -0.1538
   42CHL1    C9 3071   5.410   0.330   7.236 -0.4548  0.6925 -0.0241
   42CHL1    H9 3072   5.470   0.423   7.242 -0.7979  0.8130  2.0376
   42CHL1   C10 3073   5.415   0.289   7.089  0.2027 -1.4185 -0.0375
   42CHL1   C19 3074   5.315   0.181   7.056  0.0773 -0.4750 -0.0077
   42CHL1  H19A 3075   5.322   0.151   6.950  0.7405 -1.9257  0.4215
   42CHL1  H19B 3076   5.345   0.093   7.118  0.1399  1.1480  2.3995
   42CHL1  H19C 3077   5.210   0.208   7.082 -0.5818 -1.3018 -1.6833
   42CHL1    C1 3078   5.389   0.421   6.995 -0.3653 -0.9632 -0.0743
   42CHL1   H1A 3079   5.285   0.459   7.009 -0.6356 -1.8688  0.5002
   42CHL1   H1B 3080   5.450   0.508   7.027 -1.8719  1.1666 -2.5097
   42CHL1    C2 3081   5.411   0.396   6.844  0.2813  0.2435 -0.4868
   42CHL1   H2A 3082   5.394   0.491   6.788  0.1771  0.4893 -0.0389
   42CHL1   H2B 3083   5.338   0.327   6.798 -0.6589  1.5353 -0.9991
   42CHL1   C20 3084   5.245   0.335   7.766  0.6861 -0.4906 -0.0454
   42CHL1   H20 3085   5.204   0.233   7.775 -1.5045  0.4615  1.6508
   42CHL1   C21 3086   5.124   0.422   7.727  0.5870 -0.5919  0.0041
   42CHL1  H21A 3087   5.075   0.380   7.638 -1.1611  1.7116 -0.2102
   42CHL1  H21B 3088   5.148   0.529   7.706  0.0441 -0.2609  0.9657
   42CHL1  H21C 3089   5.032   0.410   7.788 -0.1630  0.6752 -0.8323
   42CHL1   C22 3090   5.298   0.359   7.912 -0.3704 -0.0390  0.3426
   42CHL1  H22A 3091   5.389   0.297   7.929 -1.8324 -2.1041  1.1160
   42CHL1  H22B 3092   5.338   0.463   7.916 -0.3175 -0.1005  3.3519
   42CHL1   C23 3093   5.192   0.307   8.015 -0.3436 -0.4920  0.6293
   42CHL1  H23A 3094   5.095   0.352   7.986  0.4798 -0.2598 -2.0470
   42CHL1  H23B 3095   5.187   0.199   7.990  0.2536  0.1457 -2.7987
   42CHL1   C24 3096   5.225   0.325   8.163 -0.2607 -0.1288 -0.2628
   42CHL1  H24A 3097   5.155   0.265   8.225  0.2594  1.6499  2.2201
   42CHL1  H24B 3098   5.320   0.272   8.183 -0.0150  0.7101  0.8854
   42CHL1   C25 3099   5.230   0.467   8.212  1.5978 -0.4273 -0.2438
   42CHL1   H25 3100   5.308   0.522   8.155  0.0109 -1.1052 -3.3399
   42CHL1   C26 3101   5.103   0.555   8.184  0.9850  0.1141 -0.0710
   42CHL1  H26A 3102   5.139   0.660   8.176  0.6417  0.1745 -0.9859
   42CHL1  H26B 3103   5.033   0.535   8.099 -2.2343 -0.4088  2.5099
   42CHL1  H26C 3104   5.040   0.551   8.275  0.3950  0.5884 -0.4513
   42CHL1   C27 3105   5.260   0.474   8.363 -0.2942  0.0599 -0.5116
   42CHL1  H27A 3106   5.362   0.434   8.384 -1.0091 -3.1141 -2.3704
   42CHL1  H27B 3107   5.180   0.422   8.419 -0.2952  0.8658  0.2576
   42CHL1  H27C 3108   5.255   0.580   8.397 -5.2766  0.4339 -1.6087
   43CHL1    C3 3109   1.009   5.625   6.853 -0.5631 -0.1856 -0.0756
   43CHL1    H3 3110   0.916   5.564   6.844 -0.6462  0.1039 -1.2832
   43CHL1    O3 3111   1.051   5.645   6.713  0.1086  0.0573 -0.6215
   43CHL1   H3' 3112   1.062   5.556   6.679  1.5467  0.0230 -0.1400
   43CHL1    C4 3113   0.972   5.761   6.911  0.2335 -0.5088  0.4569
   43CHL1   H4A 3114   1.058   5.831   6.904 -0.9887  0.9097 -1.0908
   43CHL1   H4B 3115   0.900   5.797   6.835  1.5009 -2.1054 -1.6007
   43CHL1    C5 3116   0.910   5.753   7.048 -0.4764  0.3439  0.0166
   43CHL1    C6 3117   0.788   5.785   7.070  0.3009 -0.1762  0.3122
   43CHL1    H6 3118   0.720   5.822   6.991  0.1675 -2.0911 -0.5152
   43CHL1    C7 3119   0.725   5.786   7.201 -0.7501 -0.3616 -0.0278
   43CHL1   H7A 3120   0.685   5.885   7.233 -0.1116 -0.6853  1.9574
   43CHL1   H7B 3121   0.641   5.715   7.210 -1.5444  0.2895 -1.8726
   43CHL1    C8 3122   0.820   5.762   7.322  0.0525  0.1268 -0.1700
   43CHL1    H8 3123   0.890   5.848   7.328  1.7175 -1.2015  0.4274
   43CHL1   C14 3124   0.752   5.717   7.449 -0.0579 -0.6429  0.2380
   43CHL1   H14 3125   0.694   5.625   7.429 -2.4250  0.7969  0.0776
   43CHL1   C15 3126   0.652   5.816   7.512  0.5808 -0.2025 -0.7347
   43CHL1  H15A 3127   0.702   5.913   7.488  1.1610 -0.7035 -1.6339
   43CHL1  H15B 3128   0.551   5.801   7.469 -1.4189  0.5912  3.2228
   43CHL1   C16 3129   0.650   5.778   7.661  0.4043 -0.3478  0.2227
   43CHL1  H16A 3130   0.674   5.866   7.724  4.4134 -0.2311 -1.1639
   43CHL1  H16B 3131   0.547   5.749   7.693 -0.7007  3.0785  0.1342
   43CHL1   C17 3132   0.756   5.669   7.685 -0.3633  0.0853  0.2489
   43CHL1   H17 3133   0.702   5.573   7.671  0.2495 -0.2908  0.4187
   43CHL1   C13 3134   0.845   5.688   7.565 -0.0376 -0.3038 -0.9696
   43CHL1   C18 3135   0.934   5.807   7.607  0.5533 -0.0187 -0.1459
   43CHL1  H18A 3136   1.003   5.835   7.524  1.2296 -2.5150 -0.5261
   43CHL1  H18B 3137   0.867   5.889   7.639  0.9447 -0.1163  0.9408
   43CHL1  H18C 3138   1.006   5.786   7.689 -1.6005 -2.0721  1.3238
   43CHL1   C12 3139   0.935   5.572   7.530  0.0585  0.1092 -0.3946
   43CHL1  H12A 3140   1.020   5.556   7.600  1.0027 -1.3074 -1.8064
   43CHL1  H12B 3141   0.870   5.482   7.532  0.5439 -0.2672 -1.3050
   43CHL1   C11 3142   1.007   5.600   7.402 -0.3499 -0.0511  0.6866
   43CHL1  H11A 3143   1.072   5.690   7.412 -2.6558  1.7618  0.4818
   43CHL1  H11B 3144   1.068   5.509   7.388 -2.8129 -1.6845  0.0033
   43CHL1    C9 3145   0.917   5.649   7.280  0.4730 -0.8083 -0.6393
   43CHL1    H9 3146   0.850   5.564   7.255  0.9213 -0.9404 -1.4220
   43CHL1   C10 3147   0.992   5.678   7.152 -0.5710  0.3377  0.5184
   43CHL1   C19 3148   1.118   5.770   7.180  0.1096 -0.6430 -0.5841
   43CHL1  H19A 3149   1.186   5.710   7.243  0.7335 -0.6406 -1.2457
   43CHL1  H19B 3150   1.176   5.787   7.087  1.1445  2.9654  0.5757
   43CHL1  H19C 3151   1.085   5.867   7.224 -2.6700 -2.3822  1.5215
   43CHL1    C1 3152   1.060   5.546   7.089  0.1494  0.4423  0.1962
   43CHL1   H1A 3153   1.139   5.514   7.160 -0.1325  1.7254  1.1084
   43CHL1   H1B 3154   0.987   5.464   7.071  0.2664 -0.1129  2.0801
   43CHL1    C2 3155   1.109   5.561   6.944 -0.6251  0.2297  0.0147
   43CHL1   H2A 3156   1.142   5.467   6.895 -0.8851 -0.1521  0.5595
   43CHL1   H2B 3157   1.200   5.625   6.947 -0.4482  0.0149 -0.6613
   43CHL1   C20 3158   0.801   5.665   7.830 -0.5661 -0.8314 -0.7272
   43CHL1   H20 3159   0.870   5.750   7.848 -0.8187 -0.8883  0.6601
   43CHL1   C21 3160   0.879   5.533   7.863  0.5679 -0.5526 -0.7492
   43CHL1  H21A 3161   0.920   5.527   7.967 -0.0494  0.6191 -0.4159
   43CHL1  H21B 3162   0.967   5.535   7.795  1.3456  0.4956  0.2429
   43CHL1  H21C 3163   0.818   5.444   7.837 -0.0147 -0.4037  0.0534
   43CHL1   C22 3164   0.674   5.697   7.926 -1.1402 -0.7242  0.0699
   43CHL1  H22A 3165   0.618   5.788   7.897 -1.9547 -1.8441 -2.0698
   43CHL1  H22B 3166   0.607   5.611   7.906 -1.5000  0.0111 -2.0975
   43CHL1   C23 3167   0.704   5.697   8.075  0.1193  0.5747  0.2863
   43CHL1  H23A 3168   0.760   5.606   8.104 -1.4871 -0.5992 -0.2230
   43CHL1  H23B 3169   0.757   5.790   8.107 -1.6549  1.4184  0.8795
   43CHL1   C24 3170   0.566   5.686   8.146 -0.3030  0.1021  0.3460
   43CHL1  H24A 3171   0.497   5.768   8.117  1.9283  2.2727  0.8809
   43CHL1  H24B 3172   0.508   5.601   8.103  0.4268 -0.4823  0.4889
   43CHL1   C25 3173   0.549   5.684   8.292  0.1053 -0.5366  0.2284
   43CHL1   H25 3174   0.589   5.780   8.332  1.8140 -0.9375 -0.4058
   43CHL1   C26 3175   0.400   5.681   8.324  0.3759 -0.4195 -0.0617
   43CHL1  H26A 3176   0.358   5.589   8.279  1.4346  0.5142 -3.2401
   43CHL1  H26B 3177   0.378   5.682   8.432  0.8278  0.3729  0.0358
   43CHL1  H26C 3178   0.356   5.769   8.271  4.4366  0.4075 -2.5278
   43CHL1   C27 3179   0.635   5.588   8.373  0.5396  0.3327 -0.3667
   43CHL1  H27A 3180   0.744   5.588   8.353  0.6367 -0.9472  0.0869
   43CHL1  H27B 3181   0.609   5.604   8.480 -0.9871 -1.9292 -0.3363
   43CHL1  H27C 3182   0.611   5.484   8.344 -0.5021  0.3648  0.3229
   44CHL1    C3 3183   0.484   4.345   6.880 -0.4918 -0.4639 -0.5357
   44CHL1    H3 3184   0.384   4.388   6.899 -0.1522  0.2170 -0.2809
   44CHL1    O3 3185   0.522   4.373   6.747 -0.2533  0.3963  0.3585
   44CHL1   H3' 3186   0.605   4.325   6.742 -0.8802 -1.0703  2.6166
   44CHL1    C4 3187   0.587   4.420   6.964  0.2686  0.6040  0.1320
   44CHL1   H4A 3188   0.692   4.398   6.934  0.7425 -0.2938  2.2310
   44CHL1   H4B 3189   0.572   4.528   6.942 -1.9253 -0.1019 -2.2320
   44CHL1    C5 3190   0.566   4.395   7.110  0.4634  0.1946 -0.1150
   44CHL1    C6 3191   0.549   4.491   7.197  0.3963  0.2310  0.8668
   44CHL1    H6 3192   0.548   4.595   7.159  0.3044 -0.2128 -0.3888
   44CHL1    C7 3193   0.530   4.469   7.341  0.0664 -0.2802 -0.2712
   44CHL1   H7A 3194   0.581   4.547   7.401  0.4272 -0.5170 -0.2703
   44CHL1   H7B 3195   0.423   4.480   7.369  0.6164  0.9618  1.5005
   44CHL1    C8 3196   0.567   4.324   7.388 -0.4247 -0.1046 -0.5645
   44CHL1    H8 3197   0.678   4.313   7.383 -0.4344  0.1719 -1.7828
   44CHL1   C14 3198   0.515   4.295   7.534 -0.2078 -0.5395  0.8452
   44CHL1   H14 3199   0.404   4.296   7.525 -0.3273  0.6709  2.1638
   44CHL1   C15 3200   0.543   4.409   7.638 -0.6713 -0.6289 -0.6718
   44CHL1  H15A 3201   0.650   4.435   7.652 -1.5462  2.0407  2.2651
   44CHL1  H15B 3202   0.477   4.495   7.613 -0.0550 -0.6210 -2.4042
   44CHL1   C16 3203   0.499   4.333   7.765  0.2687 -0.0537 -0.1703
   44CHL1  H16A 3204   0.573   4.347   7.846 -0.1683  3.6035 -0.2255
   44CHL1  H16B 3205   0.398   4.371   7.791 -1.2785 -2.7603 -1.6769
   44CHL1   C17 3206   0.481   4.177   7.731 -0.0111  0.6224  0.6443
   44CHL1   H17 3207   0.375   4.156   7.706  0.3730  1.5319 -2.1166
   44CHL1   C13 3208   0.552   4.162   7.594  0.5162  0.2348  0.0587
   44CHL1   C18 3209   0.704   4.150   7.613  0.4493  0.2820 -0.6286
   44CHL1  H18A 3210   0.724   4.045   7.645 -1.6814  0.5427  1.9545
   44CHL1  H18B 3211   0.759   4.170   7.519  2.8373  0.1429  0.6525
   44CHL1  H18C 3212   0.747   4.215   7.693 -1.0610  0.3881  0.1385
   44CHL1   C12 3213   0.504   4.051   7.500 -0.0331  0.5131  1.1456
   44CHL1  H12A 3214   0.536   3.953   7.541 -0.7744 -0.0720  0.3559
   44CHL1  H12B 3215   0.394   4.057   7.514  0.0208  0.0299  1.8290
   44CHL1   C11 3216   0.555   4.079   7.356 -0.3413 -1.0782  0.3936
   44CHL1  H11A 3217   0.666   4.069   7.355  0.1424  1.6881 -4.0762
   44CHL1  H11B 3218   0.520   4.001   7.285 -0.1605  0.6867 -1.7325
   44CHL1    C9 3219   0.514   4.225   7.299  0.9483 -0.1562 -0.5572
   44CHL1    H9 3220   0.403   4.223   7.307  0.9734 -2.2886 -0.0684
   44CHL1   C10 3221   0.561   4.253   7.151 -0.5641 -0.2837  0.1635
   44CHL1   C19 3222   0.711   4.210   7.137 -1.3243 -0.1612 -0.1284
   44CHL1  H19A 3223   0.758   4.236   7.040  1.5740 -1.1158  0.9135
   44CHL1  H19B 3224   0.777   4.269   7.205 -0.7667 -0.9381  0.0286
   44CHL1  H19C 3225   0.716   4.102   7.164 -3.8869  0.5803  4.3767
   44CHL1    C1 3226   0.470   4.168   7.055  1.0382  0.6136  0.4120
   44CHL1   H1A 3227   0.471   4.059   7.078  0.4813 -0.0313 -2.2337
   44CHL1   H1B 3228   0.367   4.207   7.070  1.4207  2.5907 -1.5066
   44CHL1    C2 3229   0.494   4.194   6.902  0.1593  0.0014  0.2487
   44CHL1   H2A 3230   0.424   4.140   6.836 -2.1308  3.2093 -0.2159
   44CHL1   H2B 3231   0.598   4.164   6.880 -0.2853 -0.7265 -0.9295
   44CHL1   C20 3232   0.508   4.079   7.848 -0.5397 -1.1706  0.0678
   44CHL1   H20 3233   0.614   4.104   7.869 -0.0908  0.0521 -3.0493
   44CHL1   C21 3234   0.484   3.937   7.807  0.5666  0.3949 -0.1367
   44CHL1  H21A 3235   0.567   3.906   7.740  0.7635  0.9303 -0.1506
   44CHL1  H21B 3236   0.385   3.934   7.759  0.1050 -0.7234  0.8318
   44CHL1  H21C 3237   0.488   3.877   7.901  0.8654 -0.2184 -0.5387
   44CHL1   C22 3238   0.432   4.108   7.976  0.2805  0.0701  0.5201
   44CHL1  H22A 3239   0.464   4.037   8.055 -2.4812 -2.0375 -0.1426
   44CHL1  H22B 3240   0.477   4.204   8.010  2.1250 -0.3309 -0.5918
   44CHL1   C23 3241   0.276   4.125   7.969  0.1185  0.1177 -0.1800
   44CHL1  H23A 3242   0.247   4.211   7.905 -0.1048 -0.2119 -0.5250
   44CHL1  H23B 3243   0.245   4.030   7.922  1.8612 -1.6661  2.0209
   44CHL1   C24 3244   0.200   4.141   8.104  0.2588 -0.0738  0.3008
   44CHL1  H24A 3245   0.100   4.176   8.071  0.4879  1.0942  0.8036
   44CHL1  H24B 3246   0.208   4.041   8.151 -1.8117 -0.6212 -0.4014
   44CHL1   C25 3247   0.257   4.238   8.205  0.5921 -0.1848  0.4999
   44CHL1   H25 3248   0.365   4.216   8.219  0.2846  0.0573  4.2602
   44CHL1   C26 3249   0.235   4.383   8.155 -0.0693 -0.5838 -0.1415
   44CHL1  H26A 3250   0.232   4.457   8.238  0.5497 -2.0410  1.2258
   44CHL1  H26B 3251   0.314   4.401   8.079  0.4233  2.3789  0.9272
   44CHL1  H26C 3252   0.136   4.390   8.105 -0.0360 -1.5217 -0.3525
   44CHL1   C27 3253   0.183   4.234   8.341  0.3827  0.2009  0.7598
   44CHL1  H27A 3254   0.211   4.143   8.398  2.0091 -1.0589 -1.8561
   44CHL1  H27B 3255   0.210   4.326   8.397  1.1169 -0.0443  0.8158
   44CHL1  H27C 3256   0.074   4.245   8.323  0.5479  0.3876 -0.1541
   45CHL1    C3 3257   0.997   2.460   6.675  0.5636 -0.2404  0.4077
   45CHL1    H3 3258   0.995   2.357   6.715  1.7964  0.5425  2.6998
   45CHL1    O3 3259   0.980   2.445   6.540  0.1359  0.5336  0.0990
   45CHL1   H3' 3260   0.935   2.521   6.503  0.7320  0.6141 -0.4899
   45CHL1    C4 3261   0.876   2.536   6.731  0.0468 -0.1258 -0.0504
   45CHL1   H4A 3262   0.886   2.639   6.690  0.0508 -0.3753 -0.6966
   45CHL1   H4B 3263   0.782   2.484   6.701 -0.7950  0.1981  1.8649
   45CHL1    C5 3264   0.883   2.557   6.880  1.3764  0.9924  0.1152
   45CHL1    C6 3265   0.787   2.506   6.955  0.5471  0.3786 -0.3243
   45CHL1    H6 3266   0.707   2.450   6.904 -0.3768  1.4076 -0.0543
   45CHL1    C7 3267   0.780   2.522   7.099 -0.5274  0.2248 -0.6824
   45CHL1   H7A 3268   0.677   2.553   7.127 -0.8392  0.9423 -2.4919
   45CHL1   H7B 3269   0.812   2.426   7.145 -0.4682  0.6034  0.0861
   45CHL1    C8 3270   0.879   2.629   7.155 -0.3306 -0.1308  0.1298
   45CHL1    H8 3271   0.836   2.728   7.131 -1.2254 -0.5711 -0.1371
   45CHL1   C14 3272   0.905   2.606   7.307 -0.1005 -0.4463  0.1224
   45CHL1   H14 3273   0.955   2.508   7.324  1.4200  0.4963  1.3675
   45CHL1   C15 3274   0.783   2.582   7.398  1.2556 -0.1387  0.2109
   45CHL1  H15A 3275   0.704   2.657   7.376  2.5388  1.0359 -0.6117
   45CHL1  H15B 3276   0.737   2.481   7.391  0.4511  0.1578  1.0930
   45CHL1   C16 3277   0.840   2.609   7.533  0.1556  0.6063 -0.4109
   45CHL1  H16A 3278   0.780   2.687   7.585 -0.9350  0.3489 -1.2427
   45CHL1  H16B 3279   0.841   2.520   7.600 -0.2307  2.1822  1.7902
   45CHL1   C17 3280   0.989   2.656   7.522 -0.1062  0.3346  0.0270
   45CHL1   H17 3281   1.057   2.568   7.528 -0.8927 -0.2871 -0.0149
   45CHL1   C13 3282   1.001   2.699   7.374 -0.1372  0.1877 -0.2160
   45CHL1   C18 3283   0.943   2.845   7.373 -0.0182  0.0403 -0.1021
   45CHL1  H18A 3284   0.851   2.857   7.433 -0.3121 -0.5909 -0.4269
   45CHL1  H18B 3285   1.023   2.912   7.412  1.2160 -1.6763  0.4388
   45CHL1  H18C 3286   0.930   2.874   7.267  0.3496 -4.7275 -1.6885
   45CHL1   C12 3287   1.137   2.696   7.298  0.2443 -1.1511 -1.0746
   45CHL1  H12A 3288   1.210   2.770   7.334 -0.7048 -0.8454  0.2960
   45CHL1  H12B 3289   1.193   2.600   7.310  0.1787 -1.3307 -2.1320
   45CHL1   C11 3290   1.125   2.722   7.143  0.6140  0.7612  0.0820
   45CHL1  H11A 3291   1.089   2.827   7.132 -0.3654  0.8378  3.2213
   45CHL1  H11B 3292   1.228   2.716   7.101  1.0623  2.2706  0.8760
   45CHL1    C9 3293   1.015   2.620   7.080  0.1367 -0.3697  0.0620
   45CHL1    H9 3294   1.058   2.520   7.102  1.3322  0.0989 -0.0530
   45CHL1   C10 3295   1.009   2.626   6.921 -0.4570 -0.1659 -0.8625
   45CHL1   C19 3296   1.017   2.778   6.883 -0.0558 -0.2836 -0.1878
   45CHL1  H19A 3297   1.121   2.817   6.895 -0.3236  0.4215 -0.1183
   45CHL1  H19B 3298   1.014   2.794   6.773  3.3184 -0.3833 -0.4142
   45CHL1  H19C 3299   0.936   2.832   6.936 -1.0795  0.5946 -2.4982
   45CHL1    C1 3300   1.125   2.542   6.865 -0.5024  0.7016 -0.6606
   45CHL1   H1A 3301   1.221   2.595   6.887  0.1029 -0.8678  0.7178
   45CHL1   H1B 3302   1.128   2.440   6.908  3.6889  1.2162  0.8189
   45CHL1    C2 3303   1.129   2.520   6.718 -0.0417 -0.2749  0.6498
   45CHL1   H2A 3304   1.216   2.465   6.676 -0.6208  0.8929 -2.4103
   45CHL1   H2B 3305   1.142   2.624   6.679 -2.7301 -0.8598 -2.2939
   45CHL1   C20 3306   1.036   2.744   7.636 -0.2087 -0.7147  0.0952
   45CHL1   H20 3307   0.995   2.846   7.619  0.9232 -0.3953 -0.8265
   45CHL1   C21 3308   1.189   2.755   7.628 -0.1999 -0.3850  0.4948
   45CHL1  H21A 3309   1.217   2.824   7.711 -1.1962 -1.2645  1.5869
   45CHL1  H21B 3310   1.215   2.807   7.533 -4.1198 -1.1324 -1.1732
   45CHL1  H21C 3311   1.244   2.660   7.640 -0.0366 -0.1776  1.5133
   45CHL1   C22 3312   0.986   2.703   7.771  0.0505  0.0945 -0.1039
   45CHL1  H22A 3313   0.877   2.724   7.780  0.3950  1.4259  1.6220
   45CHL1  H22B 3314   1.001   2.593   7.780 -2.8736 -0.4933 -1.1685
   45CHL1   C23 3315   1.048   2.766   7.897 -0.0011  0.3286 -0.5311
   45CHL1  H23A 3316   1.158   2.753   7.909 -0.1891 -2.3141 -0.9552
   45CHL1  H23B 3317   1.034   2.876   7.904 -0.4191  0.2554 -0.1706
   45CHL1   C24 3318   0.981   2.711   8.032  0.2309  0.1787  0.2386
   45CHL1  H24A 3319   0.871   2.708   8.020  0.1291  2.4126  0.1503
   45CHL1  H24B 3320   1.003   2.602   8.036 -1.3854 -0.1597  0.4061
   45CHL1   C25 3321   1.012   2.794   8.157 -0.4885 -0.2238 -0.0651
   45CHL1   H25 3322   1.018   2.902   8.131  1.8926 -0.5021 -0.9139
   45CHL1   C26 3323   0.906   2.776   8.264  0.0122  0.2569  0.3310
   45CHL1  H26A 3324   0.808   2.822   8.240  0.6036  1.6698  0.5394
   45CHL1  H26B 3325   0.889   2.667   8.280  3.7003 -0.2782  1.7465
   45CHL1  H26C 3326   0.948   2.814   8.360 -0.9636  1.4461  0.3110
   45CHL1   C27 3327   1.150   2.750   8.210 -0.6930 -0.4516 -0.4688
   45CHL1  H27A 3328   1.168   2.802   8.307  0.6190 -0.9822 -0.4153
   45CHL1  H27B 3329   1.160   2.643   8.239  0.2797  0.3256  2.4505
   45CHL1  H27C 3330   1.233   2.770   8.139 -0.9458  2.5209 -0.0743
   46CHL1    C3 3331   0.950   3.946   6.878  0.0671  0.0805 -0.3123
   46CHL1    H3 3332   0.854   3.996   6.904  0.3064 -0.1857  1.1816
   46CHL1    O3 3333   0.986   3.967   6.739  0.7196 -0.3938 -0.1423
   46CHL1   H3' 3334   0.959   3.895   6.682 -0.2155 -1.3928  1.5001
   46CHL1    C4 3335   1.066   4.003   6.957 -0.7142  0.4709 -0.6727
   46CHL1   H4A 3336   1.159   3.950   6.930 -1.6845 -1.9214  0.3756
   46CHL1   H4B 3337   1.066   4.113   6.939 -2.4189  0.1614 -3.0698
   46CHL1    C5 3338   1.045   3.981   7.109 -0.0187  0.1554  0.3479
   46CHL1    C6 3339   1.052   4.088   7.190  0.0788 -0.0010 -0.0697
   46CHL1    H6 3340   1.073   4.186   7.144  1.5180 -0.9309 -1.4703
   46CHL1    C7 3341   1.037   4.083   7.342  0.0132 -0.7000 -0.0463
   46CHL1   H7A 3342   1.113   4.141   7.399 -2.1316  1.8366  0.4507
   46CHL1   H7B 3343   0.940   4.131   7.369  0.8053  2.0441 -1.6908
   46CHL1    C8 3344   1.045   3.938   7.390 -0.7451 -0.6441  0.3761
   46CHL1    H8 3345   1.150   3.902   7.389 -0.1212  1.0785 -0.8734
   46CHL1   C14 3346   0.987   3.927   7.528 -0.0345  0.3768 -0.1876
   46CHL1   H14 3347   0.876   3.932   7.523 -0.1308 -0.0829  1.1012
   46CHL1   C15 3348   1.038   4.030   7.635 -0.0412  0.6196  0.7415
   46CHL1  H15A 3349   1.147   4.048   7.638  0.1299 -0.3464  0.7004
   46CHL1  H15B 3350   0.977   4.121   7.617  1.5981  1.2354 -2.3181
   46CHL1   C16 3351   1.000   3.961   7.768  0.2386  0.0126  0.6798
   46CHL1  H16A 3352   1.092   3.940   7.825  0.0656 -0.3504  0.8323
   46CHL1  H16B 3353   0.926   4.019   7.827  0.2403  1.5230 -0.7076
   46CHL1   C17 3354   0.928   3.824   7.737 -0.3930  0.0619  0.1354
   46CHL1   H17 3355   0.822   3.850   7.718 -0.5673 -0.8880 -0.2057
   46CHL1   C13 3356   0.985   3.791   7.596 -0.2047 -1.2032  0.6166
   46CHL1   C18 3357   1.131   3.746   7.617  0.9996 -1.0557  0.1654
   46CHL1  H18A 3358   1.146   3.656   7.681  0.8082 -1.3772 -0.2378
   46CHL1  H18B 3359   1.185   3.721   7.523  0.0282 -1.1751 -0.3671
   46CHL1  H18C 3360   1.194   3.823   7.667  0.9423 -0.2257 -1.0178
   46CHL1   C12 3361   0.907   3.695   7.508  0.7047 -0.2259  0.3841
   46CHL1  H12A 3362   0.927   3.593   7.549  1.7930 -0.1681  0.0149
   46CHL1  H12B 3363   0.800   3.723   7.520  1.4673  3.2719 -0.0872
   46CHL1   C11 3364   0.970   3.699   7.363  0.7969  0.3280 -0.2817
   46CHL1  H11A 3365   1.074   3.660   7.359 -0.2995 -2.8365 -1.7376
   46CHL1  H11B 3366   0.913   3.629   7.298  1.4169  0.1184 -0.6121
   46CHL1    C9 3367   0.971   3.842   7.301  0.2455  0.5750  1.3786
   46CHL1    H9 3368   0.866   3.876   7.316  0.3035  0.4050  2.2101
   46CHL1   C10 3369   1.010   3.840   7.149  0.3794  0.8607 -0.2307
   46CHL1   C19 3370   1.139   3.756   7.137 -0.3400  0.1068 -0.0547
   46CHL1  H19A 3371   1.113   3.649   7.153 -1.2404  0.6507  2.8472
   46CHL1  H19B 3372   1.177   3.752   7.033  2.6337 -0.6580  0.9476
   46CHL1  H19C 3373   1.213   3.789   7.213 -0.7406  0.2410  0.2841
   46CHL1    C1 3374   0.903   3.777   7.063  0.6351  0.0239  0.1285
   46CHL1   H1A 3375   0.881   3.670   7.084 -0.6809  0.8467  3.8050
   46CHL1   H1B 3376   0.804   3.825   7.079  0.1957 -1.0984  0.8996
   46CHL1    C2 3377   0.926   3.799   6.915  0.3412 -0.0231  0.5559
   46CHL1   H2A 3378   0.844   3.759   6.852  1.6183 -0.7951 -0.6801
   46CHL1   H2B 3379   1.016   3.738   6.892  0.2064  0.1753 -0.5527
   46CHL1   C20 3380   0.941   3.723   7.851  0.4955  0.1369  0.1499
   46CHL1   H20 3381   1.050   3.703   7.859  0.3414 -0.9053 -0.2333
   46CHL1   C21 3382   0.862   3.600   7.818  0.5468  0.5510 -0.6900
   46CHL1  H21A 3383   0.845   3.539   7.909  1.5427  0.7889 -0.3411
   46CHL1  H21B 3384   0.923   3.541   7.747  3.0606  1.6351  0.4511
   46CHL1  H21C 3385   0.761   3.624   7.778  0.6534 -2.3824 -3.0498
   46CHL1   C22 3386   0.906   3.772   7.998  0.8803  0.2119  0.4724
   46CHL1  H22A 3387   0.926   3.687   8.066 -1.8431  0.5131  1.8137
   46CHL1  H22B 3388   0.981   3.848   8.029  2.0897 -2.2417  4.2323
   46CHL1   C23 3389   0.762   3.817   8.022 -0.1351  0.7793 -0.2312
   46CHL1  H23A 3390   0.725   3.859   7.926 -0.2441 -0.1893 -0.6259
   46CHL1  H23B 3391   0.701   3.726   8.045  0.6652  0.4720  0.7262
   46CHL1   C24 3392   0.748   3.917   8.136 -0.1852 -0.2678  0.9028
   46CHL1  H24A 3393   0.799   4.013   8.110 -0.3676 -0.5406 -0.5656
   46CHL1  H24B 3394   0.641   3.946   8.148  0.1759  1.4644  0.2685
   46CHL1   C25 3395   0.788   3.879   8.279 -0.1486 -0.1772 -0.2861
   46CHL1   H25 3396   0.887   3.828   8.275  0.1359  0.3726 -0.2981
   46CHL1   C26 3397   0.801   3.992   8.376  0.1192  0.5765 -0.4721
   46CHL1  H26A 3398   0.717   4.064   8.382  0.5892  1.0619  0.5678
   46CHL1  H26B 3399   0.817   3.962   8.482 -0.2116 -0.0832 -0.6024
   46CHL1  H26C 3400   0.884   4.056   8.340  0.8762 -0.1356 -0.0279
   46CHL1   C27 3401   0.687   3.777   8.343 -0.2198 -0.4399  0.3364
   46CHL1  H27A 3402   0.712   3.739   8.444 -1.4240 -0.6925  0.5552
   46CHL1  H27B 3403   0.588   3.827   8.350  0.3877  0.7652  0.4412
   46CHL1  H27C 3404   0.679   3.692   8.271  0.6701 -0.0875 -0.2009
   47CHL1    C3 3405   0.030   3.994   6.874 -0.2911  0.0837 -0.8576
   47CHL1    H3 3406  -0.074   4.033   6.876 -1.4093 -2.6155 -2.0685
   47CHL1    O3 3407   0.072   3.993   6.740 -0.0708 -0.2762  0.1011
   47CHL1   H3' 3408   0.145   3.931   6.740  0.6463  0.5475  0.9925
   47CHL1    C4 3409   0.126   4.084   6.961 -0.1996 -1.2583 -0.5968
   47CHL1   H4A 3410   0.226   4.036   6.955  1.4165  1.7574  0.1980
   47CHL1   H4B 3411   0.145   4.183   6.915  1.1537 -1.7675 -1.1766
   47CHL1    C5 3412   0.093   4.079   7.106  0.5461  0.5937  0.0334
   47CHL1    C6 3413   0.065   4.186   7.175  0.1765  0.2422  0.3878
   47CHL1    H6 3414   0.070   4.283   7.123  1.5530 -0.1738 -0.2798
   47CHL1    C7 3415   0.037   4.185   7.321  0.6724 -0.5007 -0.2384
   47CHL1   H7A 3416   0.110   4.257   7.364  1.6576 -1.0059 -1.0235
   47CHL1   H7B 3417  -0.065   4.223   7.345  0.6654  0.4211 -1.5911
   47CHL1    C8 3418   0.057   4.049   7.387  0.0801  0.2750  0.3433
   47CHL1    H8 3419   0.163   4.034   7.416 -0.3340 -0.9110  1.3371
   47CHL1   C14 3420  -0.018   4.055   7.517 -0.2675  0.3851  0.3378
   47CHL1   H14 3421  -0.125   4.058   7.487  0.0815 -0.8721 -1.1747
   47CHL1   C15 3422   0.005   4.171   7.615  0.1452 -0.7390 -0.1880
   47CHL1  H15A 3423   0.113   4.195   7.619 -0.0298  0.2949 -1.2320
   47CHL1  H15B 3424  -0.043   4.268   7.591  2.0101  0.0524 -0.8258
   47CHL1   C16 3425  -0.036   4.119   7.751 -0.9449  0.1597  0.7640
   47CHL1  H16A 3426   0.053   4.105   7.816  0.5877 -1.4728 -1.5230
   47CHL1  H16B 3427  -0.116   4.179   7.799 -1.2087 -2.4247  3.9667
   47CHL1   C17 3428  -0.065   3.961   7.729  0.4353 -0.1268 -0.2050
   47CHL1   H17 3429  -0.174   3.953   7.708  1.0739 -1.3254 -3.6510
   47CHL1   C13 3430   0.005   3.921   7.600 -0.4043  0.2311  0.2424
   47CHL1   C18 3431   0.160   3.904   7.633  0.0445 -0.1628 -0.7124
   47CHL1  H18A 3432   0.185   3.810   7.686 -1.2341 -0.8585 -1.2847
   47CHL1  H18B 3433   0.223   3.894   7.542 -1.1679  2.3867 -1.9332
   47CHL1  H18C 3434   0.204   3.995   7.678  2.5049 -1.0832 -1.1195
   47CHL1   C12 3435  -0.047   3.802   7.525 -1.0603 -0.2258  0.2945
   47CHL1  H12A 3436  -0.039   3.717   7.596 -0.9211  0.6383  1.3378
   47CHL1  H12B 3437  -0.156   3.820   7.509 -0.8805  1.7142  1.0654
   47CHL1   C11 3438   0.013   3.794   7.385 -0.0819 -0.7128  0.3853
   47CHL1  H11A 3439   0.120   3.766   7.400 -0.1701 -0.4630  1.5534
   47CHL1  H11B 3440  -0.049   3.721   7.329 -0.3562  0.5217 -0.9882
   47CHL1    C9 3441   0.005   3.932   7.305 -0.1655  0.1831  0.6330
   47CHL1    H9 3442  -0.104   3.946   7.290 -0.3565 -3.1676 -2.5596
   47CHL1   C10 3443   0.068   3.933   7.164 -0.5824 -0.1025  0.0840
   47CHL1   C19 3444   0.207   3.869   7.175 -0.0127  0.5233 -0.4388
   47CHL1  H19A 3445   0.260   3.860   7.078  0.9069 -0.6395  0.1405
   47CHL1  H19B 3446   0.267   3.916   7.256 -1.6816 -0.2255  1.3184
   47CHL1  H19C 3447   0.195   3.762   7.201 -1.3062  0.6396 -0.4995
   47CHL1    C1 3448  -0.020   3.849   7.067 -0.1158  0.2433 -0.3234
   47CHL1   H1A 3449  -0.030   3.745   7.105 -1.1831  0.5670  0.3117
   47CHL1   H1B 3450  -0.121   3.894   7.079 -0.7022 -1.5734  2.3715
   47CHL1    C2 3451   0.021   3.849   6.921  0.5952 -0.3519  0.1506
   47CHL1   H2A 3452  -0.061   3.804   6.863 -0.2137  0.7764  0.3804
   47CHL1   H2B 3453   0.110   3.784   6.908  2.8715  2.6972 -0.6864
   47CHL1   C20 3454  -0.036   3.887   7.860 -0.3898  0.3285 -0.0877
   47CHL1   H20 3455   0.071   3.892   7.888 -0.2283 -2.0402 -0.1623
   47CHL1   C21 3456  -0.077   3.740   7.846 -0.5033  0.1955  0.3059
   47CHL1  H21A 3457   0.002   3.678   7.798 -1.5304 -1.8970  1.1685
   47CHL1  H21B 3458  -0.170   3.723   7.788  1.1104  0.3429 -2.4837
   47CHL1  H21C 3459  -0.101   3.694   7.945  1.5567  1.1132  1.3080
   47CHL1   C22 3460  -0.113   3.951   7.983  0.0055  0.6969 -0.1387
   47CHL1  H22A 3461  -0.079   4.056   7.992 -0.6700  0.8125  1.2003
   47CHL1  H22B 3462  -0.222   3.948   7.962  0.1261 -0.8252 -0.6591
   47CHL1   C23 3463  -0.091   3.891   8.121 -0.2360  0.5027  0.0328
   47CHL1  H23A 3464  -0.166   3.811   8.142  0.8075 -0.2138  1.1563
   47CHL1  H23B 3465   0.011   3.848   8.127  0.0799  1.2170 -0.1779
   47CHL1   C24 3466  -0.108   3.982   8.247 -0.3267 -0.4782  0.5307
   47CHL1  H24A 3467  -0.020   4.048   8.266  0.9498 -2.1378  0.6177
   47CHL1  H24B 3468  -0.193   4.050   8.226  0.7089  0.7631  0.2399
   47CHL1   C25 3469  -0.149   3.911   8.370  0.6069  0.2572  0.8892
   47CHL1   H25 3470  -0.236   3.846   8.347 -0.2077  1.8912 -1.0058
   47CHL1   C26 3471  -0.025   3.817   8.420  0.0040  0.0701  0.7702
   47CHL1  H26A 3472   0.061   3.886   8.432  0.9478 -0.8561 -0.3317
   47CHL1  H26B 3473  -0.061   3.764   8.510 -1.6775  0.2681  0.2624
   47CHL1  H26C 3474  -0.007   3.742   8.339  0.1903 -0.3458  1.1956
   47CHL1   C27 3475  -0.175   4.014   8.478 -0.4311  0.0630 -0.2910
   47CHL1  H27A 3476  -0.196   3.968   8.577 -0.1292  1.1944  0.3060
   47CHL1  H27B 3477  -0.086   4.080   8.486 -0.8280  0.6842 -0.9111
   47CHL1  H27C 3478  -0.261   4.082   8.458 -0.3223 -0.4593 -2.9900
   48CHL1    C3 3479   5.464   6.096   6.643  0.4197  0.3074  0.2300
   48CHL1    H3 3480   5.365   6.046   6.652  0.7822 -0.6194 -0.7168
   48CHL1    O3 3481   5.468   6.137   6.504 -0.1722  0.3353 -0.3027
   48CHL1   H3' 3482   5.498   6.056   6.461  1.4138  1.1906 -0.8850
   48CHL1    C4 3483   5.478   6.213   6.738  0.7075  0.0894 -0.7895
   48CHL1   H4A 3484   5.574   6.268   6.728  0.3883  0.6982 -0.6034
   48CHL1   H4B 3485   5.399   6.283   6.702 -1.5876 -2.1557 -0.4139
   48CHL1    C5 3486   5.453   6.173   6.881  0.2850 -0.0469  0.3425
   48CHL1    C6 3487   5.359   6.219   6.959  0.3225 -0.1185  0.9391
   48CHL1    H6 3488   5.296   6.298   6.916 -1.0289 -1.9380 -0.6104
   48CHL1    C7 3489   5.330   6.183   7.102 -0.3939  0.0522  0.9189
   48CHL1   H7A 3490   5.319   6.279   7.157  0.1242  0.4676  0.3124
   48CHL1   H7B 3491   5.247   6.113   7.127 -1.5447  0.6438 -1.0273
   48CHL1    C8 3492   5.450   6.118   7.163 -0.1897  0.0818  0.6830
   48CHL1    H8 3493   5.528   6.196   7.178  1.4493 -0.8351 -2.2375
   48CHL1   C14 3494   5.419   6.055   7.299 -0.8379  0.0225  0.4606
   48CHL1   H14 3495   5.345   5.974   7.281 -0.0100 -0.6341 -0.1050
   48CHL1   C15 3496   5.344   6.148   7.399  0.0222  0.5934 -0.0464
   48CHL1  H15A 3497   5.378   6.254   7.391 -0.6672  0.8991  0.8619
   48CHL1  H15B 3498   5.237   6.152   7.372 -0.1709 -2.2436  0.0364
   48CHL1   C16 3499   5.381   6.084   7.534  0.5656 -0.6596  0.5156
   48CHL1  H16A 3500   5.445   6.151   7.595  0.1729 -0.7139  0.9958
   48CHL1  H16B 3501   5.285   6.062   7.586 -0.2346 -0.8599 -0.9767
   48CHL1   C17 3502   5.466   5.955   7.497  0.7826 -0.0828 -0.5166
   48CHL1   H17 3503   5.391   5.874   7.489  0.2287  0.1259  1.6987
   48CHL1   C13 3504   5.533   5.999   7.372 -0.0345 -0.3044 -0.0352
   48CHL1   C18 3505   5.646   6.099   7.399 -0.5138 -0.1365  0.1707
   48CHL1  H18A 3506   5.727   6.069   7.468  0.8638  0.8367 -0.9613
   48CHL1  H18B 3507   5.697   6.122   7.303  1.1393  0.6378  1.1887
   48CHL1  H18C 3508   5.602   6.190   7.446 -2.4490  0.2545 -2.2003
   48CHL1   C12 3509   5.588   5.887   7.279 -0.1590  0.1588  0.3370
   48CHL1  H12A 3510   5.678   5.843   7.327  1.4680  0.8894 -1.8350
   48CHL1  H12B 3511   5.509   5.810   7.267  0.3349 -0.4528  0.9390
   48CHL1   C11 3512   5.638   5.937   7.139  0.8984 -0.5802  0.1322
   48CHL1  H11A 3513   5.727   6.002   7.152  0.7300 -0.7334  2.5894
   48CHL1  H11B 3514   5.668   5.845   7.085  0.0424 -0.3669 -0.7337
   48CHL1    C9 3515   5.516   6.011   7.077 -0.1441  0.2879  0.6411
   48CHL1    H9 3516   5.441   5.932   7.060 -0.3670  0.3667  1.2389
   48CHL1   C10 3517   5.554   6.069   6.930 -0.2573  0.9813  0.1263
   48CHL1   C19 3518   5.701   6.131   6.930  0.7213  0.5432 -0.6486
   48CHL1  H19A 3519   5.707   6.208   7.009  1.0467  3.0712 -2.9889
   48CHL1  H19B 3520   5.780   6.054   6.945 -1.0102 -1.4007 -0.9373
   48CHL1  H19C 3521   5.725   6.189   6.838  0.1833  1.1334 -0.4264
   48CHL1    C1 3522   5.548   5.946   6.834 -0.1655  0.8177 -0.2328
   48CHL1   H1A 3523   5.620   5.868   6.866  0.5655  0.9880 -1.4025
   48CHL1   H1B 3524   5.443   5.911   6.836  0.6137 -1.8241 -1.1095
   48CHL1    C2 3525   5.576   5.998   6.689 -0.2338 -0.4811 -0.7426
   48CHL1   H2A 3526   5.569   5.915   6.616 -1.3811 -0.3672 -0.7903
   48CHL1   H2B 3527   5.675   6.048   6.681 -0.0007 -1.1279 -2.2489
   48CHL1   C20 3528   5.549   5.916   7.624 -0.0758 -0.5138  0.1053
   48CHL1   H20 3529   5.638   5.983   7.627  0.3650 -1.0805 -0.1544
   48CHL1   C21 3530   5.580   5.763   7.609  0.4389  0.1807  0.3268
   48CHL1  H21A 3531   5.487   5.701   7.607 -0.1922  1.1070  0.1933
   48CHL1  H21B 3532   5.643   5.732   7.695  2.7936  2.4958 -0.4321
   48CHL1  H21C 3533   5.644   5.754   7.519 -1.7286  0.8727 -1.3860
   48CHL1   C22 3534   5.477   5.939   7.759  0.5462 -0.4463 -0.2200
   48CHL1  H22A 3535   5.457   6.047   7.780  2.7360 -0.0452  0.0528
   48CHL1  H22B 3536   5.379   5.888   7.757  0.6980 -0.7310 -0.4631
   48CHL1   C23 3537   5.553   5.913   7.893 -0.3313 -0.0373 -0.6594
   48CHL1  H23A 3538   5.591   5.809   7.895  2.8036  1.0382  0.3236
   48CHL1  H23B 3539   5.635   5.988   7.888 -0.6464  0.2854 -1.0727
   48CHL1   C24 3540   5.472   5.942   8.025  0.2552  0.6601 -0.1503
   48CHL1  H24A 3541   5.410   6.034   8.024  0.3344  0.7521  1.1384
   48CHL1  H24B 3542   5.399   5.860   8.039  1.5850 -0.4072  0.7213
   48CHL1   C25 3543   5.554   5.937   8.152 -0.3117 -0.1533 -0.0569
   48CHL1   H25 3544   5.631   6.017   8.144 -0.6983  0.1152 -1.2675
   48CHL1   C26 3545   5.458   5.957   8.267  0.2882 -0.0294  0.5718
   48CHL1  H26A 3546   5.504   5.943   8.367 -1.2000  0.2689  1.3275
   48CHL1  H26B 3547   5.428   6.064   8.260 -2.1071 -0.6455  0.5464
   48CHL1  H26C 3548   5.375   5.885   8.251 -0.5963  1.5164 -2.6094
   48CHL1   C27 3549   5.632   5.803   8.156 -0.3102  0.6015 -0.0888
   48CHL1  H27A 3550   5.709   5.802   8.076 -1.4198 -2.4239 -1.3006
   48CHL1  H27B 3551   5.682   5.803   8.255 -3.2951 -0.1491  1.5723
   48CHL1  H27C 3552   5.561   5.717   8.151  1.0551 -0.4644 -2.4638
   49CHL1    C3 3553   1.590   6.375   6.602 -0.3031  0.3234 -0.0480
   49CHL1    H3 3554   1.481   6.399   6.605 -0.1881  0.7930  0.6648
   49CHL1    O3 3555   1.628   6.329   6.472  0.1396  0.8633 -0.1458
   49CHL1   H3' 3556   1.697   6.263   6.485 -0.8944 -0.1465  0.4543
   49CHL1    C4 3557   1.679   6.492   6.643 -0.1872 -0.4726  0.5365
   49CHL1   H4A 3558   1.782   6.450   6.637  0.3099  0.5912  1.2366
   49CHL1   H4B 3559   1.693   6.567   6.561  1.6015 -1.4115 -0.0883
   49CHL1    C5 3560   1.667   6.542   6.776 -0.2472 -0.1156 -0.0965
   49CHL1    C6 3561   1.635   6.674   6.795 -0.2661  0.1259 -0.0008
   49CHL1    H6 3562   1.630   6.747   6.713 -0.4014  0.7661  0.5676
   49CHL1    C7 3563   1.595   6.725   6.934  0.4103 -0.2110  0.2238
   49CHL1   H7A 3564   1.648   6.821   6.950  1.6523 -0.9923  1.0124
   49CHL1   H7B 3565   1.484   6.729   6.936  0.4481  2.1362 -0.0285
   49CHL1    C8 3566   1.642   6.631   7.049 -0.1782 -0.1177 -0.7104
   49CHL1    H8 3567   1.752   6.622   7.058 -0.4122 -1.6741  1.4854
   49CHL1   C14 3568   1.579   6.685   7.178 -0.3054  0.1856  0.3415
   49CHL1   H14 3569   1.471   6.667   7.160 -0.6232  1.1525  1.1179
   49CHL1   C15 3570   1.593   6.830   7.214  0.1014  0.3734  0.9254
   49CHL1  H15A 3571   1.698   6.861   7.199  0.9779 -0.5896  4.2723
   49CHL1  H15B 3572   1.525   6.897   7.156  1.8094  0.1404 -1.5029
   49CHL1   C16 3573   1.565   6.831   7.364  0.7808 -0.2592 -1.4758
   49CHL1  H16A 3574   1.655   6.855   7.425 -0.5562 -0.6676  0.7684
   49CHL1  H16B 3575   1.486   6.904   7.389  0.3777  0.3648 -4.2455
   49CHL1   C17 3576   1.539   6.683   7.406  0.1567 -0.0349 -0.1484
   49CHL1   H17 3577   1.432   6.657   7.398 -0.2912  2.0905 -2.0136
   49CHL1   C13 3578   1.605   6.597   7.293 -0.1612  0.2520 -0.3109
   49CHL1   C18 3579   1.756   6.587   7.321  0.1240  0.0018  0.4135
   49CHL1  H18A 3580   1.811   6.535   7.239  0.1438  1.4044 -0.5014
   49CHL1  H18B 3581   1.794   6.692   7.324  0.2496  0.0738 -1.7758
   49CHL1  H18C 3582   1.773   6.540   7.420  2.1361 -0.7881 -0.2672
   49CHL1   C12 3583   1.536   6.459   7.270 -0.3725 -0.5535  0.4698
   49CHL1  H12A 3584   1.554   6.390   7.356 -2.8083 -1.1224  0.5944
   49CHL1  H12B 3585   1.429   6.475   7.246  0.3130  0.7693 -1.9989
   49CHL1   C11 3586   1.590   6.392   7.139 -0.4284 -0.4655 -0.3123
   49CHL1  H11A 3587   1.693   6.356   7.162 -0.1061  0.5940 -0.0406
   49CHL1  H11B 3588   1.518   6.308   7.126 -3.1165  0.9224  3.7204
   49CHL1    C9 3589   1.590   6.491   7.021  0.7155  0.0550  0.3128
   49CHL1    H9 3590   1.483   6.512   7.004  0.5145 -0.7353  0.5773
   49CHL1   C10 3591   1.658   6.435   6.894 -0.0961  0.2866  0.2700
   49CHL1   C19 3592   1.801   6.395   6.928  0.1252  0.0398  0.1861
   49CHL1  H19A 3593   1.863   6.472   6.979 -3.4811  2.2783  1.6084
   49CHL1  H19B 3594   1.799   6.310   7.000 -1.3161 -0.4182 -0.3430
   49CHL1  H19C 3595   1.854   6.362   6.837 -2.3466  1.1744 -1.7951
   49CHL1    C1 3596   1.574   6.306   6.848 -0.0972 -0.1068 -0.2692
   49CHL1   H1A 3597   1.588   6.229   6.926  0.7078  0.5335  0.2324
   49CHL1   H1B 3598   1.468   6.339   6.845 -0.0307  0.0942 -2.4592
   49CHL1    C2 3599   1.610   6.255   6.700  0.2127  0.1339 -0.3399
   49CHL1   H2A 3600   1.542   6.169   6.687  1.1717 -1.2573  2.8065
   49CHL1   H2B 3601   1.713   6.213   6.699  0.2028  0.1135 -0.5132
   49CHL1   C20 3602   1.575   6.660   7.557  0.2617 -0.4549  0.3657
   49CHL1   H20 3603   1.682   6.687   7.572  0.0583  0.0371  0.9689
   49CHL1   C21 3604   1.546   6.529   7.609  0.4297 -0.3891 -0.1566
   49CHL1  H21A 3605   1.438   6.501   7.608  1.0222 -2.8130 -0.0374
   49CHL1  H21B 3606   1.581   6.513   7.712  1.0192  0.4830 -0.2085
   49CHL1  H21C 3607   1.592   6.448   7.549  2.0829  1.7638 -2.0016
   49CHL1   C22 3608   1.514   6.773   7.658 -0.0522  0.1725 -0.0797
   49CHL1  H22A 3609   1.529   6.880   7.635 -2.2897  0.3267 -1.1067
   49CHL1  H22B 3610   1.406   6.746   7.658  0.3346 -1.6666 -1.3890
   49CHL1   C23 3611   1.582   6.760   7.796 -0.1544 -0.0001 -0.3408
   49CHL1  H23A 3612   1.555   6.657   7.828  1.0426  0.2755  1.7476
   49CHL1  H23B 3613   1.691   6.757   7.776 -0.2586  0.7831 -1.0781
   49CHL1   C24 3614   1.550   6.868   7.903 -0.0762  0.5783  0.1536
   49CHL1  H24A 3615   1.568   6.970   7.863 -0.4203  0.0534 -1.3869
   49CHL1  H24B 3616   1.441   6.853   7.914 -0.0830  0.0717 -0.5316
   49CHL1   C25 3617   1.613   6.849   8.039  0.1391 -0.6149 -0.1388
   49CHL1   H25 3618   1.568   6.928   8.103  0.0131  0.1048 -1.0884
   49CHL1   C26 3619   1.593   6.705   8.098  0.2800 -0.3500  0.0731
   49CHL1  H26A 3620   1.485   6.682   8.086 -0.5385  3.3311 -0.8415
   49CHL1  H26B 3621   1.648   6.637   8.029  0.0819 -1.5467  1.0686
   49CHL1  H26C 3622   1.624   6.697   8.204 -0.6147  0.3791  0.3960
   49CHL1   C27 3623   1.762   6.885   8.049  0.1060 -0.2081 -0.3045
   49CHL1  H27A 3624   1.817   6.796   8.011  1.7093 -0.1386  1.6384
   49CHL1  H27B 3625   1.802   6.973   7.994  1.9286 -0.0082  1.1920
   49CHL1  H27C 3626   1.787   6.900   8.157 -3.0158 -0.1369  0.4810
   50CHL1    C3 3627   4.325   2.439   7.091 -0.7775 -0.0324  0.3107
   50CHL1    H3 3628   4.436   2.444   7.089 -0.7597 -0.5579 -0.4250
   50CHL1    O3 3629   4.270   2.454   6.961 -0.1042  0.5201 -0.6259
   50CHL1   H3' 3630   4.269   2.548   6.943 -1.8822  0.2699 -2.1053
   50CHL1    C4 3631   4.285   2.300   7.140  0.9540  0.0794  0.4656
   50CHL1   H4A 3632   4.174   2.295   7.137  0.9125  0.8300  0.6623
   50CHL1   H4B 3633   4.331   2.226   7.072  0.2224 -0.1576  0.2195
   50CHL1    C5 3634   4.326   2.261   7.283 -0.2617 -0.3334 -0.6182
   50CHL1    C6 3635   4.405   2.159   7.312 -0.0320  0.0362 -0.0165
   50CHL1    H6 3636   4.427   2.082   7.238 -1.5820 -0.2214 -0.2448
   50CHL1    C7 3637   4.438   2.121   7.457  0.0176 -0.3508  0.3143
   50CHL1   H7A 3638   4.399   2.023   7.491 -0.7486  0.3636  1.5742
   50CHL1   H7B 3639   4.547   2.110   7.474  0.2514  0.6987 -0.3887
   50CHL1    C8 3640   4.387   2.221   7.567  0.0303 -0.4863  0.2062
   50CHL1    H8 3641   4.280   2.192   7.581 -0.7052 -0.2688 -3.8574
   50CHL1   C14 3642   4.464   2.220   7.699  0.8338 -0.3865  0.0899
   50CHL1   H14 3643   4.565   2.257   7.674  0.5622 -0.6904 -1.5566
   50CHL1   C15 3644   4.489   2.086   7.771 -0.2686  0.2289  0.2559
   50CHL1  H15A 3645   4.395   2.027   7.777  0.6223 -1.6021 -1.9903
   50CHL1  H15B 3646   4.580   2.038   7.729  0.5207  1.5296  0.4421
   50CHL1   C16 3647   4.526   2.126   7.912  0.9377 -0.0769 -0.0218
   50CHL1  H16A 3648   4.456   2.067   7.976 -1.3376  0.8584 -1.4893
   50CHL1  H16B 3649   4.626   2.093   7.948 -0.5888 -1.8835  3.0162
   50CHL1   C17 3650   4.497   2.282   7.925  0.2512  0.2172  1.0123
   50CHL1   H17 3651   4.603   2.316   7.916  1.4943 -3.1052  1.6840
   50CHL1   C13 3652   4.408   2.318   7.802 -0.4542 -0.2141  0.0887
   50CHL1   C18 3653   4.254   2.290   7.835 -0.0661  0.4492 -0.6494
   50CHL1  H18A 3654   4.238   2.187   7.873  3.1988 -0.4028 -1.2566
   50CHL1  H18B 3655   4.223   2.364   7.911 -0.1489 -1.3334  1.1420
   50CHL1  H18C 3656   4.183   2.305   7.751 -1.3738  0.6459  0.4634
   50CHL1   C12 3657   4.423   2.464   7.751  0.3112 -0.3069  0.3242
   50CHL1  H12A 3658   4.383   2.538   7.823 -2.4211 -0.9639 -0.4129
   50CHL1  H12B 3659   4.532   2.484   7.744  0.6732 -1.7192  1.4066
   50CHL1   C11 3660   4.351   2.479   7.617 -0.4626 -0.4058  0.1233
   50CHL1  H11A 3661   4.243   2.480   7.645 -0.8738 -1.5399 -1.3103
   50CHL1  H11B 3662   4.381   2.575   7.570 -1.7605 -0.1412 -0.1938
   50CHL1    C9 3663   4.383   2.365   7.515 -0.2849 -0.2494  0.2414
   50CHL1    H9 3664   4.491   2.384   7.498 -0.0547 -1.0555  0.7196
   50CHL1   C10 3665   4.301   2.374   7.384 -0.4732 -0.1532  0.5138
   50CHL1   C19 3666   4.153   2.359   7.414 -0.1856  0.2882  0.5075
   50CHL1  H19A 3667   4.097   2.383   7.321  1.1847 -1.7419 -0.9290
   50CHL1  H19B 3668   4.132   2.256   7.449  4.2412 -0.9004  0.2638
   50CHL1  H19C 3669   4.121   2.431   7.492  0.0919  1.3073 -0.2887
   50CHL1    C1 3670   4.325   2.519   7.324 -0.5372  0.7517  0.0108
   50CHL1   H1A 3671   4.306   2.601   7.396  0.4463 -0.8589  2.2317
   50CHL1   H1B 3672   4.435   2.534   7.320 -0.3674 -0.6222 -0.9569
   50CHL1    C2 3673   4.269   2.546   7.182  0.0530 -0.2309  0.3029
   50CHL1   H2A 3674   4.299   2.646   7.144 -0.4899  0.6267  2.0363
   50CHL1   H2B 3675   4.158   2.547   7.184  0.0205 -1.7294  0.7913
   50CHL1   C20 3676   4.441   2.312   8.071 -0.1863  0.0133  0.8614
   50CHL1   H20 3677   4.349   2.251   8.086  0.2755 -1.2532 -1.0772
   50CHL1   C21 3678   4.410   2.458   8.086  0.0918  0.3929  0.0671
   50CHL1  H21A 3679   4.325   2.486   8.019  0.4398  1.8427  0.2064
   50CHL1  H21B 3680   4.492   2.525   8.054 -0.7461  2.2776  1.6609
   50CHL1  H21C 3681   4.389   2.478   8.193 -2.9841 -0.6748 -0.2190
   50CHL1   C22 3682   4.537   2.260   8.179 -0.3394 -0.1339 -0.0214
   50CHL1  H22A 3683   4.543   2.150   8.176  0.9775 -0.0733  0.1729
   50CHL1  H22B 3684   4.639   2.300   8.159 -0.2738 -0.9259 -1.4019
   50CHL1   C23 3685   4.493   2.288   8.328 -0.2598 -0.1882 -0.0109
   50CHL1  H23A 3686   4.509   2.396   8.350  0.2489 -0.2725  0.0567
   50CHL1  H23B 3687   4.383   2.277   8.334 -0.5039  1.0736 -1.4690
   50CHL1   C24 3688   4.573   2.208   8.421  0.2066  0.8768 -0.6665
   50CHL1  H24A 3689   4.567   2.098   8.407  1.6677  0.0463  3.5505
   50CHL1  H24B 3690   4.679   2.240   8.408  0.6273 -0.3492 -0.4204
   50CHL1   C25 3691   4.542   2.222   8.578  0.1246 -0.7428 -0.6432
   50CHL1   H25 3692   4.432   2.213   8.584  0.1174 -1.7762 -1.8927
   50CHL1   C26 3693   4.600   2.101   8.660  0.0770 -0.1979 -0.0602
   50CHL1  H26A 3694   4.707   2.124   8.641 -0.7410  3.2518 -1.1948
   50CHL1  H26B 3695   4.578   2.120   8.767 -0.3993 -2.2746  0.2530
   50CHL1  H26C 3696   4.566   2.002   8.622 -0.0946 -0.2611  0.2564
   50CHL1   C27 3697   4.600   2.355   8.635  0.6280  0.2838  0.7618
   50CHL1  H27A 3698   4.710   2.342   8.637  0.4268 -2.8601 -1.6087
   50CHL1  H27B 3699   4.578   2.440   8.567 -1.5620 -1.6328 -1.1009
   50CHL1  H27C 3700   4.561   2.362   8.739 -1.0334  1.8093  0.1017
   51CHL1    C3 3701   4.739   1.149   6.668 -0.2440  0.3651 -0.3881
   51CHL1    H3 3702   4.630   1.170   6.665 -0.1148  1.2024  0.3726
   51CHL1    O3 3703   4.791   1.125   6.533 -0.1411 -0.7897  0.6928
   51CHL1   H3' 3704   4.877   1.166   6.523 -0.3099 -0.7695 -0.9918
   51CHL1    C4 3705   4.810   1.269   6.722  0.4162 -0.4850  1.5525
   51CHL1   H4A 3706   4.920   1.260   6.706  0.0418 -0.6824 -1.7610
   51CHL1   H4B 3707   4.777   1.354   6.659  0.3238 -0.5662  1.4902
   51CHL1    C5 3708   4.763   1.294   6.860 -0.2744  0.0884 -0.6328
   51CHL1    C6 3709   4.704   1.405   6.907  0.3230  0.2843  0.3142
   51CHL1    H6 3710   4.685   1.489   6.837  0.6862 -0.7734 -1.0916
   51CHL1    C7 3711   4.679   1.425   7.053 -0.1641 -0.3728  0.1764
   51CHL1   H7A 3712   4.708   1.526   7.088 -1.1265  0.9433 -2.5242
   51CHL1   H7B 3713   4.570   1.409   7.069  0.1841 -1.5690  1.5975
   51CHL1    C8 3714   4.743   1.329   7.160 -0.0733  0.2510 -0.2159
   51CHL1    H8 3715   4.853   1.349   7.162  0.0034 -0.2127  0.8569
   51CHL1   C14 3716   4.684   1.335   7.303  0.7244  0.7391  1.1894
   51CHL1   H14 3717   4.581   1.292   7.306  0.5895  1.0045  0.5368
   51CHL1   C15 3718   4.665   1.466   7.386 -0.4436 -0.0023 -0.2769
   51CHL1  H15A 3719   4.758   1.525   7.367  0.9844 -2.0795 -0.0958
   51CHL1  H15B 3720   4.576   1.530   7.366  0.2609  0.8896 -0.6663
   51CHL1   C16 3721   4.687   1.428   7.541 -0.0330 -0.4644  0.3428
   51CHL1  H16A 3722   4.786   1.468   7.574 -0.3709  1.9606 -1.2894
   51CHL1  H16B 3723   4.605   1.470   7.604  0.7284  1.8390 -0.1043
   51CHL1   C17 3724   4.680   1.273   7.535 -0.1579 -0.0866 -0.5129
   51CHL1   H17 3725   4.573   1.246   7.525 -0.5300 -0.5258  3.0546
   51CHL1   C13 3726   4.746   1.236   7.404 -0.4358  0.2038 -0.6781
   51CHL1   C18 3727   4.896   1.255   7.418  0.4439 -0.4505 -1.4570
   51CHL1  H18A 3728   4.936   1.163   7.466 -1.2872 -0.3858  0.2350
   51CHL1  H18B 3729   4.950   1.257   7.321 -2.1332 -3.0855 -3.1099
   51CHL1  H18C 3730   4.927   1.339   7.484 -0.3782  1.2238 -3.1092
   51CHL1   C12 3731   4.715   1.094   7.345 -0.5546  0.5637 -0.2461
   51CHL1  H12A 3732   4.766   1.027   7.417  0.5396  1.3324 -0.2837
   51CHL1  H12B 3733   4.606   1.074   7.342 -0.3633 -0.4385 -0.7438
   51CHL1   C11 3734   4.779   1.070   7.210  0.4936 -0.2643  0.4551
   51CHL1  H11A 3735   4.890   1.057   7.216  0.7790 -0.0276 -2.7427
   51CHL1  H11B 3736   4.755   0.969   7.173  2.9271 -0.7334 -0.0389
   51CHL1    C9 3737   4.731   1.183   7.106 -0.1148  0.4164 -0.0977
   51CHL1    H9 3738   4.626   1.149   7.095 -1.1755  3.6562 -1.0601
   51CHL1   C10 3739   4.793   1.174   6.963 -0.0728 -0.7627  0.2134
   51CHL1   C19 3740   4.953   1.161   6.966  0.8601 -0.7906 -0.1972
   51CHL1  H19A 3741   5.002   1.153   6.867  0.5296 -1.9385 -0.2827
   51CHL1  H19B 3742   4.995   1.252   7.014 -0.5195 -0.0427 -0.3753
   51CHL1  H19C 3743   4.978   1.068   7.022 -0.6299 -0.7829  0.5125
   51CHL1    C1 3744   4.728   1.046   6.898  0.3246 -0.4642 -0.7882
   51CHL1   H1A 3745   4.760   0.954   6.951 -0.6080 -0.1319  0.3922
   51CHL1   H1B 3746   4.619   1.050   6.917  0.5743  0.8828  0.6242
   51CHL1    C2 3747   4.766   1.025   6.749 -0.1267 -0.1682 -0.2879
   51CHL1   H2A 3748   4.706   0.939   6.711  0.1990 -1.9461  2.8975
   51CHL1   H2B 3749   4.875   1.004   6.751  0.3592  2.1558  0.5318
   51CHL1   C20 3750   4.734   1.205   7.663 -0.4738  0.2204  0.5310
   51CHL1   H20 3751   4.841   1.177   7.654 -0.5561  0.6558 -2.5284
   51CHL1   C21 3752   4.647   1.078   7.690 -0.7359  0.3768  0.2065
   51CHL1  H21A 3753   4.698   1.020   7.770  0.2047  0.4254 -0.3444
   51CHL1  H21B 3754   4.643   1.012   7.600 -0.9074  0.7831 -0.0840
   51CHL1  H21C 3755   4.546   1.107   7.724 -0.3228  1.9140  0.1679
   51CHL1   C22 3756   4.719   1.294   7.790 -0.5754  0.3703 -0.3840
   51CHL1  H22A 3757   4.776   1.389   7.790  1.3389 -0.7123  0.3790
   51CHL1  H22B 3758   4.612   1.316   7.809 -0.3015  0.6852  0.8864
   51CHL1   C23 3759   4.757   1.229   7.927 -0.6246 -0.4392 -0.2465
   51CHL1  H23A 3760   4.685   1.148   7.954  0.5210 -1.2211  0.5561
   51CHL1  H23B 3761   4.851   1.173   7.908 -1.0103 -1.8328  1.5740
   51CHL1   C24 3762   4.756   1.320   8.044 -0.5937 -0.1831 -0.2922
   51CHL1  H24A 3763   4.829   1.401   8.020 -1.7506  0.8969 -0.2511
   51CHL1  H24B 3764   4.660   1.374   8.050  0.2153  1.6817 -2.3902
   51CHL1   C25 3765   4.800   1.249   8.176 -0.3794  0.2313 -0.2755
   51CHL1   H25 3766   4.752   1.149   8.182 -0.5262  0.3442  0.4719
   51CHL1   C26 3767   4.951   1.229   8.172 -0.1361  0.0109 -0.1809
   51CHL1  H26A 3768   4.998   1.329   8.184 -2.2821  1.1313 -0.5941
   51CHL1  H26B 3769   4.974   1.179   8.269 -1.9436  1.0069  0.8226
   51CHL1  H26C 3770   4.996   1.187   8.080  0.6009  3.1475 -1.4051
   51CHL1   C27 3771   4.756   1.326   8.303  0.6036  0.3177  0.2473
   51CHL1  H27A 3772   4.814   1.289   8.390  1.2130 -1.9356 -1.0429
   51CHL1  H27B 3773   4.767   1.435   8.285  0.8310  0.6467  2.1782
   51CHL1  H27C 3774   4.648   1.304   8.317  1.3084 -5.0176 -0.4937
   52CHL1    C3 3775   0.007   1.193   6.877 -0.2129 -0.6777 -0.8152
   52CHL1    H3 3776   0.097   1.252   6.906 -0.0165 -1.7073  0.8651
   52CHL1    O3 3777   0.022   1.161   6.744  0.2480  0.6787  0.4857
   52CHL1   H3' 3778  -0.065   1.122   6.727  1.5021 -2.1076 -0.2727
   52CHL1    C4 3779  -0.002   1.065   6.957 -0.0202  0.4078 -0.1373
   52CHL1   H4A 3780  -0.083   1.000   6.917 -0.1475  0.3343  0.2314
   52CHL1   H4B 3781   0.095   1.013   6.940  0.1253  0.3701  0.7606
   52CHL1    C5 3782  -0.021   1.110   7.100 -0.3655  0.7063  0.8800
   52CHL1    C6 3783   0.068   1.063   7.194 -0.2259  0.1728  0.2423
   52CHL1    H6 3784   0.154   1.003   7.162  0.2276  0.8991  0.0611
   52CHL1    C7 3785   0.055   1.097   7.339  0.2497  0.1234 -0.1896
   52CHL1   H7A 3786   0.096   1.013   7.399 -0.4610 -1.2285 -1.5103
   52CHL1   H7B 3787   0.126   1.178   7.366  0.1521 -0.6700  2.6915
   52CHL1    C8 3788  -0.088   1.136   7.377  0.1574  0.0793 -0.0521
   52CHL1    H8 3789  -0.149   1.043   7.385 -0.7156  0.6893  0.5248
   52CHL1   C14 3790  -0.088   1.191   7.515 -0.3443  0.4347 -0.6461
   52CHL1   H14 3791  -0.026   1.283   7.518 -0.6884  0.6474  1.9604
   52CHL1   C15 3792  -0.023   1.107   7.630  0.4095 -0.2784 -0.2471
   52CHL1  H15A 3793  -0.038   0.998   7.614 -0.2056 -0.2799  0.2367
   52CHL1  H15B 3794   0.082   1.142   7.635  0.7127 -1.3031  1.9698
   52CHL1   C16 3795  -0.100   1.158   7.757  0.0746 -1.0926 -0.5193
   52CHL1  H16A 3796  -0.166   1.078   7.795  1.0989 -0.7784  2.1416
   52CHL1  H16B 3797  -0.029   1.178   7.841  0.6464 -2.5087 -0.6422
   52CHL1   C17 3798  -0.188   1.279   7.705  0.9183  0.1093  0.2980
   52CHL1   H17 3799  -0.131   1.374   7.694 -0.7804  1.1721  0.1719
   52CHL1   C13 3800  -0.227   1.236   7.562  0.6291 -0.2233 -0.6676
   52CHL1   C18 3801  -0.319   1.114   7.575  0.4017 -0.1160 -0.1477
   52CHL1  H18A 3802  -0.274   1.018   7.606  2.7337 -0.2837 -3.4176
   52CHL1  H18B 3803  -0.415   1.140   7.624 -0.0758 -0.4124 -0.9092
   52CHL1  H18C 3804  -0.337   1.081   7.470  3.0322  1.2742 -1.1417
   52CHL1   C12 3805  -0.290   1.341   7.466  0.0430  0.5423  0.3912
   52CHL1  H12A 3806  -0.391   1.373   7.499 -0.1224 -0.5315  0.9629
   52CHL1  H12B 3807  -0.228   1.431   7.481 -0.6179  1.2072 -0.7091
   52CHL1   C11 3808  -0.291   1.296   7.327 -0.2364  0.1653  0.1828
   52CHL1  H11A 3809  -0.369   1.217   7.320  0.0085 -0.2200  1.5182
   52CHL1  H11B 3810  -0.318   1.390   7.273 -1.1193  0.6340  1.4050
   52CHL1    C9 3811  -0.146   1.240   7.281  0.3274  0.6399  0.0616
   52CHL1    H9 3812  -0.069   1.320   7.292 -0.9917  1.9233  0.2422
   52CHL1   C10 3813  -0.146   1.195   7.129  0.2183 -0.1950 -0.0970
   52CHL1   C19 3814  -0.268   1.104   7.111 -0.4333 -0.0575 -0.6067
   52CHL1  H19A 3815  -0.270   1.064   7.007  0.7009  1.0819 -1.0983
   52CHL1  H19B 3816  -0.272   1.020   7.183 -1.2776 -1.3017 -2.0415
   52CHL1  H19C 3817  -0.361   1.164   7.109  0.3464  1.2155 -0.0298
   52CHL1    C1 3818  -0.159   1.319   7.035 -0.8531  0.6315  0.1886
   52CHL1   H1A 3819  -0.264   1.355   7.044 -0.4358  1.3963  2.7807
   52CHL1   H1B 3820  -0.094   1.403   7.068 -0.1392 -0.3861  1.4782
   52CHL1    C2 3821  -0.117   1.276   6.891  0.2653  0.2833 -0.0616
   52CHL1   H2A 3822  -0.121   1.376   6.843 -2.0734 -0.4497 -1.5596
   52CHL1   H2B 3823  -0.199   1.212   6.851  0.8473  0.0567 -0.9318
   52CHL1   C20 3824  -0.296   1.313   7.808 -0.1657 -0.1048 -0.8278
   52CHL1   H20 3825  -0.374   1.234   7.812 -0.5097  0.2251 -0.9700
   52CHL1   C21 3826  -0.355   1.451   7.769  0.2674  0.3359 -0.1025
   52CHL1  H21A 3827  -0.278   1.519   7.727  0.0530  1.0687  0.6614
   52CHL1  H21B 3828  -0.403   1.499   7.857  1.4470 -0.5438  1.0712
   52CHL1  H21C 3829  -0.435   1.439   7.693  2.0012  1.0563 -2.1381
   52CHL1   C22 3830  -0.235   1.335   7.953  0.7547  0.0805 -0.2063
   52CHL1  H22A 3831  -0.323   1.366   8.012  1.4758  0.1188  0.8715
   52CHL1  H22B 3832  -0.217   1.237   8.002 -2.8777  0.4268  2.1580
   52CHL1   C23 3833  -0.122   1.428   7.979  0.5557 -0.5682 -0.0571
   52CHL1  H23A 3834  -0.040   1.406   7.907  0.0441  1.6164 -1.4162
   52CHL1  H23B 3835  -0.141   1.536   7.957 -2.2521 -0.8679  0.5020
   52CHL1   C24 3836  -0.050   1.401   8.114 -0.4245  0.0805 -0.4482
   52CHL1  H24A 3837  -0.131   1.410   8.189 -1.2868  0.4365 -1.3903
   52CHL1  H24B 3838  -0.020   1.294   8.108 -1.9657 -0.3922 -0.2740
   52CHL1   C25 3839   0.063   1.499   8.140 -0.0090  0.5062  0.2514
   52CHL1   H25 3840   0.146   1.494   8.066 -0.1254 -1.3840  0.1925
   52CHL1   C26 3841   0.016   1.647   8.126 -0.0718  0.8068 -0.0979
   52CHL1  H26A 3842   0.089   1.725   8.160  1.8406 -0.9832  0.0868
   52CHL1  H26B 3843  -0.015   1.674   8.023 -0.9425 -0.1333 -0.0946
   52CHL1  H26C 3844  -0.073   1.658   8.191  0.1286 -0.7773  0.4805
   52CHL1   C27 3845   0.134   1.469   8.274  0.2274 -0.3019  0.4516
   52CHL1  H27A 3846   0.240   1.500   8.264 -0.0195  0.7422  0.9021
   52CHL1  H27B 3847   0.082   1.513   8.362 -2.0589  0.0618 -0.9885
   52CHL1  H27C 3848   0.132   1.359   8.289  0.8283 -0.4425 -0.4235
   53CHL1    C3 3849   1.597   5.608   7.110 -0.6420  0.2030  0.6630
   53CHL1    H3 3850   1.705   5.625   7.092 -0.6749 -1.8019 -1.9586
   53CHL1    O3 3851   1.543   5.610   6.982  0.2284 -0.2354  0.9009
   53CHL1   H3' 3852   1.518   5.519   6.963 -0.4279  0.1429 -0.1353
   53CHL1    C4 3853   1.574   5.473   7.170 -0.4171 -0.1838 -0.1893
   53CHL1   H4A 3854   1.466   5.447   7.164 -0.1641 -2.3797  2.8423
   53CHL1   H4B 3855   1.628   5.391   7.118 -0.2697 -1.0776  1.3323
   53CHL1    C5 3856   1.619   5.467   7.311  0.4963  0.2827 -0.8500
   53CHL1    C6 3857   1.712   5.375   7.347 -0.1747 -0.3662  0.2026
   53CHL1    H6 3858   1.761   5.313   7.270 -2.5937 -0.7058 -1.1473
   53CHL1    C7 3859   1.750   5.355   7.492  0.0725 -0.1246  0.4169
   53CHL1   H7A 3860   1.737   5.248   7.519 -1.4995  0.2660  1.3661
   53CHL1   H7B 3861   1.852   5.386   7.522 -0.3211  1.2789  0.3696
   53CHL1    C8 3862   1.649   5.424   7.586  0.1295  0.0598 -0.2237
   53CHL1    H8 3863   1.559   5.359   7.584  0.7979 -0.8820 -0.7236
   53CHL1   C14 3864   1.698   5.433   7.733 -0.1559 -0.1700  0.4991
   53CHL1   H14 3865   1.785   5.501   7.724  0.8038 -1.4788 -0.7314
   53CHL1   C15 3866   1.763   5.307   7.800 -0.3092 -0.1488  0.0414
   53CHL1  H15A 3867   1.697   5.221   7.773 -1.9560  0.9806  0.3261
   53CHL1  H15B 3868   1.864   5.286   7.759 -0.5523 -1.2488 -0.0317
   53CHL1   C16 3869   1.765   5.337   7.946 -0.0141 -0.8613 -0.2678
   53CHL1  H16A 3870   1.719   5.263   8.015 -1.1236  0.0149 -0.0374
   53CHL1  H16B 3871   1.871   5.334   7.980 -0.2321 -2.2133  0.3386
   53CHL1   C17 3872   1.685   5.475   7.961  0.4209  0.4061  0.3933
   53CHL1   H17 3873   1.761   5.556   7.957  0.5308  0.4376  2.4009
   53CHL1   C13 3874   1.600   5.492   7.833 -0.3154  0.1063 -1.2305
   53CHL1   C18 3875   1.468   5.404   7.849  0.1438  0.0118 -0.3371
   53CHL1  H18A 3876   1.413   5.384   7.754  0.4417  0.9892 -0.7340
   53CHL1  H18B 3877   1.482   5.303   7.892  0.0723 -0.1086 -0.5924
   53CHL1  H18C 3878   1.403   5.458   7.920 -0.7558 -1.5073  0.0333
   53CHL1   C12 3879   1.567   5.638   7.798 -0.2891  0.2806 -0.0643
   53CHL1  H12A 3880   1.487   5.681   7.861 -0.1923 -0.8733  0.8721
   53CHL1  H12B 3881   1.660   5.699   7.796  0.4520 -0.7427 -3.1706
   53CHL1   C11 3882   1.517   5.639   7.655 -0.0954 -0.0818 -0.0011
   53CHL1  H11A 3883   1.413   5.600   7.657  0.6430 -2.2946 -1.2033
   53CHL1  H11B 3884   1.512   5.741   7.612  0.6756 -0.3195 -0.6875
   53CHL1    C9 3885   1.603   5.567   7.546 -1.0392  0.1815  0.0241
   53CHL1    H9 3886   1.701   5.621   7.548 -0.3730 -1.0042  0.3184
   53CHL1   C10 3887   1.545   5.575   7.402  0.3456  0.2339 -0.4437
   53CHL1   C19 3888   1.393   5.536   7.402 -0.2613  0.2847  0.0969
   53CHL1  H19A 3889   1.344   5.623   7.450  1.9645  0.8345  1.5250
   53CHL1  H19B 3890   1.363   5.524   7.296 -0.7136 -2.2104  0.4368
   53CHL1  H19C 3891   1.374   5.440   7.455 -1.3471 -0.7526 -2.0410
   53CHL1    C1 3892   1.571   5.714   7.337 -0.2790  0.1105  0.1128
   53CHL1   H1A 3893   1.507   5.787   7.391 -0.4870 -0.4902  0.6883
   53CHL1   H1B 3894   1.678   5.734   7.354 -0.2542 -1.9609  3.1396
   53CHL1    C2 3895   1.530   5.721   7.192  0.2732  0.6128 -0.3658
   53CHL1   H2A 3896   1.538   5.817   7.135 -3.5775  0.3225 -1.6885
   53CHL1   H2B 3897   1.420   5.707   7.186  0.2098  0.6228  0.6936
   53CHL1   C20 3898   1.611   5.515   8.096 -0.2489 -0.4931  0.2812
   53CHL1   H20 3899   1.537   5.595   8.074 -1.5594 -1.4659  0.9996
   53CHL1   C21 3900   1.728   5.588   8.184 -0.0499  0.1498  0.0866
   53CHL1  H21A 3901   1.754   5.681   8.129  1.2594 -1.4195 -2.0617
   53CHL1  H21B 3902   1.810   5.517   8.204 -1.1585 -0.6344  2.1623
   53CHL1  H21C 3903   1.685   5.620   8.282  1.1950  1.8160  0.1314
   53CHL1   C22 3904   1.543   5.407   8.175 -0.9472  0.1552 -0.1276
   53CHL1  H22A 3905   1.481   5.351   8.101  0.7576 -0.4547 -1.1448
   53CHL1  H22B 3906   1.609   5.328   8.216 -0.2884  1.0304  0.5274
   53CHL1   C23 3907   1.443   5.456   8.283  0.2063 -0.2494 -0.8631
   53CHL1  H23A 3908   1.416   5.367   8.344  1.5856 -0.6379 -0.7770
   53CHL1  H23B 3909   1.502   5.524   8.349  3.0645 -3.4212  0.1519
   53CHL1   C24 3910   1.311   5.514   8.225  0.2953 -0.2389  0.1118
   53CHL1  H24A 3911   1.341   5.594   8.153  2.3506 -0.5199  0.5857
   53CHL1  H24B 3912   1.256   5.438   8.166 -2.1246  0.8948  0.7988
   53CHL1   C25 3913   1.217   5.571   8.332  0.4445 -0.5422  0.5427
   53CHL1   H25 3914   1.242   5.675   8.363  2.3958 -0.3342 -1.4714
   53CHL1   C26 3915   1.081   5.582   8.271 -0.0152  0.2531 -0.2371
   53CHL1  H26A 3916   1.090   5.640   8.176 -1.4904  0.0780 -0.5101
   53CHL1  H26B 3917   1.030   5.484   8.259  1.4980 -0.7259  0.9531
   53CHL1  H26C 3918   1.024   5.654   8.333  1.3940  1.5865 -0.4202
   53CHL1   C27 3919   1.212   5.485   8.466  0.8848  0.0618  0.2296
   53CHL1  H27A 3920   1.203   5.376   8.444 -1.5500  0.1379  0.6061
   53CHL1  H27B 3921   1.306   5.515   8.517 -1.3590  3.6743  2.6873
   53CHL1  H27C 3922   1.127   5.514   8.531  1.4640 -2.2809  2.1811
   54CHL1    C3 3923   1.672   0.484   6.699  0.3596 -0.2762  0.3840
   54CHL1    H3 3924   1.561   0.484   6.692  0.3889  2.0011 -0.9033
   54CHL1    O3 3925   1.732   0.474   6.573  0.3206 -0.0265 -0.3570
   54CHL1   H3' 3926   1.825   0.462   6.592  0.5140  3.1092  1.2553
   54CHL1    C4 3927   1.713   0.613   6.759  0.3638 -0.2927 -0.8039
   54CHL1   H4A 3928   1.824   0.614   6.760  0.3602  0.6400  0.1015
   54CHL1   H4B 3929   1.693   0.706   6.702  1.3065  2.4511  3.0061
   54CHL1    C5 3930   1.675   0.617   6.911  0.6768  0.4419 -0.0925
   54CHL1    C6 3931   1.598   0.715   6.963  0.6070 -0.2379  0.1268
   54CHL1    H6 3932   1.567   0.797   6.897  2.0742  0.9555  0.8689
   54CHL1    C7 3933   1.561   0.740   7.111 -0.6456  0.5735 -0.0925
   54CHL1   H7A 3934   1.582   0.848   7.130  0.1238  0.8776 -2.3217
   54CHL1   H7B 3935   1.453   0.724   7.130 -0.0206 -0.9520  2.6817
   54CHL1    C8 3936   1.653   0.653   7.205  1.2946  0.0655  0.5454
   54CHL1    H8 3937   1.754   0.697   7.217  0.9248  0.9643  0.4838
   54CHL1   C14 3938   1.585   0.647   7.346  0.3355  1.1061  0.1195
   54CHL1   H14 3939   1.486   0.597   7.346  0.4658  0.7615  2.4107
   54CHL1   C15 3940   1.565   0.776   7.408  0.2592 -0.4226 -0.0125
   54CHL1  H15A 3941   1.650   0.843   7.382 -0.1562 -0.2627 -0.9927
   54CHL1  H15B 3942   1.474   0.833   7.379  0.5744 -1.0017 -2.3126
   54CHL1   C16 3943   1.574   0.753   7.556  0.0168 -0.1001 -0.4550
   54CHL1  H16A 3944   1.658   0.808   7.603 -0.2799  0.1659 -0.2209
   54CHL1  H16B 3945   1.494   0.778   7.629  0.6119 -2.6303  1.1881
   54CHL1   C17 3946   1.592   0.599   7.570  0.3775  0.1442  0.0348
   54CHL1   H17 3947   1.488   0.560   7.572 -0.0603  1.3025  1.4202
   54CHL1   C13 3948   1.663   0.560   7.435 -0.0191  0.3932 -0.1552
   54CHL1   C18 3949   1.813   0.607   7.461  0.7280  0.3873  0.1419
   54CHL1  H18A 3950   1.865   0.540   7.533  0.9711  2.0434  1.5732
   54CHL1  H18B 3951   1.868   0.598   7.365  0.1919 -1.8812 -0.0201
   54CHL1  H18C 3952   1.818   0.708   7.506 -1.2527  0.5210  0.1523
   54CHL1   C12 3953   1.666   0.417   7.384 -0.5211  0.4887 -0.3158
   54CHL1  H12A 3954   1.731   0.355   7.450  0.2833  1.1513 -0.4776
   54CHL1  H12B 3955   1.562   0.380   7.393 -0.3256  0.0415  0.1460
   54CHL1   C11 3956   1.715   0.411   7.240  0.4535  0.2551  0.5731
   54CHL1  H11A 3957   1.826   0.415   7.244  0.4568 -0.4084  1.4540
   54CHL1  H11B 3958   1.682   0.311   7.205  0.8192  0.4522 -0.3598
   54CHL1    C9 3959   1.659   0.513   7.145  0.4351  0.0137  0.3555
   54CHL1    H9 3960   1.554   0.479   7.136 -0.3737  2.4322 -0.3507
   54CHL1   C10 3961   1.716   0.504   7.000  0.8828  0.2923 -0.4890
   54CHL1   C19 3962   1.870   0.518   7.015  0.1602 -0.5088 -0.7080
   54CHL1  H19A 3963   1.917   0.513   6.914 -0.0981 -0.3356 -0.8358
   54CHL1  H19B 3964   1.901   0.612   7.065  1.3391  0.1912 -2.6307
   54CHL1  H19C 3965   1.903   0.430   7.074 -2.0625 -1.9258 -1.4669
   54CHL1    C1 3966   1.680   0.369   6.933  0.1364 -0.5411 -0.0633
   54CHL1   H1A 3967   1.740   0.289   6.982  1.0295 -0.2487 -0.6531
   54CHL1   H1B 3968   1.574   0.347   6.955 -0.3337  1.0379 -0.6428
   54CHL1    C2 3969   1.712   0.360   6.783 -0.1240 -0.8725  0.2577
   54CHL1   H2A 3970   1.656   0.271   6.745 -0.3417  0.1575 -2.0212
   54CHL1   H2B 3971   1.822   0.351   6.774  0.1971  2.2429  0.0242
   54CHL1   C20 3972   1.656   0.569   7.707  0.7444  0.6728 -0.0659
   54CHL1   H20 3973   1.760   0.609   7.715 -0.1996  3.0274  1.9125
   54CHL1   C21 3974   1.665   0.417   7.717 -0.0151  0.8046  0.6831
   54CHL1  H21A 3975   1.745   0.376   7.653  0.4553 -0.3107  1.9318
   54CHL1  H21B 3976   1.569   0.369   7.688  0.8707 -1.0380  0.6371
   54CHL1  H21C 3977   1.691   0.374   7.816  0.6722 -1.5199 -0.4316
   54CHL1   C22 3978   1.574   0.617   7.831 -0.0581 -0.5794 -0.2018
   54CHL1  H22A 3979   1.631   0.596   7.925  1.5031  0.3610 -0.8852
   54CHL1  H22B 3980   1.570   0.728   7.832  1.1605 -0.4765  2.3517
   54CHL1   C23 3981   1.431   0.575   7.834 -0.0876  0.0723 -0.2889
   54CHL1  H23A 3982   1.371   0.626   7.757 -1.5882 -1.3422 -0.1043
   54CHL1  H23B 3983   1.418   0.469   7.806  0.6311 -0.0399 -0.2241
   54CHL1   C24 3984   1.362   0.597   7.968 -0.3726 -0.0694 -0.4430
   54CHL1  H24A 3985   1.384   0.700   8.003 -3.1378  0.4965 -0.1401
   54CHL1  H24B 3986   1.251   0.598   7.956 -0.3087 -1.2354 -1.3918
   54CHL1   C25 3987   1.407   0.512   8.089  0.4079  0.4228  0.1146
   54CHL1   H25 3988   1.518   0.514   8.088  0.4160  2.5431 -1.3567
   54CHL1   C26 3989   1.347   0.556   8.225  0.3083  0.0113  0.1612
   54CHL1  H26A 3990   1.244   0.598   8.221  0.0926 -0.3346  1.4130
   54CHL1  H26B 3991   1.339   0.469   8.294 -0.6008  0.7280  1.0103
   54CHL1  H26C 3992   1.407   0.635   8.275 -1.9952  0.8384  1.8233
   54CHL1   C27 3993   1.357   0.368   8.067 -0.4039 -0.4171  0.6653
   54CHL1  H27A 3994   1.246   0.370   8.070 -0.4853  1.3991 -1.1868
   54CHL1  H27B 3995   1.386   0.323   7.970  1.9664  1.2995  0.4850
   54CHL1  H27C 3996   1.401   0.306   8.148  1.6745 -0.6339 -0.5612
   55CHL1    C3 3997   1.249   2.023   6.988  0.2792 -0.4809  0.4531
   55CHL1    H3 3998   1.314   1.934   7.004  1.6123  0.6726  1.6742
   55CHL1    O3 3999   1.232   2.025   6.845  0.5843 -0.0442  0.5947
   55CHL1   H3' 4000   1.296   2.090   6.813  1.1146  0.5067  2.6182
   55CHL1    C4 4001   1.109   2.019   7.043  0.0467 -0.2972  0.3763
   55CHL1   H4A 4002   1.046   2.092   6.987 -0.8484 -1.1774  0.2135
   55CHL1   H4B 4003   1.065   1.923   7.009 -2.8824  0.7429  0.9598
   55CHL1    C5 4004   1.087   2.024   7.189 -0.3345 -0.1113 -0.0613
   55CHL1    C6 4005   1.016   1.930   7.266 -0.0040 -0.3077  0.6057
   55CHL1    H6 4006   0.965   1.843   7.222 -0.4949  0.7504 -1.0375
   55CHL1    C7 4007   0.997   1.953   7.414 -0.5736 -0.1041 -0.2551
   55CHL1   H7A 4008   0.890   1.930   7.435 -0.9902  1.3476 -0.6465
   55CHL1   H7B 4009   1.062   1.872   7.450  3.3573  2.2925 -1.3293
   55CHL1    C8 4010   1.046   2.088   7.471 -0.3372 -0.7006 -0.0009
   55CHL1    H8 4011   0.973   2.165   7.436 -0.5193 -0.8495  0.0537
   55CHL1   C14 4012   1.060   2.079   7.622 -0.0892 -0.0333 -0.1604
   55CHL1   H14 4013   1.145   2.009   7.636  1.3568  1.7948  0.6393
   55CHL1   C15 4014   0.935   2.016   7.702  0.0547  0.3370 -0.3655
   55CHL1  H15A 4015   0.845   2.073   7.670  1.8869  2.2990 -2.3825
   55CHL1  H15B 4016   0.920   1.906   7.709  2.4484  0.0193  0.8998
   55CHL1   C16 4017   0.961   2.066   7.844  0.2779 -0.0193  0.1821
   55CHL1  H16A 4018   0.866   2.118   7.871  1.3854  1.0119  2.3084
   55CHL1  H16B 4019   0.976   1.982   7.914  0.3578 -1.4356 -1.4557
   55CHL1   C17 4020   1.078   2.164   7.839  0.0132  0.4451  0.1573
   55CHL1   H17 4021   1.165   2.103   7.871 -0.3484  0.2009  0.6769
   55CHL1   C13 4022   1.092   2.206   7.687 -1.2250 -0.4608 -0.4131
   55CHL1   C18 4023   0.977   2.313   7.669 -0.0246 -0.0664  0.2217
   55CHL1  H18A 4024   0.881   2.287   7.718 -0.2828  0.9904  0.2892
   55CHL1  H18B 4025   1.027   2.403   7.710 -1.4075  1.1670 -0.7197
   55CHL1  H18C 4026   0.977   2.342   7.561  2.3614  2.4119  0.7801
   55CHL1   C12 4027   1.230   2.253   7.626  0.5041 -0.7853  0.0051
   55CHL1  H12A 4028   1.244   2.355   7.666 -0.9342  0.3820 -2.2418
   55CHL1  H12B 4029   1.313   2.190   7.663  3.0743  1.6488 -1.2688
   55CHL1   C11 4030   1.232   2.258   7.475 -0.3246  0.2075 -0.2869
   55CHL1  H11A 4031   1.157   2.336   7.453 -1.8307 -0.8742  0.7309
   55CHL1  H11B 4032   1.329   2.291   7.434  0.2500  0.6110  1.3228
   55CHL1    C9 4033   1.181   2.123   7.410  0.3752  0.8730 -0.7924
   55CHL1    H9 4034   1.241   2.032   7.435 -2.5950 -0.8746  0.5881
   55CHL1   C10 4035   1.168   2.137   7.257 -1.0605 -0.2787  0.5259
   55CHL1   C19 4036   1.088   2.270   7.222 -0.3614  0.4922  0.4569
   55CHL1  H19A 4037   1.064   2.270   7.114  2.0560 -1.4274 -0.1815
   55CHL1  H19B 4038   0.988   2.285   7.269 -0.1821 -3.1041  2.3753
   55CHL1  H19C 4039   1.162   2.351   7.239  0.7845 -0.4628  0.2178
   55CHL1    C1 4040   1.314   2.143   7.201  0.4210  0.5024 -0.8927
   55CHL1   H1A 4041   1.363   2.237   7.235  3.8643 -1.1268 -0.9701
   55CHL1   H1B 4042   1.370   2.056   7.240 -1.1477  0.5684  1.7570
   55CHL1    C2 4043   1.326   2.144   7.048  0.2825 -0.3216  0.0484
   55CHL1   H2A 4044   1.434   2.129   7.027  0.2146  1.5039 -2.0447
   55CHL1   H2B 4045   1.283   2.237   7.005  0.2855  0.8733  2.4656
   55CHL1   C20 4046   1.068   2.276   7.947  0.0601  0.0437  0.1175
   55CHL1   H20 4047   0.984   2.346   7.931  0.8373  1.0319  0.2521
   55CHL1   C21 4048   1.196   2.356   7.938  0.4343 -0.5347 -0.2738
   55CHL1  H21A 4049   1.204   2.428   8.023  2.4590 -1.6875  0.6021
   55CHL1  H21B 4050   1.179   2.427   7.854  1.3499  1.3768  1.0685
   55CHL1  H21C 4051   1.288   2.293   7.930  0.8229 -0.6897  3.4809
   55CHL1   C22 4052   1.043   2.219   8.091  0.0863 -0.1187  0.0370
   55CHL1  H22A 4053   1.034   2.308   8.156 -2.2256 -0.5975  0.4534
   55CHL1  H22B 4054   0.949   2.159   8.092  0.4161 -0.6395  0.2967
   55CHL1   C23 4055   1.154   2.119   8.154  0.6525 -0.0270  1.4157
   55CHL1  H23A 4056   1.171   2.044   8.074  0.5493  1.5530 -0.1453
   55CHL1  H23B 4057   1.248   2.179   8.154 -0.6566  2.1030  1.0632
   55CHL1   C24 4058   1.123   2.059   8.293 -0.3108  0.0356  0.3058
   55CHL1  H24A 4059   1.217   2.011   8.329 -1.2160 -1.6686  0.4717
   55CHL1  H24B 4060   1.103   2.146   8.359  1.3193  0.3251  0.4778
   55CHL1   C25 4061   0.993   1.969   8.297 -0.7847 -0.2326 -0.2230
   55CHL1   H25 4062   0.901   2.026   8.276 -0.4692 -0.0652 -1.2256
   55CHL1   C26 4063   1.011   1.836   8.216 -0.2018 -0.2765 -0.1679
   55CHL1  H26A 4064   1.018   1.875   8.112 -1.4326  1.6949  0.4456
   55CHL1  H26B 4065   1.101   1.775   8.239 -0.7238 -0.3101  2.0112
   55CHL1  H26C 4066   0.919   1.775   8.228  0.6930 -1.4933  0.8021
   55CHL1   C27 4067   0.978   1.926   8.449 -0.1640  0.1306  0.9403
   55CHL1  H27A 4068   0.894   1.856   8.467  0.2271  0.1220  2.8808
   55CHL1  H27B 4069   1.073   1.878   8.481 -0.2027 -0.8246 -0.2943
   55CHL1  H27C 4070   0.960   2.019   8.506  1.9791  1.1436  0.0743
   56CHL1    C3 4071   6.574   2.599   6.697 -0.2798 -0.1878 -0.4346
   56CHL1    H3 4072   6.673   2.587   6.745 -0.2680 -1.2410 -0.6973
   56CHL1    O3 4073   6.579   2.627   6.556  0.0077 -0.4077 -0.4309
   56CHL1   H3' 4074   6.489   2.659   6.541  0.0264  0.7318  1.5945
   56CHL1    C4 4075   6.495   2.466   6.718  0.1935  0.5938 -1.1521
   56CHL1   H4A 4076   6.401   2.478   6.661 -0.2151 -1.1759 -0.8978
   56CHL1   H4B 4077   6.532   2.372   6.671 -0.6001 -0.3910  0.1405
   56CHL1    C5 4078   6.478   2.416   6.856 -0.1805 -0.4619  0.1380
   56CHL1    C6 4079   6.519   2.297   6.908 -0.0384 -0.1621  0.6756
   56CHL1    H6 4080   6.554   2.220   6.837  1.1944  0.8347  0.1610
   56CHL1    C7 4081   6.502   2.259   7.052 -0.9087  0.0373 -0.3140
   56CHL1   H7A 4082   6.455   2.159   7.063  0.8067 -0.6753  1.0904
   56CHL1   H7B 4083   6.606   2.241   7.087  0.1596  1.8097 -2.3723
   56CHL1    C8 4084   6.428   2.348   7.139  0.3115 -0.1419 -0.5440
   56CHL1    H8 4085   6.318   2.347   7.124 -0.1099 -1.9277  1.9801
   56CHL1   C14 4086   6.461   2.322   7.292  0.2597  0.3416 -0.3234
   56CHL1   H14 4087   6.568   2.349   7.295  0.1212  0.9219 -0.5293
   56CHL1   C15 4088   6.449   2.176   7.342 -0.0829  0.5491 -0.8904
   56CHL1  H15A 4089   6.359   2.124   7.301  0.1650 -0.8541  0.2330
   56CHL1  H15B 4090   6.539   2.111   7.328  0.1039  0.1033  1.7353
   56CHL1   C16 4091   6.429   2.200   7.495 -0.2950 -0.1184 -0.5857
   56CHL1  H16A 4092   6.322   2.180   7.515 -1.6926  4.6068 -2.0139
   56CHL1  H16B 4093   6.489   2.143   7.568  1.9969  0.0410 -2.2365
   56CHL1   C17 4094   6.434   2.358   7.516  0.1126  1.2869  0.6655
   56CHL1   H17 4095   6.544   2.374   7.515  0.1318  1.1470  0.4766
   56CHL1   C13 4096   6.380   2.408   7.387  0.5582  0.5895 -0.0786
   56CHL1   C18 4097   6.226   2.378   7.372 -0.3212 -0.2683  0.4882
   56CHL1  H18A 4098   6.178   2.421   7.282 -1.0613 -2.3682 -0.1771
   56CHL1  H18B 4099   6.215   2.267   7.376  0.0195 -0.4247 -1.8304
   56CHL1  H18C 4100   6.180   2.424   7.463  0.6430 -1.9328  1.8841
   56CHL1   C12 4101   6.411   2.552   7.355  0.3455  0.1756 -0.1372
   56CHL1  H12A 4102   6.361   2.624   7.423 -1.0210 -2.7498  2.1364
   56CHL1  H12B 4103   6.517   2.581   7.370  0.5789 -0.2356 -0.9182
   56CHL1   C11 4104   6.378   2.586   7.206  0.3468  0.0700 -0.0870
   56CHL1  H11A 4105   6.267   2.586   7.204  0.3453 -1.0216 -1.2003
   56CHL1  H11B 4106   6.409   2.692   7.203 -1.4423  0.8412  3.6014
   56CHL1    C9 4107   6.452   2.493   7.103 -0.4925 -0.5387  0.0568
   56CHL1    H9 4108   6.561   2.497   7.122 -0.3536 -0.5686 -0.6784
   56CHL1   C10 4109   6.425   2.527   6.954 -0.0052 -0.0039  0.3577
   56CHL1   C19 4110   6.272   2.522   6.925  0.1021  0.5325 -0.2656
   56CHL1  H19A 4111   6.237   2.416   6.927  0.9741  0.2461  0.3793
   56CHL1  H19B 4112   6.212   2.584   6.994  0.4110  0.3475  0.1751
   56CHL1  H19C 4113   6.254   2.552   6.820  0.0369  0.2683 -0.3311
   56CHL1    C1 4114   6.486   2.666   6.926 -0.1543 -0.1667  0.3678
   56CHL1   H1A 4115   6.416   2.738   6.973 -1.5145 -2.5164  2.1903
   56CHL1   H1B 4116   6.587   2.673   6.971  0.9979 -1.2936 -1.8949
   56CHL1    C2 4117   6.502   2.708   6.780  1.1278 -0.5711 -0.3687
   56CHL1   H2A 4118   6.551   2.806   6.764  0.7557 -0.2320  0.5479
   56CHL1   H2B 4119   6.400   2.720   6.739  0.4550 -1.1694  1.0672
   56CHL1   C20 4120   6.384   2.419   7.655 -0.2546  0.4652  0.3058
   56CHL1   H20 4121   6.275   2.440   7.655  0.0357  2.1544 -0.6159
   56CHL1   C21 4122   6.474   2.537   7.684 -0.6179 -0.3734 -0.4839
   56CHL1  H21A 4123   6.441   2.599   7.771  1.6005 -1.5305  1.2700
   56CHL1  H21B 4124   6.490   2.598   7.592  1.5366 -0.9744 -0.5407
   56CHL1  H21C 4125   6.574   2.495   7.702  0.6112  1.9577 -1.4153
   56CHL1   C22 4126   6.398   2.309   7.765 -0.3174 -0.0259  0.1487
   56CHL1  H22A 4127   6.325   2.227   7.751 -0.6257  0.0333  1.3136
   56CHL1  H22B 4128   6.500   2.266   7.757 -1.0149 -1.3930 -2.4882
   56CHL1   C23 4129   6.364   2.378   7.895  0.3839 -0.1021 -0.0080
   56CHL1  H23A 4130   6.442   2.452   7.924 -1.1216  1.6056 -0.1429
   56CHL1  H23B 4131   6.268   2.430   7.875  0.9937  0.1390 -2.6631
   56CHL1   C24 4132   6.340   2.279   8.005 -0.5835  0.7115 -0.0598
   56CHL1  H24A 4133   6.256   2.217   7.967 -1.1373  2.1818 -1.3676
   56CHL1  H24B 4134   6.429   2.214   8.017 -0.3788  1.1175  0.7108
   56CHL1   C25 4135   6.320   2.347   8.146  0.5211 -0.1716  0.2807
   56CHL1   H25 4136   6.391   2.431   8.157 -2.8888  2.9043  0.6300
   56CHL1   C26 4137   6.177   2.394   8.155 -0.4277 -0.0739  0.6992
   56CHL1  H26A 4138   6.097   2.317   8.146  0.4244 -1.0457  1.2157
   56CHL1  H26B 4139   6.156   2.470   8.076 -0.1868 -1.4830 -0.7778
   56CHL1  H26C 4140   6.162   2.444   8.253 -1.3308  0.3819  0.3453
   56CHL1   C27 4141   6.337   2.239   8.249  0.6168 -0.3008  0.1567
   56CHL1  H27A 4142   6.311   2.275   8.351  3.5377 -0.6229  1.1038
   56CHL1  H27B 4143   6.279   2.150   8.215 -0.4947 -0.4117  2.1996
   56CHL1  H27C 4144   6.447   2.226   8.252  0.6109 -0.2097  0.8394
   57SAPC     N 4145   1.006   2.903  10.653  0.1047  0.2568 -0.2452
   57SAPC   C12 4146   1.087   3.028  10.604  0.0047  0.9902  0.4768
   57SAPC  H12A 4147   1.170   2.989  10.549 -1.9452 -1.0486 -1.1920
   57SAPC  H12B 4148   1.126   3.077  10.692 -1.3718 -2.2622  3.1318
   57SAPC   C13 4149   0.957   2.822  10.546  0.0743 -0.2370  0.5231
   57SAPC  H13A 4150   0.904   2.878  10.469 -4.0952 -3.6947  0.5195
   57SAPC  H13B 4151   1.031   2.766  10.492  0.1674  1.6307 -1.4556
   57SAPC  H13C 4152   0.887   2.747  10.578 -2.1634  0.8422 -1.4743
   57SAPC   C14 4153   1.098   2.821  10.730 -0.3554 -1.1732  0.2808
   57SAPC  H14A 4154   1.113   2.865  10.827  0.4925 -1.5838  0.3500
   57SAPC  H14B 4155   1.055   2.723  10.748  0.4615 -1.8976 -1.4416
   57SAPC  H14C 4156   1.195   2.794  10.690  0.2960  1.4891 -0.0872
   57SAPC   C15 4157   0.880   2.942  10.725  1.0268  0.2135  0.3940
   57SAPC  H15A 4158   0.885   3.000  10.816 -1.4450  0.4734  0.4267
   57SAPC  H15B 4159   0.815   2.998  10.659  0.5231  1.3740  1.8077
   57SAPC  H15C 4160   0.832   2.847  10.747 -0.2085 -0.0000 -2.6797
   57SAPC   C11 4161   1.001   3.133  10.530 -0.8894 -0.0430 -0.3231
   57SAPC  H11A 4162   0.942   3.101  10.442 -0.8609  2.1252 -1.2068
   57SAPC  H11B 4163   1.077   3.196  10.479 -0.9312 -1.0424 -1.6544
   57SAPC     P 4164   0.963   3.297  10.734 -0.4920  0.1029  0.0848
   57SAPC   O13 4165   0.844   3.344  10.805  0.0556  0.9004 -0.6918
   57SAPC   O14 4166   1.062   3.224  10.812  0.1532  0.2691 -0.4352
   57SAPC   O12 4167   0.916   3.210  10.614  0.1734  0.1675 -0.0566
   57SAPC   O11 4168   1.039   3.426  10.668  0.2385 -0.3373  0.0247
   57SAPC    C1 4169   0.948   3.508  10.600  0.5782 -0.7658 -0.0774
   57SAPC    HA 4170   0.843   3.508  10.638  0.5649  1.5550  0.0398
   57SAPC    HB 4171   0.991   3.610  10.612  2.3635 -1.4349 -0.4635
   57SAPC    C2 4172   0.932   3.486  10.445 -1.6995 -0.0603 -0.7579
   57SAPC    HS 4173   0.873   3.392  10.434 -2.5378  0.5595 -1.6498
   57SAPC   O21 4174   1.067   3.484  10.382 -0.1531  0.0908  0.3659
   57SAPC   C21 4175   1.070   3.396  10.281  0.0291 -0.6502 -0.2504
   57SAPC   O22 4176   0.986   3.314  10.263  0.1987  0.3872  0.4671
   57SAPC   C22 4177   1.184   3.429  10.192 -0.8619 -0.4977 -0.2466
   57SAPC   H2R 4178   1.184   3.537  10.167  0.9857 -0.5626 -0.6690
   57SAPC   H2S 4179   1.279   3.407  10.245 -1.4131 -2.5873 -0.0575
   57SAPC    C3 4180   0.847   3.594  10.383 -0.1760 -0.9259  0.4057
   57SAPC    HX 4181   0.912   3.681  10.361  0.1749 -1.4839 -0.8451
   57SAPC    HY 4182   0.770   3.638  10.449 -0.5009  0.7637 -1.0139
   57SAPC   O31 4183   0.784   3.557  10.264 -0.4007 -0.1138 -0.1711
   57SAPC   C31 4184   0.668   3.488  10.283  0.1684 -0.5339  0.2469
   57SAPC   O32 4185   0.630   3.452  10.393 -0.0765  0.2841  0.0773
   57SAPC   C32 4186   0.589   3.477  10.156  0.4107 -0.2162  0.1039
   57SAPC   H2X 4187   0.611   3.564  10.092  0.7044  0.2131  0.7737
   57SAPC   H2Y 4188   0.481   3.483  10.181  0.7072  2.7088  1.0654
   57SAPC   C23 4189   1.183   3.345  10.061  0.8533  0.0794  0.2967
   57SAPC   H3R 4190   1.138   3.247  10.087 -1.0170  0.3936 -1.5021
   57SAPC   H3S 4191   1.288   3.322  10.031 -0.1679 -1.5445 -2.4623
   57SAPC   C24 4192   1.108   3.399   9.937  0.2323  0.5984  0.1646
   57SAPC   H4R 4193   1.124   3.329   9.853  0.5456 -1.6383  1.9882
   57SAPC   H4S 4194   1.157   3.498   9.921  0.2991  0.8501  1.7265
   57SAPC   C25 4195   0.966   3.409   9.948  1.0488 -0.2321  0.4273
   57SAPC   H5R 4196   0.927   3.352  10.034  0.3956  0.6579  0.7350
   57SAPC   C26 4197   0.880   3.486   9.873 -0.6916  0.1936  0.1510
   57SAPC   H6R 4198   0.770   3.479   9.885 -0.6227 -0.5117  0.4792
   57SAPC   C27 4199   0.921   3.585   9.764 -0.9988  0.1660  0.0517
   57SAPC   H7R 4200   1.031   3.602   9.773 -0.8087 -0.2752 -1.2037
   57SAPC   H7S 4201   0.868   3.680   9.786  0.1127  0.3817  2.0496
   57SAPC   C28 4202   0.893   3.530   9.622 -0.1573 -0.2596 -0.3817
   57SAPC   H8R 4203   0.883   3.420   9.614 -1.5395 -0.2155  0.4397
   57SAPC   C29 4204   0.878   3.608   9.509 -0.1012 -0.8771  0.4908
   57SAPC   H9R 4205   0.850   3.560   9.413 -0.5913  1.5342 -0.6419
   57SAPC  C210 4206   0.906   3.760   9.505  0.5584  0.3811 -0.2619
   57SAPC  H10R 4207   0.958   3.789   9.411  2.0488 -1.6161 -0.1056
   57SAPC  H10S 4208   0.974   3.788   9.588 -0.4347 -3.5636  2.1462
   57SAPC  C211 4209   0.773   3.833   9.515 -0.0833  0.4316  0.4255
   57SAPC  H11R 4210   0.726   3.831   9.614 -1.5525 -0.9172 -0.2516
   57SAPC  C212 4211   0.695   3.886   9.419  0.3005 -0.2065 -0.2017
   57SAPC  H12R 4212   0.601   3.935   9.448 -0.2712 -0.1351 -2.0418
   57SAPC  C213 4213   0.730   3.892   9.274 -0.3629 -0.6083 -0.4365
   57SAPC  H13R 4214   0.668   3.814   9.226 -1.8629  1.4451 -2.0425
   57SAPC  H13S 4215   0.835   3.862   9.254 -0.7371 -2.6712  0.4766
   57SAPC  C214 4216   0.703   4.026   9.216 -0.0416 -0.2281 -0.1068
   57SAPC  H14R 4217   0.675   4.102   9.290  0.1703  1.3203 -1.5368
   57SAPC  C215 4218   0.729   4.060   9.089 -0.1987  0.5152 -0.0895
   57SAPC  H15R 4219   0.701   4.156   9.044  0.6827 -0.1995 -2.3091
   57SAPC  C216 4220   0.788   3.970   8.984 -0.3398  0.0943  0.2800
   57SAPC  H16R 4221   0.756   3.976   8.878  0.0982  3.4865  0.2321
   57SAPC  H16S 4222   0.773   3.862   9.007  0.8738 -0.7301 -2.3803
   57SAPC  C217 4223   0.944   3.979   9.002  0.0264 -0.4300  0.2874
   57SAPC  H17R 4224   0.986   3.955   9.102  0.7101  0.9517  0.3660
   57SAPC  H17S 4225   0.983   4.082   8.988 -0.9888 -0.1789 -0.8528
   57SAPC  C218 4226   1.029   3.882   8.911  0.3055  0.4047  0.5871
   57SAPC  H18R 4227   0.990   3.878   8.807  0.1664  1.7482  0.5723
   57SAPC  H18S 4228   1.023   3.779   8.952  0.5487  0.2931  0.3444
   57SAPC  C219 4229   1.175   3.930   8.910 -0.1415  0.0199 -1.1370
   57SAPC  H19R 4230   1.246   3.849   8.886  0.7292  1.0280 -2.0637
   57SAPC  H19S 4231   1.207   3.960   9.012 -1.5322 -1.5320 -0.1980
   57SAPC  C220 4232   1.200   4.041   8.812  0.3290 -0.7731  0.1924
   57SAPC  H20R 4233   1.307   4.071   8.816  0.7202 -1.9950 -0.2515
   57SAPC  H20S 4234   1.148   4.138   8.826  1.4081 -0.0109 -0.8641
   57SAPC  H20T 4235   1.170   4.006   8.710  2.2025 -0.0385 -0.6574
   57SAPC   C33 4236   0.618   3.340  10.079  0.2559 -0.0809 -0.1296
   57SAPC   H3X 4237   0.594   3.255  10.146 -0.3941 -0.4084 -0.7646
   57SAPC   H3Y 4238   0.722   3.329  10.041  0.3790  0.7000 -0.0386
   57SAPC   C34 4239   0.526   3.337   9.951 -0.4183  0.2707  0.6615
   57SAPC   H4X 4240   0.558   3.416   9.879 -3.1236  1.7348  0.9054
   57SAPC   H4Y 4241   0.428   3.378   9.982 -0.0842  1.5928  0.0555
   57SAPC   C35 4242   0.520   3.203   9.876  0.5897 -0.0623 -0.3319
   57SAPC   H5X 4243   0.458   3.140   9.944 -1.4035  0.3648 -1.6645
   57SAPC   H5Y 4244   0.618   3.158   9.850  1.2205 -0.2635  2.0885
   57SAPC   C36 4245   0.429   3.212   9.751  0.3438 -0.3123  0.7005
   57SAPC   H6X 4246   0.349   3.279   9.787  1.5208  1.4085  0.2693
   57SAPC   H6Y 4247   0.391   3.116   9.708  1.3912 -0.1036 -0.7910
   57SAPC   C37 4248   0.504   3.280   9.636  0.2977  0.2689 -0.2026
   57SAPC   H7X 4249   0.575   3.200   9.606 -0.9089 -1.5264  1.4635
   57SAPC   H7Y 4250   0.561   3.372   9.661  1.4894  0.1083 -2.1167
   57SAPC   C38 4251   0.414   3.306   9.514 -0.2374 -0.1280  0.4296
   57SAPC   H8X 4252   0.319   3.357   9.539 -1.6833 -2.0646 -0.8585
   57SAPC   H8Y 4253   0.361   3.213   9.483 -3.2409  1.8546 -0.7615
   57SAPC   C39 4254   0.478   3.380   9.391  0.5728 -0.8224  0.6771
   57SAPC   H9X 4255   0.399   3.364   9.315 -0.8399  0.3822  1.8454
   57SAPC   H9Y 4256   0.571   3.321   9.375  0.0612 -1.5198  0.2007
   57SAPC  C310 4257   0.477   3.527   9.400  0.4906  0.3300 -0.7751
   57SAPC  H10X 4258   0.567   3.574   9.445  1.8335 -2.7023 -0.0431
   57SAPC  H10Y 4259   0.389   3.558   9.459  1.1895 -0.4329  0.7030
   57SAPC  C311 4260   0.456   3.597   9.269 -0.4569 -0.6047  0.5555
   57SAPC  H11X 4261   0.478   3.705   9.285  0.0147 -0.0826 -2.8545
   57SAPC  H11Y 4262   0.349   3.578   9.245  0.2745 -2.2092 -1.7629
   57SAPC  C312 4263   0.540   3.547   9.152 -0.2536 -0.0162 -0.6469
   57SAPC  H12X 4264   0.525   3.438   9.135 -1.0258 -0.2113  1.0976
   57SAPC  H12Y 4265   0.641   3.558   9.197 -1.0734 -1.4378  1.7054
   57SAPC  C313 4266   0.530   3.618   9.018 -0.2792 -0.0197 -0.3508
   57SAPC  H13X 4267   0.526   3.727   9.039  0.5300 -0.2718  1.3431
   57SAPC  H13Y 4268   0.437   3.592   8.962 -1.1075  1.0690  0.4590
   57SAPC  C314 4269   0.665   3.590   8.944 -0.2458  0.0185 -0.2851
   57SAPC  H14X 4270   0.755   3.629   8.997 -1.5852  1.0039  1.3544
   57SAPC  H14Y 4271   0.650   3.651   8.852  0.5472  0.1611 -0.3237
   57SAPC  C315 4272   0.683   3.442   8.890  0.0576  0.0121  0.5509
   57SAPC  H15X 4273   0.610   3.418   8.810  1.1216 -1.1700 -0.1083
   57SAPC  H15Y 4274   0.673   3.363   8.967 -1.3573 -2.5316 -2.0450
   57SAPC  C316 4275   0.816   3.436   8.817 -0.9002  0.2934  0.0385
   57SAPC  H16X 4276   0.895   3.478   8.883  1.1697 -2.9063 -0.2069
   57SAPC  H16Y 4277   0.810   3.488   8.719 -0.6425  1.1567  0.4698
   57SAPC  C317 4278   0.867   3.289   8.781 -0.0017  0.5420 -0.1650
   57SAPC  H17X 4279   0.806   3.273   8.690 -1.4066  1.2600  0.6229
   57SAPC  H17Y 4280   0.833   3.218   8.859  1.6269  2.1480  2.1500
   57SAPC  C318 4281   1.009   3.283   8.745 -0.7636 -0.1995 -0.0575
   57SAPC  H18X 4282   1.077   3.322   8.825 -1.8838  1.1180  0.2976
   57SAPC  H18Y 4283   1.017   3.346   8.654  1.0372  0.0769  0.2479
   57SAPC  H18Z 4284   1.045   3.180   8.729 -0.2697  0.1525 -1.3496
   58SAPC     N 4285   3.136   1.542  10.707 -0.3889  0.2493 -0.0677
   58SAPC   C12 4286   3.279   1.563  10.767 -0.8274 -1.2131  0.7608
   58SAPC  H12A 4287   3.294   1.494  10.848 -0.1678  0.5954  2.2413
   58SAPC  H12B 4288   3.286   1.657  10.819 -3.6256 -0.4444 -0.0731
   58SAPC   C13 4289   3.118   1.399  10.665 -0.4208 -0.4930 -0.3864
   58SAPC  H13A 4290   3.129   1.320  10.738 -0.9122  0.6963  1.0232
   58SAPC  H13B 4291   3.015   1.380  10.637 -0.8567  1.2350 -0.0627
   58SAPC  H13C 4292   3.176   1.374  10.578 -1.8288 -0.7644 -1.2821
   58SAPC   C14 4293   3.033   1.577  10.808 -0.9514  0.5303 -0.2894
   58SAPC  H14A 4294   3.038   1.499  10.884 -0.1215 -2.9018 -3.5611
   58SAPC  H14B 4295   3.051   1.676  10.846 -1.0415  0.2321  0.5591
   58SAPC  H14C 4296   2.933   1.576  10.768 -0.6350  0.4115 -1.0798
   58SAPC   C15 4297   3.124   1.627  10.585 -0.6767 -0.3466  0.3360
   58SAPC  H15A 4298   3.195   1.598  10.510 -0.8608 -1.4044  0.5538
   58SAPC  H15B 4299   3.027   1.617  10.538 -0.5737  1.2954 -0.2961
   58SAPC  H15C 4300   3.129   1.731  10.616  0.4310  0.2779 -1.7950
   58SAPC   C11 4301   3.393   1.536  10.665 -0.6158  0.9681  0.6492
   58SAPC  H11A 4302   3.377   1.585  10.566 -2.3114  1.1788  0.9963
   58SAPC  H11B 4303   3.390   1.426  10.647 -1.3321  0.7955  1.7765
   58SAPC     P 4304   3.614   1.494  10.783 -0.7249  0.2046 -0.1248
   58SAPC   O13 4305   3.697   1.572  10.872 -0.9572 -0.1515  0.2140
   58SAPC   O14 4306   3.542   1.387  10.849 -0.2255  0.2713 -0.3826
   58SAPC   O12 4307   3.513   1.586  10.709  0.2144  0.0141  0.4416
   58SAPC   O11 4308   3.709   1.434  10.672  0.0447  0.0990  0.4478
   58SAPC    C1 4309   3.683   1.421  10.526 -0.0863 -0.9836  0.1045
   58SAPC    HA 4310   3.622   1.328  10.519  0.5743 -1.3896 -0.2774
   58SAPC    HB 4311   3.642   1.512  10.478 -0.7453 -1.0531  0.5177
   58SAPC    C2 4312   3.812   1.385  10.451  0.1597  0.7400 -1.1800
   58SAPC    HS 4313   3.860   1.293  10.492  1.4689  1.9503  0.0847
   58SAPC   O21 4314   3.905   1.495  10.465  0.3359  0.5953 -0.2009
   58SAPC   C21 4315   4.033   1.472  10.458  0.2724 -0.6842  0.0580
   58SAPC   O22 4316   4.084   1.368  10.428 -0.3030  0.0452  0.4551
   58SAPC   C22 4317   4.112   1.591  10.529 -0.1918 -0.3650  0.4978
   58SAPC   H2R 4318   4.053   1.680  10.561  0.2014 -0.3484  1.1943
   58SAPC   H2S 4319   4.157   1.552  10.622  2.5332 -0.0277 -0.5734
   58SAPC    C3 4320   3.781   1.354  10.296  0.1906 -1.1425 -0.2018
   58SAPC    HX 4321   3.876   1.311  10.258 -0.3004 -0.9974 -1.6446
   58SAPC    HY 4322   3.756   1.449  10.245  0.1305 -0.3127  1.3123
   58SAPC   O31 4323   3.665   1.263  10.285 -0.5947 -0.0390  0.5543
   58SAPC   C31 4324   3.666   1.197  10.166  0.9578 -0.1344 -0.7463
   58SAPC   O32 4325   3.749   1.215  10.082 -0.4334  0.3623  0.2038
   58SAPC   C32 4326   3.544   1.113  10.157  0.1072  0.4690  0.5886
   58SAPC   H2X 4327   3.452   1.174  10.152 -0.4359 -0.2786  1.1555
   58SAPC   H2Y 4328   3.540   1.056  10.252 -2.5687  0.2424  0.4217
   58SAPC   C23 4329   4.235   1.638  10.446 -0.7864  0.3171  0.1640
   58SAPC   H3R 4330   4.300   1.549  10.436 -0.3920  0.7352 -1.1222
   58SAPC   H3S 4331   4.299   1.716  10.492  1.6320 -0.2619 -2.0196
   58SAPC   C24 4332   4.196   1.691  10.305  0.1810 -0.3431 -0.1808
   58SAPC   H4R 4333   4.175   1.604  10.240 -0.9628 -1.6599  1.8339
   58SAPC   H4S 4334   4.291   1.718  10.255 -0.3734 -0.5906 -1.4010
   58SAPC   C25 4335   4.093   1.794  10.288  0.3505  0.2920  0.7131
   58SAPC   H5R 4336   4.030   1.839  10.366 -2.3996  1.6358 -2.0640
   58SAPC   C26 4337   4.064   1.845  10.170  0.5485 -0.4789 -0.1148
   58SAPC   H6R 4338   3.980   1.916  10.160  0.6970  0.1771  2.6249
   58SAPC   C27 4339   4.127   1.805  10.045 -0.9868  0.3952 -0.0303
   58SAPC   H7R 4340   4.217   1.742  10.060 -0.8445  0.4007 -0.8147
   58SAPC   H7S 4341   4.149   1.893   9.981  0.7718  1.6426  2.1348
   58SAPC   C28 4342   4.033   1.712   9.975  1.0908  0.4980  0.2093
   58SAPC   H8R 4343   3.928   1.713  10.009  0.1814  2.2578 -2.3493
   58SAPC   C29 4344   4.066   1.621   9.882 -0.2509 -0.0100  0.5779
   58SAPC   H9R 4345   3.989   1.558   9.835 -0.0711 -0.0782  0.3701
   58SAPC  C210 4346   4.203   1.583   9.827 -0.9565 -0.0902 -0.2640
   58SAPC  H10R 4347   4.276   1.564   9.908 -2.0522 -0.8187  0.5969
   58SAPC  H10S 4348   4.228   1.681   9.781 -0.1295  0.8882  2.1056
   58SAPC  C211 4349   4.202   1.463   9.736 -0.2317  0.4940  1.1550
   58SAPC  H11R 4350   4.233   1.370   9.785 -0.2995 -0.1142  0.0768
   58SAPC  C212 4351   4.172   1.460   9.602  0.1931  0.3143 -0.2278
   58SAPC  H12R 4352   4.173   1.367   9.543  1.2358  0.9527 -1.2655
   58SAPC  C213 4353   4.141   1.586   9.520  0.0243 -0.8103  0.2953
   58SAPC  H13R 4354   4.228   1.655   9.526  0.4939 -1.5085  2.9037
   58SAPC  H13S 4355   4.056   1.645   9.559  0.5586 -0.3933  0.8408
   58SAPC  C214 4356   4.116   1.559   9.380 -0.3267  1.4658 -0.4751
   58SAPC  H14R 4357   4.011   1.554   9.351 -0.6728  1.9119  0.6298
   58SAPC  C215 4358   4.211   1.537   9.277 -1.0731  0.6203 -0.1640
   58SAPC  H15R 4359   4.194   1.512   9.172 -1.9945  0.8764 -0.0832
   58SAPC  C216 4360   4.364   1.544   9.296  1.0854 -0.0508  0.0676
   58SAPC  H16R 4361   4.393   1.460   9.364 -0.7921 -0.5474  0.3305
   58SAPC  H16S 4362   4.375   1.635   9.359 -2.6790 -0.1747  1.1440
   58SAPC  C217 4363   4.443   1.558   9.169  0.1822  0.1127  0.3224
   58SAPC  H17R 4364   4.413   1.470   9.108  0.8896  1.9367 -2.8856
   58SAPC  H17S 4365   4.550   1.541   9.194 -0.0032 -2.7266 -0.4833
   58SAPC  C218 4366   4.432   1.691   9.098 -0.0304 -0.4753 -0.2890
   58SAPC  H18R 4367   4.482   1.763   9.166  0.7614 -1.1123 -0.1801
   58SAPC  H18S 4368   4.332   1.730   9.069  0.6752  1.8678  0.1782
   58SAPC  C219 4369   4.525   1.687   8.971 -0.7171 -0.2961  0.6833
   58SAPC  H19R 4370   4.471   1.630   8.892  1.0063  0.7741 -1.3697
   58SAPC  H19S 4371   4.619   1.631   8.986 -1.1198 -0.6587  1.9667
   58SAPC  C220 4372   4.566   1.836   8.920  0.6722  0.1363 -0.1159
   58SAPC  H20R 4373   4.636   1.889   8.989  1.0214 -0.1325 -0.2595
   58SAPC  H20S 4374   4.476   1.901   8.918 -0.5292 -1.4528  0.1794
   58SAPC  H20T 4375   4.613   1.839   8.819  1.1702  0.4315  0.1181
   58SAPC   C33 4376   3.549   1.014  10.035 -0.8092 -0.5012 -0.1074
   58SAPC   H3X 4377   3.487   0.923  10.045 -2.1214  0.1651 -1.7156
   58SAPC   H3Y 4378   3.654   0.981  10.020 -0.7440 -0.1629 -0.4039
   58SAPC   C34 4379   3.499   1.079   9.899  0.3468 -0.2263  0.4393
   58SAPC   H4X 4380   3.561   1.170   9.886  0.3085  0.0375  1.9116
   58SAPC   H4Y 4381   3.391   1.102   9.895  0.3795 -0.2048 -1.3292
   58SAPC   C35 4382   3.522   1.006   9.760 -0.3770  0.0113 -0.8450
   58SAPC   H5X 4383   3.460   0.913   9.762 -2.2098  1.1482 -1.9112
   58SAPC   H5Y 4384   3.627   0.971   9.761 -0.9288 -2.0087  2.4557
   58SAPC   C36 4385   3.489   1.090   9.640  0.1302  0.1032 -0.3405
   58SAPC   H6X 4386   3.558   1.176   9.652  1.3090 -0.9750  1.1425
   58SAPC   H6Y 4387   3.386   1.131   9.649  0.6427  1.2979  0.2756
   58SAPC   C37 4388   3.531   1.028   9.505 -0.0690 -0.3845  0.1043
   58SAPC   H7X 4389   3.483   0.936   9.468 -0.3669 -0.0137 -0.4359
   58SAPC   H7Y 4390   3.640   1.006   9.504 -0.2059 -1.1870 -1.8434
   58SAPC   C38 4391   3.522   1.131   9.394 -0.0323 -0.4748  0.4239
   58SAPC   H8X 4392   3.584   1.219   9.422  0.6883 -0.8565  0.0612
   58SAPC   H8Y 4393   3.415   1.160   9.384  0.1907  0.4309  0.5906
   58SAPC   C39 4394   3.575   1.083   9.257 -0.0663 -0.1464 -0.3527
   58SAPC   H9X 4395   3.522   0.990   9.228  2.2490 -1.4025 -0.8440
   58SAPC   H9Y 4396   3.680   1.053   9.279  0.0629 -0.7268 -1.6719
   58SAPC  C310 4397   3.567   1.191   9.146 -0.1428  0.2132 -0.4190
   58SAPC  H10X 4398   3.637   1.269   9.185  1.5815 -1.5817  0.3041
   58SAPC  H10Y 4399   3.460   1.218   9.145  0.2333  2.0764  1.4678
   58SAPC  C311 4400   3.609   1.143   9.008  0.2757 -0.4631  0.4191
   58SAPC  H11X 4401   3.548   1.055   8.977  1.1858 -1.0515  0.2733
   58SAPC  H11Y 4402   3.713   1.103   9.005  0.2372 -0.5589 -2.4008
   58SAPC  C312 4403   3.597   1.262   8.911  0.5633  0.9828 -0.2271
   58SAPC  H12X 4404   3.672   1.343   8.923 -0.7254  2.1222  0.5211
   58SAPC  H12Y 4405   3.496   1.308   8.925  0.2874  0.6619 -1.1386
   58SAPC  C313 4406   3.606   1.206   8.769  0.0582 -0.4065 -0.1948
   58SAPC  H13X 4407   3.578   1.271   8.684  1.3532  0.7427  0.2249
   58SAPC  H13Y 4408   3.539   1.117   8.767 -0.6705  0.0627  1.4813
   58SAPC  C314 4409   3.750   1.170   8.729 -0.8499  0.1064 -0.0591
   58SAPC  H14X 4410   3.788   1.112   8.816 -1.8130  0.0104  0.3084
   58SAPC  H14Y 4411   3.814   1.260   8.711 -1.2185  0.2310 -0.8112
   58SAPC  C315 4412   3.763   1.073   8.612 -0.3662 -0.4522 -0.2499
   58SAPC  H15X 4413   3.668   1.068   8.554 -0.6868 -0.1093  0.2370
   58SAPC  H15Y 4414   3.791   0.971   8.646 -0.8160 -0.0258  1.5182
   58SAPC  C316 4415   3.879   1.108   8.519  0.2674  0.8068  0.2063
   58SAPC  H16X 4416   3.975   1.095   8.571  0.2827 -1.7095 -0.3244
   58SAPC  H16Y 4417   3.885   1.218   8.505  1.6463  0.5825 -1.2771
   58SAPC  C317 4418   3.878   1.044   8.384 -0.2708  0.0783  0.3196
   58SAPC  H17X 4419   3.786   1.086   8.338 -2.1760 -3.3592  0.6109
   58SAPC  H17Y 4420   3.853   0.935   8.379 -2.9155  0.6673 -1.7984
   58SAPC  C318 4421   4.000   1.058   8.288 -0.2177  0.3659  0.3753
   58SAPC  H18X 4422   3.967   1.030   8.185  1.4694  0.1618 -0.1338
   58SAPC  H18Y 4423   4.081   0.987   8.314  0.8005 -0.1511 -3.5245
   58SAPC  H18Z 4424   4.031   1.165   8.291 -0.1330  0.4103 -1.0964
   59SAPC     N 4425   4.268   3.763  11.478  0.4596  0.4518 -1.1883
   59SAPC   C12 4426   4.194   3.833  11.374  0.8722  0.2144 -0.6198
   59SAPC  H12A 4427   4.235   3.933  11.373  2.4251 -0.3784 -3.0118
   59SAPC  H12B 4428   4.090   3.841  11.398  1.0304  0.2927  0.0674
   59SAPC   C13 4429   4.221   3.819  11.609 -0.3520  0.2127 -0.3174
   59SAPC  H13A 4430   4.270   3.773  11.694 -0.8584  1.0350  0.4384
   59SAPC  H13B 4431   4.243   3.924  11.619  1.1571 -0.1498  0.4541
   59SAPC  H13C 4432   4.115   3.807  11.627 -0.3884  1.9451  0.8920
   59SAPC   C14 4433   4.241   3.609  11.486 -0.2765  0.6708 -0.1143
   59SAPC  H14A 4434   4.320   3.550  11.442 -2.1760 -1.5891 -0.6671
   59SAPC  H14B 4435   4.240   3.577  11.589  0.6935 -0.4323 -0.4215
   59SAPC  H14C 4436   4.150   3.569  11.444  0.0794 -0.9977  0.6302
   59SAPC   C15 4437   4.419   3.777  11.464 -1.4503 -0.8754 -0.1768
   59SAPC  H15A 4438   4.440   3.761  11.359  0.1855 -0.4780  0.0659
   59SAPC  H15B 4439   4.451   3.879  11.478 -0.6765 -0.9612 -1.1748
   59SAPC  H15C 4440   4.467   3.704  11.527 -0.7089  0.1027  0.4216
   59SAPC   C11 4441   4.188   3.781  11.225 -0.4972 -0.4024  0.6235
   59SAPC  H11A 4442   4.122   3.846  11.162  1.9582 -0.0793 -1.8125
   59SAPC  H11B 4443   4.141   3.681  11.237  0.5105 -0.8203  1.1505
   59SAPC     P 4444   4.355   3.864  11.048 -0.2263  0.1106  0.1378
   59SAPC   O13 4445   4.337   4.000  11.100 -0.7113  0.2115  0.1413
   59SAPC   O14 4446   4.493   3.842  10.996 -0.2352  0.0812  0.1579
   59SAPC   O12 4447   4.319   3.761  11.164  0.4894  0.2523 -0.2429
   59SAPC   O11 4448   4.245   3.834  10.928  0.0525  0.0804 -0.2012
   59SAPC    C1 4449   4.277   3.709  10.857  0.9947 -0.4225  0.0911
   59SAPC    HA 4450   4.265   3.733  10.749 -0.5757  1.3840  0.5951
   59SAPC    HB 4451   4.376   3.660  10.871  1.6324  0.9385  0.6031
   59SAPC    C2 4452   4.166   3.600  10.888  0.2970 -0.2572  0.5240
   59SAPC    HS 4453   4.075   3.646  10.932  1.3305  1.0529  1.3791
   59SAPC   O21 4454   4.223   3.514  10.984  0.6307  0.9058  0.4403
   59SAPC   C21 4455   4.132   3.454  11.069  0.0640  0.7029  0.1476
   59SAPC   O22 4456   4.012   3.484  11.082 -0.0086  0.1573  0.4397
   59SAPC   C22 4457   4.207   3.354  11.154 -0.4246  0.0657 -0.1852
   59SAPC   H2R 4458   4.292   3.404  11.206 -0.4397 -0.9498  0.8488
   59SAPC   H2S 4459   4.143   3.313  11.235 -0.7017  0.1691 -0.3498
   59SAPC    C3 4460   4.133   3.525  10.757  0.1161 -0.1027 -0.1985
   59SAPC    HX 4461   4.057   3.449  10.785 -0.1106  0.1223 -0.1977
   59SAPC    HY 4462   4.222   3.478  10.711  0.5966  2.4438 -2.0861
   59SAPC   O31 4463   4.087   3.612  10.657  0.0860  0.1229 -0.0206
   59SAPC   C31 4464   3.971   3.580  10.601  0.2934 -0.1759 -0.9371
   59SAPC   O32 4465   3.894   3.492  10.637  0.2568  1.1115 -0.0674
   59SAPC   C32 4466   3.944   3.670  10.483 -1.0705 -0.0709  0.4605
   59SAPC   H2X 4467   4.046   3.682  10.441 -0.9613  1.8096  1.1922
   59SAPC   H2Y 4468   3.925   3.770  10.527  1.7547  0.9040 -0.3055
   59SAPC   C23 4469   4.282   3.244  11.069 -0.2158  0.5051  0.7645
   59SAPC   H3R 4470   4.342   3.185  11.142 -0.6059  0.3488  0.9625
   59SAPC   H3S 4471   4.359   3.291  11.004  1.1357 -2.6048 -0.0873
   59SAPC   C24 4472   4.190   3.146  10.991 -0.5848 -0.6584 -0.0414
   59SAPC   H4R 4473   4.124   3.211  10.930 -0.3615 -0.3743  0.0203
   59SAPC   H4S 4474   4.121   3.091  11.058  0.2517 -0.8876  0.6567
   59SAPC   C25 4475   4.275   3.052  10.906 -0.0968 -0.1844  0.1142
   59SAPC   H5R 4476   4.348   2.998  10.969  1.3368  0.2847 -1.0757
   59SAPC   C26 4477   4.291   3.051  10.773 -0.2040  0.0665  0.0450
   59SAPC   H6R 4478   4.352   2.967  10.736  3.0794 -0.4667  5.5009
   59SAPC   C27 4479   4.205   3.138  10.681  0.6625  0.6484 -0.1182
   59SAPC   H7R 4480   4.201   3.243  10.715 -1.9937 -0.0119  1.8711
   59SAPC   H7S 4481   4.097   3.111  10.679  0.6980  0.4690 -1.8228
   59SAPC   C28 4482   4.258   3.120  10.537 -0.1069 -0.3223 -0.4427
   59SAPC   H8R 4483   4.333   3.044  10.512  0.3786  0.2301 -0.7065
   59SAPC   C29 4484   4.212   3.192  10.429  0.2021 -0.0227 -0.4662
   59SAPC   H9R 4485   4.263   3.178  10.333  1.1903 -0.3191  0.0914
   59SAPC  C210 4486   4.102   3.300  10.443  0.0028  0.1248 -0.2456
   59SAPC  H10R 4487   4.095   3.336  10.548  1.9068 -1.7714  0.6043
   59SAPC  H10S 4488   4.003   3.250  10.449  0.2334 -0.2203  0.9301
   59SAPC  C211 4489   4.117   3.410  10.340 -0.2945  0.6900  0.8262
   59SAPC  H11R 4490   4.189   3.489  10.365 -0.1731  1.0369 -0.5365
   59SAPC  C212 4491   4.048   3.416  10.218 -0.1148  0.2626  0.0656
   59SAPC  H12R 4492   4.069   3.499  10.150  1.7005  0.0622  0.3230
   59SAPC  C213 4493   3.940   3.317  10.172  0.5117 -1.0745 -0.0351
   59SAPC  H13R 4494   3.869   3.370  10.107  0.0179 -0.7249  0.7731
   59SAPC  H13S 4495   3.875   3.292  10.259 -1.7376  0.4152 -1.1920
   59SAPC  C214 4496   4.002   3.200  10.101  0.5648  0.5187 -0.2933
   59SAPC  H14R 4497   4.030   3.115  10.166 -2.6235 -0.9446 -0.6519
   59SAPC  C215 4498   4.045   3.188   9.974 -0.0903 -0.0208  0.1273
   59SAPC  H15R 4499   4.086   3.091   9.944  0.1898  0.7862 -2.3468
   59SAPC  C216 4500   4.045   3.297   9.869 -0.6247 -0.0983 -0.0655
   59SAPC  H16R 4501   4.148   3.312   9.831 -0.5025  0.0052  0.3061
   59SAPC  H16S 4502   4.005   3.392   9.910 -2.0409  0.0438 -1.6764
   59SAPC  C217 4503   3.961   3.258   9.751  0.0927 -0.5071 -1.1371
   59SAPC  H17R 4504   3.860   3.251   9.796  0.9785 -3.1604  0.6970
   59SAPC  H17S 4505   3.983   3.154   9.716 -0.2246 -0.7159 -0.7315
   59SAPC  C218 4506   3.960   3.355   9.640 -0.1005  0.4756  0.1709
   59SAPC  H18R 4507   4.059   3.405   9.635 -0.2057  0.7057  0.3415
   59SAPC  H18S 4508   3.885   3.436   9.647 -0.0214  0.5929 -0.2738
   59SAPC  C219 4509   3.930   3.290   9.507  0.0258  0.0041  0.4522
   59SAPC  H19R 4510   3.847   3.217   9.517 -0.3894  0.4100 -0.0046
   59SAPC  H19S 4511   4.018   3.232   9.472 -1.0207 -0.9804 -0.6437
   59SAPC  C220 4512   3.894   3.389   9.394 -0.0071 -0.3547 -0.1405
   59SAPC  H20R 4513   3.792   3.428   9.411 -0.4161 -1.7016  0.6118
   59SAPC  H20S 4514   3.904   3.344   9.293  1.5574 -1.1882  0.3424
   59SAPC  H20T 4515   3.973   3.468   9.401 -1.0647  0.6042  2.0666
   59SAPC   C33 4516   3.842   3.621  10.376 -0.3187  0.4012 -0.2089
   59SAPC   H3X 4517   3.826   3.511  10.368 -1.6474  0.5940 -0.5209
   59SAPC   H3Y 4518   3.885   3.649  10.277 -3.7274 -0.3411 -2.0476
   59SAPC   C34 4519   3.705   3.685  10.387 -0.2755  0.2869  0.1226
   59SAPC   H4X 4520   3.717   3.794  10.369 -0.8274  0.4302  0.5695
   59SAPC   H4Y 4521   3.671   3.672  10.492 -0.5243 -0.5428 -0.0527
   59SAPC   C35 4522   3.597   3.638  10.282 -0.2627 -0.5085 -0.7653
   59SAPC   H5X 4523   3.522   3.720  10.279  0.3992  0.0903 -2.3058
   59SAPC   H5Y 4524   3.549   3.546  10.320 -0.5593  0.7649  2.1995
   59SAPC   C36 4525   3.645   3.614  10.143 -0.4582 -0.2362  0.5040
   59SAPC   H6X 4526   3.734   3.547  10.141 -0.0317  0.3096 -1.9479
   59SAPC   H6Y 4527   3.678   3.708  10.094 -1.8685  0.3929  0.7177
   59SAPC   C37 4528   3.541   3.564  10.049  0.9018 -0.2082 -0.6635
   59SAPC   H7X 4529   3.444   3.618  10.059 -0.5480 -2.9141  1.0729
   59SAPC   H7Y 4530   3.528   3.459  10.084 -0.6797  0.1341 -0.1548
   59SAPC   C38 4531   3.579   3.557   9.900 -0.3638 -0.4481  1.0097
   59SAPC   H8X 4532   3.671   3.496   9.908  1.9121  2.9528  3.1175
   59SAPC   H8Y 4533   3.591   3.658   9.854  1.5452 -0.2436  1.8494
   59SAPC   C39 4534   3.480   3.476   9.816 -0.2203  0.2203  0.6012
   59SAPC   H9X 4535   3.384   3.531   9.800 -0.5835 -0.4549  0.4372
   59SAPC   H9Y 4536   3.462   3.381   9.870  0.3178 -1.3151 -1.7551
   59SAPC  C310 4537   3.539   3.450   9.674  0.3780 -0.3646  0.2371
   59SAPC  H10X 4538   3.600   3.358   9.683  1.9068  0.5894 -0.0063
   59SAPC  H10Y 4539   3.606   3.534   9.646 -1.5858  0.5090 -2.2554
   59SAPC  C311 4540   3.428   3.428   9.565  0.8039  0.1927 -0.2005
   59SAPC  H11X 4541   3.361   3.516   9.559 -1.0555 -1.0945  0.6840
   59SAPC  H11Y 4542   3.367   3.342   9.600  2.3955 -0.6858  0.5171
   59SAPC  C312 4543   3.490   3.386   9.433  0.3375 -0.2640 -0.3929
   59SAPC  H12X 4544   3.564   3.303   9.434  1.7176  0.8035 -3.1427
   59SAPC  H12Y 4545   3.544   3.480   9.412 -0.1148  0.8468  2.8532
   59SAPC  C313 4546   3.389   3.350   9.314 -0.0466  0.1808 -0.1932
   59SAPC  H13X 4547   3.319   3.434   9.296  1.2817  0.8636 -2.5504
   59SAPC  H13Y 4548   3.325   3.264   9.343 -0.6528  0.8359  0.4506
   59SAPC  C314 4549   3.461   3.316   9.181  0.1580 -0.6560 -0.6724
   59SAPC  H14X 4550   3.541   3.244   9.209  0.1961  0.2890  1.9466
   59SAPC  H14Y 4551   3.503   3.410   9.138 -0.8750  0.4632  0.6458
   59SAPC  C315 4552   3.367   3.253   9.071  0.0184 -0.0220 -0.2333
   59SAPC  H15X 4553   3.298   3.333   9.039  1.0885  1.0052 -0.0574
   59SAPC  H15Y 4554   3.323   3.160   9.113  0.3404  0.4669  1.2640
   59SAPC  C316 4555   3.445   3.198   8.954 -0.1060 -0.0640  0.1788
   59SAPC  H16X 4556   3.506   3.109   8.977  1.3144  0.6507 -0.6616
   59SAPC  H16Y 4557   3.505   3.280   8.909 -0.4127 -0.4173 -0.9007
   59SAPC  C317 4558   3.349   3.155   8.837 -0.1224 -0.0632 -0.8161
   59SAPC  H17X 4559   3.307   3.250   8.798 -0.3946  1.3676  2.6036
   59SAPC  H17Y 4560   3.277   3.081   8.879  0.5082 -1.1507 -1.6074
   59SAPC  C318 4561   3.426   3.068   8.735 -0.5091  0.2739  0.5246
   59SAPC  H18X 4562   3.500   3.136   8.687 -1.6129  1.9444  1.0912
   59SAPC  H18Y 4563   3.357   3.030   8.656  0.9266 -1.2133 -0.0585
   59SAPC  H18Z 4564   3.477   2.979   8.777  0.8437  0.1106 -1.3319
   60SAPC     N 4565   5.322   4.311  11.090  0.7630  0.3299  0.6140
   60SAPC   C12 4566   5.283   4.448  11.047 -0.2858  0.1648  0.7211
   60SAPC  H12A 4567   5.349   4.517  11.099  1.6910 -0.1981 -1.1660
   60SAPC  H12B 4568   5.182   4.462  11.084 -0.5243 -1.4913  0.7781
   60SAPC   C13 4569   5.246   4.213  11.003 -0.2624  0.0402  0.3469
   60SAPC  H13A 4570   5.255   4.111  11.037  0.6049  0.1043  0.3511
   60SAPC  H13B 4571   5.143   4.244  11.006  0.0446  1.1014  0.4437
   60SAPC  H13C 4572   5.282   4.219  10.901 -0.7321  2.5023  0.2607
   60SAPC   C14 4573   5.463   4.274  11.072 -0.1922  0.8587  0.0335
   60SAPC  H14A 4574   5.525   4.336  11.136  1.7153  0.9358 -1.7968
   60SAPC  H14B 4575   5.483   4.172  11.100  2.9332  0.8767 -1.7434
   60SAPC  H14C 4576   5.494   4.286  10.970 -1.3048 -0.8039 -0.5332
   60SAPC   C15 4577   5.280   4.301  11.236 -1.0346 -0.7282 -0.8509
   60SAPC  H15A 4578   5.348   4.358  11.298 -1.7774 -1.3893  0.6311
   60SAPC  H15B 4579   5.175   4.310  11.260 -0.8797 -1.1940  0.0682
   60SAPC  H15C 4580   5.296   4.204  11.281 -0.5188 -0.4523 -0.4102
   60SAPC   C11 4581   5.268   4.497  10.905 -0.8471  0.4086  0.0378
   60SAPC  H11A 4582   5.271   4.607  10.897  0.3851  0.5085  1.5209
   60SAPC  H11B 4583   5.170   4.452  10.875 -0.4639  0.0084 -0.6394
   60SAPC     P 4584   5.387   4.491  10.670  0.0260 -0.0381  0.0627
   60SAPC   O13 4585   5.255   4.484  10.601  0.0030  0.3380  0.4520
   60SAPC   O14 4586   5.461   4.616  10.683 -0.6632 -0.0636 -0.1149
   60SAPC   O12 4587   5.376   4.442  10.821  0.2805  0.1335 -0.6437
   60SAPC   O11 4588   5.485   4.407  10.587 -0.2432  0.2602 -0.4781
   60SAPC    C1 4589   5.573   4.316  10.652 -0.7380  0.4905  0.1058
   60SAPC    HA 4590   5.634   4.353  10.737 -1.1476  0.0636  0.5928
   60SAPC    HB 4591   5.513   4.239  10.703  1.1331 -0.8469  0.4019
   60SAPC    C2 4592   5.668   4.243  10.549  0.0281 -0.2299  0.1046
   60SAPC    HS 4593   5.744   4.316  10.515  2.1755 -1.8803  1.1013
   60SAPC   O21 4594   5.591   4.192  10.442  0.4491  0.3429 -0.3085
   60SAPC   C21 4595   5.556   4.272  10.343  0.2867  0.1821  0.3490
   60SAPC   O22 4596   5.603   4.382  10.322  0.1629  0.0234  0.0299
   60SAPC   C22 4597   5.450   4.197  10.252 -0.3493 -0.0386 -0.0773
   60SAPC   H2R 4598   5.470   4.088  10.245 -0.7798 -0.1058 -0.2772
   60SAPC   H2S 4599   5.348   4.209  10.295 -1.0331  0.1865 -1.7056
   60SAPC    C3 4600   5.736   4.119  10.608  0.2998 -0.1545 -0.0639
   60SAPC    HX 4601   5.654   4.046  10.627  0.1277  0.5958  2.4842
   60SAPC    HY 4602   5.771   4.161  10.705  1.6509  1.3143 -1.1348
   60SAPC   O31 4603   5.833   4.056  10.527 -0.3959  0.2779 -0.0677
   60SAPC   C31 4604   5.955   4.100  10.529 -0.2562 -0.8587  0.2589
   60SAPC   O32 4605   6.001   4.185  10.607 -0.2204 -0.1898  0.0468
   60SAPC   C32 4606   6.027   4.046  10.411 -0.1801 -0.5051 -0.4921
   60SAPC   H2X 4607   6.000   3.941  10.388 -1.7697 -0.7680  2.1643
   60SAPC   H2Y 4608   6.135   4.056  10.438 -0.7779 -0.3414  2.0603
   60SAPC   C23 4609   5.435   4.268  10.115  0.7735 -0.5227  0.3215
   60SAPC   H3R 4610   5.437   4.378  10.126  1.8989 -0.4492 -0.4470
   60SAPC   H3S 4611   5.342   4.231  10.068  1.8141  0.6477 -2.9608
   60SAPC   C24 4612   5.529   4.224  10.007 -0.1755 -0.0002 -1.2646
   60SAPC   H4R 4613   5.512   4.117   9.984 -0.8025 -0.2995  0.4307
   60SAPC   H4S 4614   5.634   4.225  10.042 -0.1653 -0.5174 -1.2800
   60SAPC   C25 4615   5.504   4.307   9.887 -0.2340  0.2251 -0.1412
   60SAPC   H5R 4616   5.539   4.410   9.901  1.3330 -0.5252  1.8042
   60SAPC   C26 4617   5.443   4.270   9.772 -0.0534  0.4449 -0.0308
   60SAPC   H6R 4618   5.430   4.340   9.689  0.7483 -0.9411 -1.3911
   60SAPC   C27 4619   5.392   4.131   9.739  0.3208 -0.3137  0.1263
   60SAPC   H7R 4620   5.304   4.129   9.670  0.2875 -0.5388  0.1759
   60SAPC   H7S 4621   5.349   4.086   9.831  1.9068 -2.4865 -0.1422
   60SAPC   C28 4622   5.494   4.048   9.676 -0.6438  0.6320  0.5071
   60SAPC   H8R 4623   5.595   4.074   9.711 -0.7209  2.2008 -0.3260
   60SAPC   C29 4624   5.482   3.961   9.580 -0.2766 -0.6778 -0.2458
   60SAPC   H9R 4625   5.570   3.907   9.541 -0.3740 -2.2702  1.5667
   60SAPC  C210 4626   5.356   3.927   9.506  0.2881  0.5812 -0.2718
   60SAPC  H10R 4627   5.348   3.997   9.420  0.0674  0.8061 -0.0678
   60SAPC  H10S 4628   5.267   3.943   9.571 -0.6002  0.2618 -1.3771
   60SAPC  C211 4629   5.350   3.786   9.454 -0.6127  0.0463  0.1524
   60SAPC  H11R 4630   5.286   3.724   9.519  0.4873 -1.1601  0.1321
   60SAPC  C212 4631   5.401   3.737   9.339  0.5434 -0.8757 -0.1850
   60SAPC  H12R 4632   5.385   3.629   9.323  1.0068 -1.0475  0.4757
   60SAPC  C213 4633   5.474   3.820   9.232 -0.1209  0.2475 -0.1698
   60SAPC  H13R 4634   5.470   3.928   9.259 -1.1625 -0.1432  1.4169
   60SAPC  H13S 4635   5.421   3.803   9.136  1.0065 -0.7412 -0.6435
   60SAPC  C214 4636   5.618   3.794   9.236 -0.5790 -0.0779  0.2394
   60SAPC  H14R 4637   5.673   3.826   9.326 -0.8156  0.6311  0.1340
   60SAPC  C215 4638   5.695   3.735   9.139  0.5131 -0.6977  0.4880
   60SAPC  H15R 4639   5.801   3.717   9.161  0.1641  0.2718  3.3959
   60SAPC  C216 4640   5.663   3.693   8.996 -0.3632  0.2164 -0.1442
   60SAPC  H16R 4641   5.563   3.728   8.964 -1.4158 -1.1085  1.5104
   60SAPC  H16S 4642   5.669   3.583   8.983  0.8063  0.4475 -1.8686
   60SAPC  C217 4643   5.768   3.744   8.896  0.1242  0.9438 -0.2125
   60SAPC  H17R 4644   5.871   3.728   8.934  0.1303  1.2129 -0.1141
   60SAPC  H17S 4645   5.764   3.855   8.898  2.1661  1.0488  0.3493
   60SAPC  C218 4646   5.756   3.698   8.751 -0.0476  0.2204  0.3190
   60SAPC  H18R 4647   5.773   3.588   8.742 -0.6050  0.2644 -2.0628
   60SAPC  H18S 4648   5.835   3.746   8.689 -0.1424 -0.9564 -0.7661
   60SAPC  C219 4649   5.622   3.719   8.679  0.7537  0.8433  0.1385
   60SAPC  H19R 4650   5.542   3.714   8.755  0.8144 -3.1959  0.1524
   60SAPC  H19S 4651   5.596   3.638   8.607 -0.2552  2.4263 -1.3607
   60SAPC  C220 4652   5.623   3.844   8.595 -0.0953 -0.4402  0.1755
   60SAPC  H20R 4653   5.655   3.936   8.651 -0.8177 -1.7561  2.9212
   60SAPC  H20S 4654   5.522   3.848   8.551 -0.0969  2.4437  0.2085
   60SAPC  H20T 4655   5.685   3.831   8.504 -0.5576  0.8841 -0.3543
   60SAPC   C33 4656   5.990   4.127  10.286  0.1127  0.3923  0.5273
   60SAPC   H3X 4657   5.880   4.134  10.280  0.0694 -1.0927 -1.2684
   60SAPC   H3Y 4658   6.010   4.071  10.192  1.4116  0.2380  0.8805
   60SAPC   C34 4659   6.072   4.262  10.275 -0.3962  0.6989  0.9339
   60SAPC   H4X 4660   6.159   4.240  10.341 -0.6967 -2.7448  0.3658
   60SAPC   H4Y 4661   6.016   4.350  10.313 -0.7162  1.2600 -0.7625
   60SAPC   C35 4662   6.115   4.304  10.135 -0.3096 -0.3734  0.1371
   60SAPC   H5X 4663   6.183   4.222  10.104  0.8706  0.9281 -0.8526
   60SAPC   H5Y 4664   6.184   4.390  10.145  1.5858 -2.0334  2.2605
   60SAPC   C36 4665   5.997   4.322  10.035  0.6722  0.2774 -0.6322
   60SAPC   H6X 4666   5.914   4.387  10.070  0.5575 -0.3988  0.3983
   60SAPC   H6Y 4667   5.953   4.220  10.025  0.0549  0.1707  2.1977
   60SAPC   C37 4668   6.035   4.375   9.896  0.0330  0.2004 -0.6810
   60SAPC   H7X 4669   6.140   4.341   9.889  0.1331  0.3897 -0.1268
   60SAPC   H7Y 4670   6.017   4.485   9.893 -2.7367 -0.1676 -0.9658
   60SAPC   C38 4671   5.948   4.317   9.782 -0.1261  0.5134  0.2873
   60SAPC   H8X 4672   5.959   4.378   9.690 -0.4071 -0.3590 -0.3244
   60SAPC   H8Y 4673   5.840   4.339   9.798 -0.2836 -0.0114 -0.0498
   60SAPC   C39 4674   5.976   4.180   9.740 -0.0330  0.2132  0.0055
   60SAPC   H9X 4675   5.964   4.108   9.824 -2.3616  2.3763  1.6755
   60SAPC   H9Y 4676   6.084   4.188   9.714  0.3953  2.2219  2.1514
   60SAPC  C310 4677   5.898   4.128   9.612 -0.0528  0.9261 -0.2931
   60SAPC  H10X 4678   5.788   4.113   9.614 -0.0701  0.8487 -1.3843
   60SAPC  H10Y 4679   5.930   4.023   9.593  2.4284  1.8916 -2.0521
   60SAPC  C311 4680   5.907   4.218   9.489  0.4369  0.1403  0.4756
   60SAPC  H11X 4681   6.005   4.271   9.490 -0.2498  1.6842 -2.4018
   60SAPC  H11Y 4682   5.833   4.302   9.493 -0.3746 -0.5874  3.5044
   60SAPC  C312 4683   5.882   4.137   9.358  0.6967 -0.3040 -0.4701
   60SAPC  H12X 4684   5.787   4.084   9.379  1.3328 -0.7405  1.5691
   60SAPC  H12Y 4685   5.967   4.071   9.332  1.4690 -0.2143  1.6322
   60SAPC  C313 4686   5.848   4.214   9.228  0.0618  0.3729 -0.6202
   60SAPC  H13X 4687   5.912   4.301   9.204  0.7082 -0.5641 -2.4832
   60SAPC  H13Y 4688   5.743   4.249   9.243 -0.2001 -1.1474  1.4073
   60SAPC  C314 4689   5.846   4.125   9.100 -0.1476 -0.6019 -0.6991
   60SAPC  H14X 4690   5.771   4.045   9.118  0.1605 -0.4346  1.5132
   60SAPC  H14Y 4691   5.952   4.092   9.092  0.2018  0.4574 -0.6904
   60SAPC  C315 4692   5.800   4.212   8.979  0.0846  0.3581  0.2062
   60SAPC  H15X 4693   5.841   4.315   8.984  1.5002 -0.1857  0.1882
   60SAPC  H15Y 4694   5.689   4.207   8.973  0.0852 -0.0883  0.5509
   60SAPC  C316 4695   5.846   4.157   8.841 -0.9121 -0.0594  0.7397
   60SAPC  H16X 4696   5.862   4.047   8.836  2.5078  0.3637 -0.7786
   60SAPC  H16Y 4697   5.949   4.192   8.820 -1.2972  1.4873  1.3247
   60SAPC  C317 4698   5.763   4.200   8.713  0.2132 -0.6843 -0.0127
   60SAPC  H17X 4699   5.753   4.310   8.703 -2.0187 -0.9790 -2.0855
   60SAPC  H17Y 4700   5.657   4.167   8.722  0.0979 -0.7147 -1.2735
   60SAPC  C318 4701   5.826   4.146   8.583  0.8662 -0.6324 -0.6399
   60SAPC  H18X 4702   5.925   4.191   8.566  0.5801 -0.0467 -0.7698
   60SAPC  H18Y 4703   5.764   4.172   8.494  1.9177 -0.0507 -1.2110
   60SAPC  H18Z 4704   5.840   4.037   8.600 -0.1306 -0.3395  2.6883
   61SAPC     N 4705   5.783   0.126  10.711  0.4241 -0.4312 -0.2334
   61SAPC   C12 4706   5.766   0.013  10.808  0.1438 -0.1368  0.0466
   61SAPC  H12A 4707   5.723  -0.075  10.762  1.0055 -0.5419 -0.0012
   61SAPC  H12B 4708   5.694   0.055  10.876 -1.4375 -1.4070 -0.7755
   61SAPC   C13 4709   5.643   0.157  10.654  0.7674 -1.0648  0.6784
   61SAPC  H13A 4710   5.655   0.244  10.591  2.2081  0.2327  2.5943
   61SAPC  H13B 4711   5.602   0.080  10.591 -3.7110 -0.8551  2.9731
   61SAPC  H13C 4712   5.570   0.190  10.726  0.7401  0.8766 -0.1731
   61SAPC   C14 4713   5.833   0.246  10.783  0.1521  0.3180 -0.1961
   61SAPC  H14A 4714   5.777   0.252  10.874  0.6677  0.7448  0.1040
   61SAPC  H14B 4715   5.932   0.224  10.820 -0.0347  0.1963  0.2339
   61SAPC  H14C 4716   5.837   0.328  10.712 -0.7170  1.1327  0.6707
   61SAPC   C15 4717   5.873   0.080  10.603  0.8286  0.3214  0.0692
   61SAPC  H15A 4718   5.960   0.045  10.657  1.2215  2.9189  1.2539
   61SAPC  H15B 4719   5.829   0.000  10.545 -2.6456  2.7274 -0.9278
   61SAPC  H15C 4720   5.908   0.163  10.544 -1.6001 -0.0520 -2.0856
   61SAPC   C11 4721   5.881  -0.031  10.897  0.3814  0.2204 -0.6690
   61SAPC  H11A 4722   5.850  -0.091  10.985  1.3786 -1.9741 -1.7387
   61SAPC  H11B 4723   5.923   0.057  10.950  0.8400  1.2646 -2.6876
   61SAPC     P 4724   6.002  -0.244  10.817 -0.2281 -0.2687  0.1368
   61SAPC   O13 4725   6.097  -0.293  10.920 -0.5336 -0.4007  0.0181
   61SAPC   O14 4726   5.865  -0.304  10.813 -0.3412  0.0413 -0.1837
   61SAPC   O12 4727   5.988  -0.085  10.826 -0.0026  0.1174 -0.4976
   61SAPC   O11 4728   6.058  -0.262  10.669  0.1954  0.0233  0.2257
   61SAPC    C1 4729   6.029  -0.357  10.580  0.5529  0.3813  0.4063
   61SAPC    HA 4730   6.125  -0.386  10.531  0.4268  2.6987 -1.4393
   61SAPC    HB 4731   5.987  -0.446  10.630  2.0461 -1.0813 -0.8384
   61SAPC    C2 4732   5.938  -0.315  10.463  0.7878  0.1705 -0.0102
   61SAPC    HS 4733   5.941  -0.398  10.389  0.8527 -0.3325  0.5519
   61SAPC   O21 4734   5.982  -0.190  10.406  0.6184 -0.4414 -0.2483
   61SAPC   C21 4735   6.097  -0.181  10.336 -0.4989 -0.2421  0.1688
   61SAPC   O22 4736   6.170  -0.272  10.314 -0.1108 -0.2971  0.3474
   61SAPC   C22 4737   6.115  -0.030  10.291 -0.1171 -0.0327 -0.4027
   61SAPC   H2R 4738   6.047   0.033  10.352  0.8995 -1.1747  2.0504
   61SAPC   H2S 4739   6.221  -0.006  10.315 -0.9021  1.4083  1.9915
   61SAPC    C3 4740   5.796  -0.302  10.499  0.2662  0.0767 -0.6062
   61SAPC    HX 4741   5.779  -0.220  10.572 -2.2211 -1.5469  0.7975
   61SAPC    HY 4742   5.768  -0.378  10.575  1.7655  1.8558  1.8763
   61SAPC   O31 4743   5.707  -0.297  10.384  0.4903  0.1604 -0.3553
   61SAPC   C31 4744   5.664  -0.183  10.353 -0.3442 -0.4602  0.7131
   61SAPC   O32 4745   5.706  -0.073  10.391 -0.2960 -0.2819  0.3733
   61SAPC   C32 4746   5.574  -0.194  10.233 -0.5772 -1.0363  0.8689
   61SAPC   H2X 4747   5.496  -0.268  10.262 -2.5120  0.6104  0.0633
   61SAPC   H2Y 4748   5.627  -0.239  10.146 -0.5770 -2.2093  1.4471
   61SAPC   C23 4749   6.076  -0.003  10.142  0.9742 -0.1153 -0.0396
   61SAPC   H3R 4750   6.134  -0.062  10.068 -1.5413 -0.8344 -1.5818
   61SAPC   H3S 4751   6.091   0.107  10.131 -1.2606  0.5079  2.1975
   61SAPC   C24 4752   5.922  -0.036  10.106 -0.2499  0.2115 -1.1549
   61SAPC   H4R 4753   5.868   0.038  10.044  1.1563 -0.2203 -2.9778
   61SAPC   H4S 4754   5.861  -0.045  10.199 -1.2978 -0.4923 -1.8909
   61SAPC   C25 4755   5.924  -0.173  10.034  0.3648  0.1815 -0.2446
   61SAPC   H5R 4756   5.915  -0.260  10.102  4.5109 -0.0431  0.2328
   61SAPC   C26 4757   5.911  -0.187   9.896 -0.0068  0.0050  0.2615
   61SAPC   H6R 4758   5.911  -0.283   9.843 -0.5386  0.3856 -0.4458
   61SAPC   C27 4759   5.899  -0.079   9.794 -0.0147  0.3994 -0.1580
   61SAPC   H7R 4760   5.894   0.020   9.843 -0.3781  0.3928 -0.1791
   61SAPC   H7S 4761   5.806  -0.088   9.734 -1.1187 -1.7464  1.7215
   61SAPC   C28 4762   6.019  -0.078   9.706 -0.0310  0.6570  0.3305
   61SAPC   H8R 4763   6.109  -0.041   9.758 -0.4738  1.4271  0.5608
   61SAPC   C29 4764   6.024  -0.123   9.578  0.0224  0.1509 -0.0555
   61SAPC   H9R 4765   6.118  -0.121   9.520 -0.4385  1.2351 -0.7991
   61SAPC  C210 4766   5.918  -0.195   9.498  0.6743  0.7188 -0.0217
   61SAPC  H10R 4767   5.855  -0.259   9.564 -0.2207 -0.6087 -2.0406
   61SAPC  H10S 4768   5.966  -0.263   9.425 -2.0261  0.5478 -1.7860
   61SAPC  C211 4769   5.828  -0.097   9.426  0.7956  0.6172 -0.7266
   61SAPC  H11R 4770   5.781  -0.037   9.505  2.9921  0.3761  0.8513
   61SAPC  C212 4771   5.806  -0.073   9.293 -0.0637 -0.7850  0.2160
   61SAPC  H12R 4772   5.738   0.006   9.258  0.0986 -1.1346 -0.9101
   61SAPC  C213 4773   5.872  -0.136   9.171  0.7294  0.5512 -0.1741
   61SAPC  H13R 4774   5.786  -0.158   9.105  0.1693  1.6665  0.1612
   61SAPC  H13S 4775   5.903  -0.238   9.201 -1.5707  0.0170  0.5425
   61SAPC  C214 4776   5.986  -0.059   9.101 -0.5156 -0.4506  0.2366
   61SAPC  H14R 4777   6.016   0.031   9.157 -0.0832 -0.4109 -0.0541
   61SAPC  C215 4778   6.033  -0.077   8.977  0.0641  0.6311  0.8483
   61SAPC  H15R 4779   6.111  -0.011   8.937  0.3121  0.4027  0.9574
   61SAPC  C216 4780   5.985  -0.184   8.877 -0.5030  0.1281 -0.2970
   61SAPC  H16R 4781   5.900  -0.246   8.915 -0.8536 -1.5848 -3.5049
   61SAPC  H16S 4782   6.076  -0.246   8.866 -1.7898 -2.2344  1.3090
   61SAPC  C217 4783   5.923  -0.132   8.741  0.4683 -0.4763  0.2833
   61SAPC  H17R 4784   5.979  -0.189   8.663 -1.3339 -0.8292 -0.8062
   61SAPC  H17S 4785   5.960  -0.030   8.716  1.0688 -0.9979 -1.0969
   61SAPC  C218 4786   5.775  -0.160   8.727  0.1126 -0.0489  0.3098
   61SAPC  H18R 4787   5.773  -0.270   8.746  3.2023 -0.2909 -0.3583
   61SAPC  H18S 4788   5.741  -0.148   8.622 -2.6957 -1.7616  0.8923
   61SAPC  C219 4789   5.696  -0.064   8.819  0.3154  0.5281  1.0337
   61SAPC  H19R 4790   5.696   0.038   8.776  0.3599  0.4719  0.9003
   61SAPC  H19S 4791   5.751  -0.061   8.916  1.2439  0.7259  0.5125
   61SAPC  C220 4792   5.556  -0.106   8.849  0.0943  0.9155 -0.4615
   61SAPC  H20R 4793   5.551  -0.153   8.949 -1.4104  1.2870 -0.3399
   61SAPC  H20S 4794   5.511  -0.176   8.776  0.8018  0.6740 -0.6672
   61SAPC  H20T 4795   5.490  -0.016   8.855  0.1983  1.0120 -0.7352
   61SAPC   C33 4796   5.513  -0.061  10.176  0.1827 -0.3743 -0.3527
   61SAPC   H3X 4797   5.602  -0.000  10.149  1.7249 -2.1983  0.3606
   61SAPC   H3Y 4798   5.448  -0.013  10.251  1.8593  1.1019  0.2230
   61SAPC   C34 4799   5.422  -0.083  10.055  0.3879  0.4199  0.2321
   61SAPC   H4X 4800   5.352   0.002  10.041  1.7183  1.3227 -1.3573
   61SAPC   H4Y 4801   5.349  -0.163  10.081  0.3463  0.3196 -0.1953
   61SAPC   C35 4802   5.490  -0.119   9.921 -0.1836 -0.0299  0.3122
   61SAPC   H5X 4803   5.507  -0.228   9.913  1.3263  0.2093  0.0378
   61SAPC   H5Y 4804   5.591  -0.073   9.913  0.4728 -1.5430 -0.3566
   61SAPC   C36 4805   5.413  -0.058   9.802  0.4419 -0.9844 -0.7043
   61SAPC   H6X 4806   5.414   0.053   9.805  1.5082 -1.0144  0.3103
   61SAPC   H6Y 4807   5.303  -0.077   9.803  0.1385 -0.2629  4.5896
   61SAPC   C37 4808   5.464  -0.092   9.665 -0.4005  0.3092  0.6214
   61SAPC   H7X 4809   5.520  -0.187   9.656  2.6625  2.0421 -0.1137
   61SAPC   H7Y 4810   5.545  -0.016   9.654 -0.2848  0.6301  3.1227
   61SAPC   C38 4811   5.368  -0.075   9.555  0.1398  0.2708 -0.5150
   61SAPC   H8X 4812   5.325   0.027   9.569  0.3238  0.1982  0.6729
   61SAPC   H8Y 4813   5.275  -0.136   9.560 -1.0453  1.9738 -0.6526
   61SAPC   C39 4814   5.432  -0.103   9.418  1.1107 -0.0132 -0.0445
   61SAPC   H9X 4815   5.453  -0.212   9.409 -0.8749 -0.3610 -1.0915
   61SAPC   H9Y 4816   5.534  -0.058   9.413  0.7953  1.1597  2.5009
   61SAPC  C310 4817   5.341  -0.060   9.319 -0.1235  0.2188  1.3892
   61SAPC  H10X 4818   5.304   0.044   9.336 -1.9610 -0.2059  0.2529
   61SAPC  H10Y 4819   5.256  -0.132   9.317  1.5010 -1.7747  0.2649
   61SAPC  C311 4820   5.384  -0.070   9.170  0.7708 -0.2109 -0.3125
   61SAPC  H11X 4821   5.403  -0.176   9.143 -2.4404 -1.2027  0.8541
   61SAPC  H11Y 4822   5.478  -0.013   9.153 -0.0353  0.7383 -1.7454
   61SAPC  C312 4823   5.273  -0.011   9.078  0.2582  0.2601  0.1666
   61SAPC  H12X 4824   5.177  -0.062   9.100  1.1453 -0.0204  4.0451
   61SAPC  H12Y 4825   5.303  -0.040   8.975  1.6433 -2.2340  1.2039
   61SAPC  C313 4826   5.244   0.134   9.079 -0.6102  0.5263 -0.5860
   61SAPC  H13X 4827   5.331   0.184   9.127  1.0539 -1.1468 -1.7158
   61SAPC  H13Y 4828   5.161   0.158   9.149  0.7917  0.3045  1.2302
   61SAPC  C314 4829   5.217   0.200   8.944 -0.4089  0.4157 -0.4235
   61SAPC  H14X 4830   5.121   0.159   8.906 -0.6621  1.0829 -0.5148
   61SAPC  H14Y 4831   5.286   0.176   8.860 -1.9548 -1.6708 -1.1811
   61SAPC  C315 4832   5.211   0.353   8.956  0.0005 -0.2373  0.3743
   61SAPC  H15X 4833   5.306   0.408   8.939 -0.6553  0.1324 -2.8373
   61SAPC  H15Y 4834   5.193   0.386   9.060 -0.5645  2.6353 -0.5672
   61SAPC  C316 4835   5.111   0.423   8.859 -0.0060  0.3670 -0.1589
   61SAPC  H16X 4836   5.040   0.493   8.909  0.0876 -0.0888  0.6292
   61SAPC  H16Y 4837   5.057   0.336   8.815 -0.0122  0.0073  0.5565
   61SAPC  C317 4838   5.175   0.492   8.748 -0.7062 -0.1237  1.4649
   61SAPC  H17X 4839   5.252   0.439   8.687  0.7486  2.1613  1.1995
   61SAPC  H17Y 4840   5.229   0.581   8.784 -0.2799 -0.5045  1.7789
   61SAPC  C318 4841   5.064   0.542   8.650 -0.5858  0.8134  0.2256
   61SAPC  H18X 4842   5.105   0.608   8.571 -0.7058 -1.4861 -1.8804
   61SAPC  H18Y 4843   4.983   0.597   8.703 -0.4109  5.3261 -3.5745
   61SAPC  H18Z 4844   5.023   0.448   8.609  1.1371  1.0448 -2.2269
   62SAPC     N 4845   0.976   6.713  11.083 -0.0285 -0.5515  0.3519
   62SAPC   C12 4846   0.840   6.750  11.023  0.7087  0.2534  0.3832
   62SAPC  H12A 4847   0.803   6.836  11.076  1.4257  0.6023  0.3333
   62SAPC  H12B 4848   0.771   6.668  11.033 -1.0891  1.7745  0.9404
   62SAPC   C13 4849   1.087   6.814  11.064 -0.3506 -0.5420 -0.0155
   62SAPC  H13A 4850   1.183   6.770  11.088  0.9539  0.6883 -2.5988
   62SAPC  H13B 4851   1.093   6.844  10.961  0.0025 -2.7633 -0.6914
   62SAPC  H13C 4852   1.076   6.902  11.126  0.1766  0.2812 -1.0759
   62SAPC   C14 4853   0.936   6.691  11.232  0.2806  0.4796  0.5159
   62SAPC  H14A 4854   0.905   6.781  11.283 -0.8356  0.1941  0.3759
   62SAPC  H14B 4855   0.852   6.624  11.224  1.6882 -1.1873 -1.5656
   62SAPC  H14C 4856   1.007   6.631  11.287 -0.5693  0.3644  1.5024
   62SAPC   C15 4857   1.023   6.583  11.024  0.7543 -0.1805 -0.5219
   62SAPC  H15A 4858   1.106   6.548  11.083 -0.3699 -1.9763  0.0823
   62SAPC  H15B 4859   0.942   6.513  11.039 -0.4888  1.2052 -0.4395
   62SAPC  H15C 4860   1.047   6.599  10.920 -0.3972  2.2026 -0.5109
   62SAPC   C11 4861   0.834   6.772  10.862  0.4941  0.1359 -0.6330
   62SAPC  H11A 4862   0.894   6.865  10.847 -1.6748  2.0864  1.7935
   62SAPC  H11B 4863   0.730   6.804  10.837 -0.4409  0.2654  2.8628
   62SAPC     P 4864   0.793   6.566  10.706  0.5396 -0.6990 -0.3918
   62SAPC   O13 4865   0.874   6.505  10.598 -0.0668 -0.8452 -0.1072
   62SAPC   O14 4866   0.720   6.477  10.795  0.2431  0.5476 -0.1376
   62SAPC   O12 4867   0.883   6.668  10.788 -0.4301 -0.7874  0.2463
   62SAPC   O11 4868   0.688   6.659  10.630  0.3947 -0.2665  0.2624
   62SAPC    C1 4869   0.690   6.712  10.500  0.3502 -0.2818 -0.4233
   62SAPC    HA 4870   0.619   6.797  10.491 -0.8158 -1.2634 -0.8354
   62SAPC    HB 4871   0.792   6.747  10.474  0.5586 -1.5304 -1.3721
   62SAPC    C2 4872   0.644   6.609  10.399 -0.0790  0.1533 -0.3257
   62SAPC    HS 4873   0.690   6.512  10.426  0.2347  0.7212  1.2804
   62SAPC   O21 4874   0.688   6.665  10.270 -0.5677  0.5669 -0.0486
   62SAPC   C21 4875   0.739   6.573  10.187  0.8045  0.3635 -0.2589
   62SAPC   O22 4876   0.736   6.457  10.210  0.1037  0.2701 -0.4419
   62SAPC   C22 4877   0.796   6.642  10.066 -0.1508  0.5899 -0.2190
   62SAPC   H2R 4878   0.733   6.731  10.047 -0.4097  0.2984 -0.7517
   62SAPC   H2S 4879   0.895   6.680  10.099 -1.8354  2.4299  3.2450
   62SAPC    C3 4880   0.485   6.582  10.397 -0.1206  0.1759 -0.2346
   62SAPC    HX 4881   0.437   6.682  10.388  1.6367  1.0039 -0.8881
   62SAPC    HY 4882   0.445   6.530  10.487 -0.4739 -1.8300 -1.4882
   62SAPC   O31 4883   0.466   6.491  10.284  0.0667  0.1218  0.0977
   62SAPC   C31 4884   0.345   6.504  10.231  1.0115 -0.1283 -0.1257
   62SAPC   O32 4885   0.253   6.569  10.275 -0.4195 -0.1052  0.3447
   62SAPC   C32 4886   0.337   6.422  10.097  0.2848  0.7788 -0.6704
   62SAPC   H2X 4887   0.295   6.326  10.135  1.3387  0.8204  0.6429
   62SAPC   H2Y 4888   0.438   6.406  10.054  0.5085 -1.7621  0.6058
   62SAPC   C23 4889   0.813   6.544   9.946 -0.0366 -0.3337  0.1778
   62SAPC   H3R 4890   0.707   6.523   9.919 -0.0961 -1.6883  1.2934
   62SAPC   H3S 4891   0.879   6.457   9.967  1.0751 -0.1045 -2.0436
   62SAPC   C24 4892   0.882   6.611   9.823  0.2638  0.9055 -0.9774
   62SAPC   H4R 4893   0.875   6.531   9.746 -0.8755 -0.0784  0.1205
   62SAPC   H4S 4894   0.988   6.630   9.853 -0.4741  0.8702  1.8982
   62SAPC   C25 4895   0.809   6.742   9.781 -0.3526  0.9002 -0.3921
   62SAPC   H5R 4896   0.806   6.814   9.863 -0.8517  0.4475 -0.0084
   62SAPC   C26 4897   0.762   6.772   9.659  0.1934  0.1972 -0.3261
   62SAPC   H6R 4898   0.715   6.871   9.646  1.4972  0.8408 -0.3081
   62SAPC   C27 4899   0.763   6.681   9.538 -0.2188 -0.1742 -0.4293
   62SAPC   H7R 4900   0.675   6.706   9.475  0.9777  2.6455 -1.1215
   62SAPC   H7S 4901   0.750   6.575   9.569 -2.3373  0.5999  1.6191
   62SAPC   C28 4902   0.887   6.678   9.456  0.3095 -0.6252 -0.3687
   62SAPC   H8R 4903   0.978   6.728   9.492 -0.4123  1.0729 -0.7872
   62SAPC   C29 4904   0.882   6.628   9.332 -0.0649 -0.1287  0.6006
   62SAPC   H9R 4905   0.976   6.633   9.275  0.7456  1.0348  1.9908
   62SAPC  C210 4906   0.768   6.576   9.255  0.8659 -0.7937  0.5383
   62SAPC  H10R 4907   0.713   6.503   9.318 -0.8122 -1.1377 -1.2326
   62SAPC  H10S 4908   0.810   6.506   9.179  2.5710  1.2016 -0.4580
   62SAPC  C211 4909   0.673   6.666   9.174  0.7116  0.5763  0.6639
   62SAPC  H11R 4910   0.586   6.688   9.238  1.0374  2.5830  0.4770
   62SAPC  C212 4911   0.692   6.725   9.054  0.2669 -0.1226 -0.0070
   62SAPC  H12R 4912   0.613   6.781   9.001 -2.4553 -0.3510  3.4616
   62SAPC  C213 4913   0.819   6.718   8.966  0.2303  0.3505  0.4728
   62SAPC  H13R 4914   0.899   6.684   9.035 -1.3420 -1.4576  1.5345
   62SAPC  H13S 4915   0.841   6.820   8.930  0.7306  0.0886  0.0184
   62SAPC  C214 4916   0.814   6.611   8.856 -0.2297  0.1614  0.0932
   62SAPC  H14R 4917   0.733   6.537   8.862  0.1823 -0.1804  1.8084
   62SAPC  C215 4918   0.897   6.593   8.758  0.2406  0.7978  0.2770
   62SAPC  H15R 4919   0.870   6.503   8.700 -1.7441  1.2653  0.3799
   62SAPC  C216 4920   1.014   6.682   8.721 -0.1659  0.1531  0.3281
   62SAPC  H16R 4921   1.102   6.615   8.721 -0.9773 -0.9332  0.1691
   62SAPC  H16S 4922   1.041   6.757   8.799 -1.0029 -0.2445  1.0199
   62SAPC  C217 4923   1.002   6.731   8.579  0.5696 -0.1626  0.4456
   62SAPC  H17R 4924   0.946   6.827   8.569  1.7157  0.2846 -3.8255
   62SAPC  H17S 4925   0.943   6.654   8.525  1.1738  1.3931 -2.6993
   62SAPC  C218 4926   1.137   6.767   8.518 -0.5488  0.5301 -0.0667
   62SAPC  H18R 4927   1.203   6.688   8.557 -2.3600 -1.1821 -0.3087
   62SAPC  H18S 4928   1.172   6.867   8.554  0.0622 -0.4235  2.1770
   62SAPC  C219 4929   1.135   6.754   8.369 -0.6629 -0.7157 -0.3728
   62SAPC  H19R 4930   1.043   6.802   8.329  0.5990  3.5553  1.2282
   62SAPC  H19S 4931   1.126   6.646   8.346 -2.3666 -0.9560  1.1974
   62SAPC  C220 4932   1.253   6.818   8.289  0.5671  0.1638  0.3881
   62SAPC  H20R 4933   1.351   6.771   8.312  0.9848  0.5715 -0.5320
   62SAPC  H20S 4934   1.252   6.921   8.330 -1.4487  0.6949 -0.8782
   62SAPC  H20T 4935   1.241   6.805   8.180  1.1272  0.6302  0.2660
   62SAPC   C33 4936   0.233   6.488   9.999  0.2430  0.1219 -0.3375
   62SAPC   H3X 4937   0.133   6.500  10.045 -0.4670 -2.2758 -1.1102
   62SAPC   H3Y 4938   0.208   6.427   9.909  2.4672 -0.7540 -0.4293
   62SAPC   C34 4939   0.263   6.623   9.929 -0.1881 -0.0012  0.1331
   62SAPC   H4X 4940   0.282   6.697  10.010 -0.3291  1.2521 -0.9272
   62SAPC   H4Y 4941   0.172   6.655   9.874 -0.6363 -0.0028  0.8681
   62SAPC   C35 4942   0.380   6.618   9.840 -0.1231  0.2890 -0.1990
   62SAPC   H5X 4943   0.462   6.564   9.892 -0.3270 -3.2944 -3.2142
   62SAPC   H5Y 4944   0.410   6.723   9.818  1.7062 -0.2065 -0.1913
   62SAPC   C36 4945   0.348   6.553   9.707 -0.5288  0.4092 -0.0567
   62SAPC   H6X 4946   0.261   6.602   9.658 -0.5259  1.9013  1.3304
   62SAPC   H6Y 4947   0.329   6.446   9.730  1.4700  0.5504  2.8322
   62SAPC   C37 4948   0.462   6.575   9.602 -0.3020  0.8540  0.0087
   62SAPC   H7X 4949   0.558   6.536   9.643 -0.3138  2.0557  1.2350
   62SAPC   H7Y 4950   0.486   6.683   9.591  0.6630  0.5938 -0.5463
   62SAPC   C38 4951   0.434   6.503   9.466 -0.1554  0.2088  0.5459
   62SAPC   H8X 4952   0.424   6.394   9.484 -0.4213 -0.1870 -1.6778
   62SAPC   H8Y 4953   0.527   6.519   9.407 -1.3058  1.3533 -1.0464
   62SAPC   C39 4954   0.324   6.562   9.382  0.2048  0.0707  0.0771
   62SAPC   H9X 4955   0.348   6.670   9.373  2.6995 -0.2554  1.7757
   62SAPC   H9Y 4956   0.229   6.560   9.439  0.7675 -1.4374  1.0172
   62SAPC  C310 4957   0.300   6.497   9.244 -0.5837  0.7331 -0.2279
   62SAPC  H10X 4958   0.271   6.390   9.247  1.4800  0.1560  2.8662
   62SAPC  H10Y 4959   0.404   6.500   9.204  1.0518 -1.3441  3.3554
   62SAPC  C311 4960   0.195   6.579   9.160  0.3672 -0.4129  0.3575
   62SAPC  H11X 4961   0.203   6.679   9.207  1.6939 -0.2501 -0.1674
   62SAPC  H11Y 4962   0.089   6.551   9.176  0.4255 -0.6508  0.3390
   62SAPC  C312 4963   0.227   6.580   9.010 -0.0115 -0.7290 -0.3433
   62SAPC  H12X 4964   0.327   6.627   8.999  0.0557 -0.4623  1.2061
   62SAPC  H12Y 4965   0.152   6.646   8.960 -0.0468 -1.2588 -1.0057
   62SAPC  C313 4966   0.238   6.451   8.945 -0.6784  0.7311  0.2821
   62SAPC  H13X 4967   0.140   6.397   8.945 -0.2146 -0.1397 -0.0991
   62SAPC  H13Y 4968   0.306   6.387   9.005 -0.5165  0.3840 -0.2551
   62SAPC  C314 4969   0.292   6.449   8.806  0.0251 -0.8433  0.6038
   62SAPC  H14X 4970   0.311   6.344   8.775 -2.1968 -1.1392  0.0556
   62SAPC  H14Y 4971   0.379   6.518   8.798 -2.1255  1.8780 -1.9516
   62SAPC  C315 4972   0.183   6.513   8.711 -1.2536  0.5904  0.7155
   62SAPC  H15X 4973   0.148   6.612   8.747  1.9483  2.4976 -0.8947
   62SAPC  H15Y 4974   0.099   6.440   8.707  0.3558 -1.4622  1.9108
   62SAPC  C316 4975   0.225   6.544   8.570 -0.3157 -0.0595  0.4855
   62SAPC  H16X 4976   0.313   6.612   8.574  0.3842 -0.8677 -0.4269
   62SAPC  H16Y 4977   0.137   6.602   8.536 -0.6852 -0.1801  1.2047
   62SAPC  C317 4978   0.261   6.413   8.492  0.2115  0.2836 -0.4827
   62SAPC  H17X 4979   0.186   6.336   8.520  1.6437 -1.5763 -1.5738
   62SAPC  H17Y 4980   0.366   6.383   8.513  0.3066  2.0601  2.0488
   62SAPC  C318 4981   0.258   6.427   8.338 -0.0646 -0.1856 -0.3507
   62SAPC  H18X 4982   0.178   6.498   8.309 -1.1656 -1.9386 -1.8007
   62SAPC  H18Y 4983   0.245   6.327   8.293 -1.5640 -0.5431  0.8202
   62SAPC  H18Z 4984   0.359   6.459   8.303  0.4075 -0.9121  0.2878
   63SAPC     N 4985   4.427   5.125   6.037 -0.2192 -0.2842 -0.7201
   63SAPC   C12 4986   4.559   5.088   6.099 -0.5723 -0.3668 -0.6675
   63SAPC  H12A 4987   4.601   5.015   6.032 -0.1506 -0.5822 -0.1701
   63SAPC  H12B 4988   4.546   5.047   6.198  2.7378  1.3882  0.6492
   63SAPC   C13 4989   4.443   5.173   5.897  0.2096 -0.1163  0.6505
   63SAPC  H13A 4990   4.352   5.210   5.852  0.1296 -1.2907 -0.1948
   63SAPC  H13B 4991   4.520   5.248   5.905 -0.1711  0.2941  0.4895
   63SAPC  H13C 4992   4.477   5.101   5.824  0.1657 -0.0535  0.5681
   63SAPC   C14 4993   4.342   5.007   6.028  0.5010 -0.4128 -0.0926
   63SAPC  H14A 4994   4.246   5.037   5.990  0.5384  0.0076  0.1411
   63SAPC  H14B 4995   4.376   4.937   5.953  3.2320  1.2382 -0.5222
   63SAPC  H14C 4996   4.329   4.962   6.125 -0.2086  1.1973  0.5809
   63SAPC   C15 4997   4.357   5.233   6.126  0.5023 -0.3755 -0.2663
   63SAPC  H15A 4998   4.419   5.321   6.134 -1.4157  0.8746  2.1986
   63SAPC  H15B 4999   4.266   5.263   6.076  0.8166  0.9991 -0.0610
   63SAPC  H15C 5000   4.343   5.195   6.226 -0.5661  0.6856  0.0096
   63SAPC   C11 5001   4.666   5.190   6.130 -0.4057  0.6879 -0.1623
   63SAPC  H11A 5002   4.700   5.234   6.034  1.8772 -0.4042  0.0622
   63SAPC  H11B 5003   4.756   5.132   6.162 -0.8538  1.6979  3.3813
   63SAPC     P 5004   4.608   5.247   6.380 -0.2779  0.3910 -0.0087
   63SAPC   O13 5005   4.483   5.311   6.422  0.4525  0.4634  0.5295
   63SAPC   O14 5006   4.621   5.101   6.401 -0.4494  0.2753 -0.1484
   63SAPC   O12 5007   4.630   5.285   6.223 -0.6009  0.0829 -0.2249
   63SAPC   O11 5008   4.733   5.323   6.444  0.4346 -0.1430  0.5592
   63SAPC    C1 5009   4.863   5.256   6.475 -0.3429 -0.6945  0.6805
   63SAPC    HA 5010   4.894   5.191   6.390  0.7178  1.8999 -1.0413
   63SAPC    HB 5011   4.936   5.339   6.484 -0.3343 -0.5735 -0.3884
   63SAPC    C2 5012   4.862   5.166   6.603  0.7262 -0.4127 -0.3104
   63SAPC    HS 5013   4.794   5.082   6.574  1.7726 -1.4860  0.2514
   63SAPC   O21 5014   4.808   5.246   6.711 -0.7135  0.7324 -0.3816
   63SAPC   C21 5015   4.712   5.184   6.775 -0.0834 -0.0118 -0.5393
   63SAPC   O22 5016   4.677   5.070   6.758 -0.1386  0.3538 -0.2576
   63SAPC   C22 5017   4.625   5.290   6.840  0.1344  0.1575 -0.0789
   63SAPC   H2R 5018   4.684   5.379   6.870  0.8554 -0.6728  1.0128
   63SAPC   H2S 5019   4.542   5.317   6.771 -2.4645 -2.4958  1.7632
   63SAPC    C3 5020   4.994   5.108   6.631  0.2386 -0.1834  0.0296
   63SAPC    HX 5021   5.077   5.181   6.638  1.4899 -1.1072 -3.2321
   63SAPC    HY 5022   5.024   5.037   6.551 -0.6021 -0.1038 -0.3616
   63SAPC   O31 5023   4.981   5.040   6.759  0.2613 -0.5146  0.4413
   63SAPC   C31 5024   4.949   4.913   6.756 -0.1123 -0.6044  0.4948
   63SAPC   O32 5025   4.921   4.853   6.649  0.2007  0.3496 -0.0784
   63SAPC   C32 5026   4.977   4.841   6.882 -0.1531 -0.2291  0.0643
   63SAPC   H2X 5027   5.060   4.768   6.867  0.2033  0.0800  0.5230
   63SAPC   H2Y 5028   4.892   4.776   6.913  2.0026 -2.0402  2.6594
   63SAPC   C23 5029   4.556   5.230   6.966  0.4970  0.2509 -0.3699
   63SAPC   H3R 5030   4.508   5.134   6.939 -0.9408  1.1537 -1.1750
   63SAPC   H3S 5031   4.470   5.293   6.998  0.3503  0.4456 -1.1203
   63SAPC   C24 5032   4.661   5.214   7.082  0.4738  0.7060  0.1769
   63SAPC   H4R 5033   4.727   5.303   7.080  0.4396  0.7748  1.4373
   63SAPC   H4S 5034   4.707   5.116   7.059  0.6751  0.7986  0.1875
   63SAPC   C25 5035   4.600   5.198   7.217  0.5500 -0.0998 -0.2476
   63SAPC   H5R 5036   4.520   5.273   7.228  1.4454  1.0289 -1.2071
   63SAPC   C26 5037   4.630   5.121   7.327  0.2148  0.0562  0.2617
   63SAPC   H6R 5038   4.567   5.122   7.417 -1.3558 -0.8882 -0.7701
   63SAPC   C27 5039   4.741   5.021   7.335 -0.6610 -0.5823  0.6384
   63SAPC   H7R 5040   4.763   5.003   7.442 -1.6834  0.4943  1.0512
   63SAPC   H7S 5041   4.833   5.071   7.296 -0.2290 -1.7843  0.0559
   63SAPC   C28 5042   4.711   4.890   7.266 -0.2112 -0.6976 -0.0066
   63SAPC   H8R 5043   4.680   4.900   7.161  0.3258  3.2326  0.0604
   63SAPC   C29 5044   4.735   4.768   7.319 -0.2931  0.4110 -0.3582
   63SAPC   H9R 5045   4.700   4.679   7.264 -1.9183 -0.5076  1.9861
   63SAPC  C210 5046   4.792   4.741   7.458  0.6160  0.0538  0.6027
   63SAPC  H10R 5047   4.885   4.801   7.469  0.5269  0.3102 -0.0214
   63SAPC  H10S 5048   4.837   4.640   7.450  1.7518  0.6286 -0.7331
   63SAPC  C211 5049   4.708   4.758   7.580 -0.2915  0.0340  0.6272
   63SAPC  H11R 5050   4.625   4.827   7.560  0.8588  1.4844  0.7523
   63SAPC  C212 5051   4.738   4.705   7.700 -0.4686  0.7175 -0.0544
   63SAPC  H12R 5052   4.674   4.713   7.789 -0.7772 -2.4178  0.0958
   63SAPC  C213 5053   4.853   4.615   7.748 -0.1352  0.3043  0.4609
   63SAPC  H13R 5054   4.936   4.612   7.675  1.3100 -0.4881  2.0514
   63SAPC  H13S 5055   4.818   4.510   7.743  1.7024 -0.3586  0.6376
   63SAPC  C214 5056   4.911   4.646   7.882 -0.4865 -0.4287  0.1189
   63SAPC  H14R 5057   4.889   4.743   7.928  0.6402  0.5862 -1.3983
   63SAPC  C215 5058   4.983   4.562   7.957 -0.1017 -0.5137 -0.3847
   63SAPC  H15R 5059   5.018   4.594   8.056 -1.2675 -1.3950  0.3438
   63SAPC  C216 5060   5.041   4.425   7.917  0.4530  0.0532  0.0982
   63SAPC  H16R 5061   5.136   4.442   7.862 -0.0319  3.0425 -0.0083
   63SAPC  H16S 5062   4.971   4.379   7.845 -1.0623  0.0418  1.5231
   63SAPC  C217 5063   5.055   4.328   8.037  0.6802 -0.5990  0.0980
   63SAPC  H17R 5064   5.138   4.360   8.105 -0.7586 -0.8092  2.0161
   63SAPC  H17S 5065   5.084   4.233   7.987 -0.2409  1.0722 -4.0767
   63SAPC  C218 5066   4.924   4.307   8.119 -0.4815  0.1444  0.3513
   63SAPC  H18R 5067   4.844   4.269   8.051 -1.1751  0.2447  1.1094
   63SAPC  H18S 5068   4.898   4.406   8.162  0.2120  0.0019  1.1067
   63SAPC  C219 5069   4.952   4.209   8.228  0.2464  0.0006  1.3244
   63SAPC  H19R 5070   5.038   4.253   8.284  2.7499  0.9310 -2.8046
   63SAPC  H19S 5071   4.994   4.119   8.177 -0.0142  0.0092  1.0902
   63SAPC  C220 5072   4.830   4.176   8.314  0.2626 -0.1950 -0.2783
   63SAPC  H20R 5073   4.785   4.271   8.351  2.8013  1.3605 -0.8939
   63SAPC  H20S 5074   4.851   4.109   8.400  3.2542 -1.0321 -1.5226
   63SAPC  H20T 5075   4.756   4.127   8.247  2.2108 -2.7872 -0.6969
   63SAPC   C33 5076   5.025   4.926   7.001  0.0982 -0.0135 -0.1499
   63SAPC   H3X 5077   4.941   4.994   7.028  0.4466  0.1194  0.6487
   63SAPC   H3Y 5078   5.115   4.974   6.957  0.0294 -1.3562 -1.8715
   63SAPC   C34 5079   5.071   4.839   7.117 -0.0068  1.0796  0.3983
   63SAPC   H4X 5080   5.151   4.777   7.071 -0.4575  1.1168 -0.4578
   63SAPC   H4Y 5081   4.994   4.763   7.142  0.2598  0.3341 -0.9388
   63SAPC   C35 5082   5.126   4.911   7.239  0.3170 -0.0897 -0.0439
   63SAPC   H5X 5083   5.039   4.967   7.278  0.6267 -1.8183  3.4973
   63SAPC   H5Y 5084   5.211   4.975   7.206  1.1739 -1.6937 -1.0713
   63SAPC   C36 5085   5.173   4.828   7.360 -0.6877  0.3907  0.3756
   63SAPC   H6X 5086   5.254   4.757   7.333 -0.5416  1.0770 -1.1158
   63SAPC   H6Y 5087   5.086   4.770   7.397 -0.3849 -1.3492 -1.4802
   63SAPC   C37 5088   5.213   4.922   7.480 -0.8123  0.3681  1.1473
   63SAPC   H7X 5089   5.127   4.989   7.502 -0.5360  1.0434  0.2505
   63SAPC   H7Y 5090   5.297   4.989   7.451  1.1467 -2.3267  0.1959
   63SAPC   C38 5091   5.250   4.858   7.618  0.7012 -0.8183  0.2678
   63SAPC   H8X 5092   5.348   4.808   7.602  0.7733  0.0501 -2.5586
   63SAPC   H8Y 5093   5.176   4.780   7.647 -3.3294  2.9698  1.2257
   63SAPC   C39 5094   5.259   4.964   7.728  0.1619 -0.3435 -0.5877
   63SAPC   H9X 5095   5.168   5.028   7.736 -1.8053 -2.7570 -2.3059
   63SAPC   H9Y 5096   5.352   5.024   7.718  0.1596 -0.4585 -1.3685
   63SAPC  C310 5097   5.275   4.896   7.867 -0.6408  0.2022 -0.1991
   63SAPC  H10X 5098   5.363   4.830   7.871 -1.8470 -1.4763 -0.3887
   63SAPC  H10Y 5099   5.177   4.846   7.884  0.7917 -2.8369 -0.2887
   63SAPC  C311 5100   5.304   5.003   7.973  0.1769 -0.2247  0.1855
   63SAPC  H11X 5101   5.217   5.072   7.970 -1.4448 -2.0839  1.7775
   63SAPC  H11Y 5102   5.394   5.061   7.944 -0.0807  1.2605  2.1613
   63SAPC  C312 5103   5.324   4.961   8.115 -0.2803  0.4453  0.6001
   63SAPC  H12X 5104   5.408   4.889   8.120 -2.0302 -1.6067  2.0183
   63SAPC  H12Y 5105   5.236   4.901   8.145  0.9576 -0.7622  1.9795
   63SAPC  C313 5106   5.364   5.070   8.213  0.2040 -0.2191  0.1500
   63SAPC  H13X 5107   5.439   5.134   8.161  0.8209 -0.0517  1.2078
   63SAPC  H13Y 5108   5.403   5.020   8.305  0.7972  0.3674  0.2274
   63SAPC  C314 5109   5.254   5.161   8.263 -0.3746  0.4375 -0.8705
   63SAPC  H14X 5110   5.200   5.096   8.334 -0.8348 -0.6972 -2.2182
   63SAPC  H14Y 5111   5.180   5.192   8.186 -1.4990  1.2752  0.4888
   63SAPC  C315 5112   5.314   5.279   8.353  0.5586  0.6488  0.5608
   63SAPC  H15X 5113   5.389   5.329   8.287  0.3074 -0.3199 -0.4991
   63SAPC  H15Y 5114   5.363   5.226   8.437 -0.3190 -0.9903  0.0891
   63SAPC  C316 5115   5.202   5.349   8.422 -0.3893  0.0045  0.2803
   63SAPC  H16X 5116   5.170   5.277   8.501  3.0759 -0.0946  1.8003
   63SAPC  H16Y 5117   5.122   5.360   8.346 -0.5854 -1.0515  0.3158
   63SAPC  C317 5118   5.242   5.483   8.482  0.7303  0.2723 -0.0928
   63SAPC  H17X 5119   5.325   5.457   8.551 -1.8645 -3.6926  1.9114
   63SAPC  H17Y 5120   5.160   5.510   8.552 -0.3191 -0.8251 -0.8524
   63SAPC  C318 5121   5.264   5.600   8.388  0.3272 -0.1623  1.1892
   63SAPC  H18X 5122   5.287   5.688   8.452 -0.6825 -0.5486  2.1206
   63SAPC  H18Y 5123   5.172   5.618   8.328  0.1231  0.1253  1.5798
   63SAPC  H18Z 5124   5.351   5.580   8.322 -1.0894  0.8233 -1.0916
   64SAPC     N 5125   0.004   5.793   5.899 -0.7151  0.3194  0.0224
   64SAPC   C12 5126  -0.074   5.893   5.977  0.0399 -0.0530  0.4131
   64SAPC  H12A 5127  -0.051   5.890   6.082  1.1342 -1.2857  0.1648
   64SAPC  H12B 5128  -0.175   5.866   5.948  0.2969 -0.0193 -0.5475
   64SAPC   C13 5129  -0.046   5.653   5.933 -0.0415  0.0903  0.1145
   64SAPC  H13A 5130  -0.147   5.648   5.897  0.2285  0.0298 -0.6401
   64SAPC  H13B 5131   0.019   5.583   5.883  3.2032  1.9660  1.3293
   64SAPC  H13C 5132  -0.032   5.621   6.035  1.7213  1.8054  0.4760
   64SAPC   C14 5133  -0.007   5.808   5.749  0.4424 -0.7338 -0.3561
   64SAPC  H14A 5134  -0.109   5.834   5.724 -1.0536 -1.5444  3.9568
   64SAPC  H14B 5135   0.049   5.895   5.717 -0.3407 -0.2507 -0.4628
   64SAPC  H14C 5136   0.030   5.732   5.682 -0.0885 -0.9016 -0.4720
   64SAPC   C15 5137   0.150   5.807   5.940 -0.5491 -0.1270  0.5217
   64SAPC  H15A 5138   0.222   5.765   5.871 -0.7853 -1.6321  1.1516
   64SAPC  H15B 5139   0.176   5.911   5.951 -1.4799  0.0492  1.2346
   64SAPC  H15C 5140   0.167   5.759   6.036 -3.0242  1.3568  1.8087
   64SAPC   C11 5141  -0.045   6.040   5.946  0.3251 -0.6192 -0.4271
   64SAPC  H11A 5142  -0.128   6.104   5.982  0.5257 -0.6286  0.0518
   64SAPC  H11B 5143  -0.044   6.049   5.835 -0.5389 -0.7451 -0.4534
   64SAPC     P 5144   0.125   6.111   6.135 -0.2093 -0.4065 -0.1473
   64SAPC   O13 5145   0.255   6.057   6.170  0.1042 -0.1823 -0.4383
   64SAPC   O14 5146   0.100   6.261   6.152  0.3868 -0.4659  0.6178
   64SAPC   O12 5147   0.087   6.077   5.986  0.1961  0.2330 -0.4814
   64SAPC   O11 5148   0.017   6.027   6.213 -0.2359 -0.4067 -0.8798
   64SAPC    C1 5149  -0.099   6.085   6.271 -0.9324  0.3428  0.0004
   64SAPC    HA 5150  -0.120   6.181   6.219  2.2177  1.8999  1.3515
   64SAPC    HB 5151  -0.183   6.012   6.265 -1.0447  0.5485 -1.2353
   64SAPC    C2 5152  -0.083   6.142   6.419 -0.2958  0.1869 -0.3252
   64SAPC    HS 5153  -0.011   6.225   6.409  0.1783 -0.0423  1.1150
   64SAPC   O21 5154  -0.035   6.037   6.503 -0.1444 -0.0782  0.3410
   64SAPC   C21 5155   0.062   6.072   6.592  0.7264 -0.1414 -0.7306
   64SAPC   O22 5156   0.089   6.186   6.624  0.0713 -0.1203  0.1053
   64SAPC   C22 5157   0.128   5.949   6.647  0.6045  0.5836  0.2271
   64SAPC   H2R 5158   0.064   5.908   6.729  0.7229 -1.2901 -0.5561
   64SAPC   H2S 5159   0.136   5.873   6.567  0.4613  1.5069 -0.6750
   64SAPC    C3 5160  -0.217   6.191   6.477 -0.5277  0.0010 -0.0060
   64SAPC    HX 5161  -0.277   6.098   6.476 -0.6626  0.0859 -1.0112
   64SAPC    HY 5162  -0.267   6.260   6.404 -1.8637 -0.3595  0.5345
   64SAPC   O31 5163  -0.209   6.242   6.614  0.1556  0.4644 -0.4797
   64SAPC   C31 5164  -0.163   6.369   6.615  0.5410 -0.0255 -0.7310
   64SAPC   O32 5165  -0.149   6.436   6.514 -0.8522  0.0287 -0.2167
   64SAPC   C32 5166  -0.131   6.414   6.757 -0.5925 -0.0485  0.0349
   64SAPC   H2X 5167  -0.022   6.433   6.766 -0.8268  1.9246 -0.7869
   64SAPC   H2Y 5168  -0.147   6.324   6.820 -0.9403 -0.3435 -0.4683
   64SAPC   C23 5169   0.265   5.967   6.702  0.4094  0.0169  0.0201
   64SAPC   H3R 5170   0.334   6.023   6.635  2.5325 -0.0219  2.0452
   64SAPC   H3S 5171   0.288   5.859   6.708 -0.9370 -0.2076  2.0111
   64SAPC   C24 5172   0.278   6.015   6.852  0.0657 -0.8085  0.0075
   64SAPC   H4R 5173   0.379   5.974   6.870  0.1563 -1.1136 -1.1272
   64SAPC   H4S 5174   0.194   5.961   6.900 -2.0595  0.6218 -1.8554
   64SAPC   C25 5175   0.274   6.168   6.865 -0.5280 -0.2007  0.8254
   64SAPC   H5R 5176   0.273   6.226   6.772  0.7562  0.7629  1.3748
   64SAPC   C26 5177   0.273   6.235   6.978 -0.4837  0.2423 -0.0448
   64SAPC   H6R 5178   0.285   6.344   6.988 -0.5721  0.1788  0.7994
   64SAPC   C27 5179   0.284   6.163   7.112  0.4895 -0.5469 -0.6719
   64SAPC   H7R 5180   0.341   6.068   7.099 -0.7037 -1.2786 -0.7255
   64SAPC   H7S 5181   0.182   6.130   7.142 -0.1544  0.6063 -1.5111
   64SAPC   C28 5182   0.337   6.244   7.229  0.0878  0.1858 -0.6119
   64SAPC   H8R 5183   0.322   6.352   7.215 -3.7507  0.2426  2.3315
   64SAPC   C29 5184   0.395   6.201   7.343 -0.3475 -0.3380  0.3685
   64SAPC   H9R 5185   0.419   6.272   7.423 -0.6363 -1.0272  1.0791
   64SAPC  C210 5186   0.435   6.060   7.379  0.0732  0.8046  0.1635
   64SAPC  H10R 5187   0.522   6.073   7.446 -0.4877  2.7578  0.5584
   64SAPC  H10S 5188   0.474   5.999   7.294 -1.9749  0.1959 -0.4036
   64SAPC  C211 5189   0.317   5.988   7.436  0.6792 -0.3765  0.2586
   64SAPC  H11R 5190   0.227   5.968   7.377  0.2005 -1.9708  1.4607
   64SAPC  C212 5191   0.305   5.967   7.568  0.0307  0.2562  0.3945
   64SAPC  H12R 5192   0.214   5.918   7.605  0.5275  1.1355  2.9176
   64SAPC  C213 5193   0.405   6.013   7.674  0.1980  0.6975 -0.0636
   64SAPC  H13R 5194   0.509   5.992   7.639  1.3271 -0.6559  3.6629
   64SAPC  H13S 5195   0.410   5.946   7.762 -1.4779  0.6333 -0.0009
   64SAPC  C214 5196   0.383   6.162   7.713  0.0794 -0.2382 -0.1924
   64SAPC  H14R 5197   0.395   6.248   7.645  0.4723 -1.0240 -1.1413
   64SAPC  C215 5198   0.354   6.201   7.843 -0.4298  0.5169 -0.5045
   64SAPC  H15R 5199   0.339   6.308   7.867 -2.2175 -0.1306  1.6721
   64SAPC  C216 5200   0.350   6.115   7.971  0.5665  0.2623 -0.0780
   64SAPC  H16R 5201   0.379   6.175   8.061 -3.7730  0.8198  1.1892
   64SAPC  H16S 5202   0.423   6.034   7.954 -0.4324 -0.2082 -2.5082
   64SAPC  C217 5203   0.205   6.060   8.003 -0.1575  0.0520  0.4384
   64SAPC  H17R 5204   0.216   5.969   8.066  1.2404  0.6259  1.0692
   64SAPC  H17S 5205   0.153   6.035   7.908 -1.5708 -1.1847  1.5039
   64SAPC  C218 5206   0.118   6.164   8.083 -0.3351 -0.0161 -0.5043
   64SAPC  H18R 5207   0.140   6.264   8.040 -0.8715 -0.5026 -1.9919
   64SAPC  H18S 5208   0.145   6.171   8.190 -2.1126 -2.8814  0.2526
   64SAPC  C219 5209  -0.029   6.119   8.070 -0.0939 -0.4189  0.1102
   64SAPC  H19R 5210  -0.042   6.109   7.960  0.4055  2.1188 -0.2249
   64SAPC  H19S 5211  -0.085   6.208   8.105 -1.1157 -1.4557  1.1708
   64SAPC  C220 5212  -0.084   5.994   8.134 -0.2339  0.4156  0.2630
   64SAPC  H20R 5213  -0.025   5.903   8.110  1.4779  1.8249 -1.3008
   64SAPC  H20S 5214  -0.184   5.975   8.091 -0.5513  0.3284  1.0373
   64SAPC  H20T 5215  -0.097   6.000   8.244 -0.8624 -4.4433  0.6459
   64SAPC   C33 5216  -0.216   6.541   6.798 -0.6217 -0.2087 -0.3567
   64SAPC   H3X 5217  -0.291   6.585   6.730  0.2241  1.8965 -0.0056
   64SAPC   H3Y 5218  -0.150   6.629   6.817 -2.4236  0.9953  0.5928
   64SAPC   C34 5219  -0.275   6.526   6.939 -0.0713  0.0025  0.9782
   64SAPC   H4X 5220  -0.343   6.438   6.945 -0.2742  0.1797  1.3644
   64SAPC   H4Y 5221  -0.339   6.615   6.957  0.2475  0.2051  1.1139
   64SAPC   C35 5222  -0.175   6.534   7.052  0.2691  0.7035  0.9687
   64SAPC   H5X 5223  -0.130   6.635   7.052 -2.2274  1.9018  0.1342
   64SAPC   H5Y 5224  -0.094   6.459   7.043  0.9066  1.3048  1.5715
   64SAPC   C36 5225  -0.248   6.502   7.183  0.5026 -0.2491 -0.2739
   64SAPC   H6X 5226  -0.172   6.508   7.263 -0.1173  0.8632  0.2674
   64SAPC   H6Y 5227  -0.307   6.408   7.178 -0.0675  0.1316 -0.8970
   64SAPC   C37 5228  -0.345   6.623   7.221 -0.0880  0.0269  0.1331
   64SAPC   H7X 5229  -0.426   6.617   7.146  0.4271 -2.9389 -0.2991
   64SAPC   H7Y 5230  -0.287   6.718   7.214 -0.6991  0.5840  2.0953
   64SAPC   C38 5231  -0.389   6.619   7.367  0.8922 -0.0537  0.7013
   64SAPC   H8X 5232  -0.440   6.521   7.354  1.1041 -0.1226  0.3910
   64SAPC   H8Y 5233  -0.456   6.706   7.385  0.4903 -0.4243  1.0319
   64SAPC   C39 5234  -0.299   6.610   7.486 -0.9118  0.0766 -0.8992
   64SAPC   H9X 5235  -0.230   6.697   7.489  0.1200 -0.7414  0.7759
   64SAPC   H9Y 5236  -0.230   6.523   7.480  0.7430  1.3431 -0.8992
   64SAPC  C310 5237  -0.373   6.600   7.618 -0.3077 -0.1963 -0.6402
   64SAPC  H10X 5238  -0.404   6.494   7.624  0.5379 -0.3880  0.8754
   64SAPC  H10Y 5239  -0.464   6.664   7.610 -1.2522 -1.5227 -0.7381
   64SAPC  C311 5240  -0.285   6.636   7.737  0.0370 -0.5088 -0.2773
   64SAPC  H11X 5241  -0.357   6.652   7.821 -0.2731 -0.3029 -0.5830
   64SAPC  H11Y 5242  -0.239   6.734   7.713  0.8408 -0.4145  1.4541
   64SAPC  C312 5243  -0.180   6.530   7.773  0.0524 -0.4682 -0.2646
   64SAPC  H12X 5244  -0.103   6.526   7.693  0.7583  4.4469 -0.1421
   64SAPC  H12Y 5245  -0.228   6.431   7.783  1.2050 -0.8997  1.3917
   64SAPC  C313 5246  -0.106   6.573   7.904 -0.7202  0.0688 -0.9051
   64SAPC  H13X 5247  -0.049   6.662   7.872  0.8347 -0.1655  1.0480
   64SAPC  H13Y 5248  -0.028   6.504   7.941 -1.4812  0.7305  2.1752
   64SAPC  C314 5249  -0.200   6.580   8.029  0.1709  0.7834 -0.1509
   64SAPC  H14X 5250  -0.285   6.508   8.025  1.5784 -0.8971 -1.6780
   64SAPC  H14Y 5251  -0.230   6.687   8.035  1.6165  1.1356  1.6274
   64SAPC  C315 5252  -0.122   6.539   8.158  0.4871 -0.4335  0.0592
   64SAPC  H15X 5253  -0.047   6.619   8.175  0.9869 -0.6178 -1.2206
   64SAPC  H15Y 5254  -0.072   6.441   8.145 -1.1035 -1.1938 -0.6801
   64SAPC  C316 5255  -0.210   6.534   8.284  0.1622 -0.9901 -0.1345
   64SAPC  H16X 5256  -0.298   6.466   8.276  0.3250 -1.4445  1.5530
   64SAPC  H16Y 5257  -0.249   6.634   8.314 -0.8539 -1.4785  0.1892
   64SAPC  C317 5258  -0.118   6.476   8.391  0.1124 -0.4030 -0.0314
   64SAPC  H17X 5259  -0.038   6.549   8.414 -1.1758  0.9963  0.1872
   64SAPC  H17Y 5260  -0.062   6.384   8.364  1.1105  1.0434 -3.4330
   64SAPC  C318 5261  -0.180   6.449   8.526  0.2947 -0.5138 -0.1111
   64SAPC  H18X 5262  -0.242   6.536   8.558 -0.0292 -0.7568 -0.0748
   64SAPC  H18Y 5263  -0.107   6.439   8.609  0.2380  0.0054  0.0078
   64SAPC  H18Z 5264  -0.241   6.357   8.530  0.7439 -0.7860  2.6155
   65SAPC     N 5265   0.468   6.424   5.894  0.0581  0.2020 -0.2742
   65SAPC   C12 5266   0.500   6.518   6.012  0.8947  0.4905  0.6808
   65SAPC  H12A 5267   0.596   6.567   6.004  0.1292  2.3535  2.0987
   65SAPC  H12B 5268   0.525   6.456   6.097  1.3067  2.0103  1.7273
   65SAPC   C13 5269   0.420   6.511   5.772 -0.4630  0.3741  0.1583
   65SAPC  H13A 5270   0.490   6.584   5.735  1.3959 -0.9603  0.8539
   65SAPC  H13B 5271   0.408   6.444   5.688  0.9626  1.7808 -1.2297
   65SAPC  H13C 5272   0.328   6.565   5.787 -0.1815  0.9276 -0.0870
   65SAPC   C14 5273   0.586   6.343   5.858  0.1515  0.3620  0.4251
   65SAPC  H14A 5274   0.628   6.280   5.935  2.9106  0.1303 -1.1331
   65SAPC  H14B 5275   0.564   6.272   5.779  0.3137  1.1172 -0.3095
   65SAPC  H14C 5276   0.665   6.412   5.833  0.3273  0.2503  0.6735
   65SAPC   C15 5277   0.358   6.333   5.941 -0.2381  0.1615  1.2560
   65SAPC  H15A 5278   0.272   6.391   5.971 -1.0532 -0.2804 -0.1360
   65SAPC  H15B 5279   0.333   6.268   5.858  1.2931  1.7839 -0.5819
   65SAPC  H15C 5280   0.374   6.275   6.031 -1.9269 -0.5447  1.1477
   65SAPC   C11 5281   0.395   6.614   6.064 -0.6471 -0.6924 -0.1440
   65SAPC  H11A 5282   0.428   6.653   6.163 -1.2821  1.7340 -0.8180
   65SAPC  H11B 5283   0.305   6.565   6.106 -0.2361 -1.0151  0.3833
   65SAPC     P 5284   0.469   6.841   5.960 -0.4321  0.5067  0.0668
   65SAPC   O13 5285   0.607   6.783   5.986  0.6796 -0.1072 -0.2329
   65SAPC   O14 5286   0.439   6.914   5.838 -0.6863 -0.7223 -0.0081
   65SAPC   O12 5287   0.360   6.723   5.976  0.1927 -0.1082 -0.0132
   65SAPC   O11 5288   0.428   6.927   6.088 -0.5856 -0.1231 -0.3265
   65SAPC    C1 5289   0.283   6.937   6.115 -0.2958 -0.2691  0.2116
   65SAPC    HA 5290   0.235   7.018   6.056  0.9934  0.5020  0.1923
   65SAPC    HB 5291   0.222   6.845   6.099  0.0418 -0.7125  1.3686
   65SAPC    C2 5292   0.253   6.953   6.269 -0.4062  0.0479  0.4250
   65SAPC    HS 5293   0.146   6.984   6.270 -0.3975  0.0679  0.6542
   65SAPC   O21 5294   0.346   7.050   6.325  0.1619 -0.3390 -0.2957
   65SAPC   C21 5295   0.306   7.175   6.308 -0.0603  0.1805 -0.8231
   65SAPC   O22 5296   0.210   7.210   6.244  0.0557 -0.0352  0.3216
   65SAPC   C22 5297   0.389   7.261   6.399  0.3720  0.2259 -0.0952
   65SAPC   H2R 5298   0.449   7.196   6.467 -1.9357 -0.9156  0.9615
   65SAPC   H2S 5299   0.459   7.322   6.338  3.4871 -1.0802  1.8926
   65SAPC    C3 5300   0.281   6.816   6.343 -0.1639 -0.3220  0.1517
   65SAPC    HX 5301   0.384   6.774   6.346 -0.5257 -1.3902 -1.5233
   65SAPC    HY 5302   0.234   6.735   6.283  2.4871 -2.3899  0.6923
   65SAPC   O31 5303   0.226   6.834   6.478 -0.4172  0.4178 -0.3982
   65SAPC   C31 5304   0.097   6.793   6.503 -0.0629 -0.5500 -0.1579
   65SAPC   O32 5305   0.024   6.750   6.414  0.3421 -0.0984 -1.1548
   65SAPC   C32 5306   0.053   6.805   6.645 -0.0194  0.1943  0.2164
   65SAPC   H2X 5307   0.130   6.844   6.714  0.8860  1.4108 -1.3932
   65SAPC   H2Y 5308   0.010   6.705   6.666  0.3751  0.2569  1.3487
   65SAPC   C23 5309   0.295   7.331   6.503 -0.0648  0.0564 -0.0087
   65SAPC   H3R 5310   0.231   7.402   6.447 -0.6935 -1.1452 -0.8461
   65SAPC   H3S 5311   0.362   7.384   6.574 -0.4692 -0.9561  1.1717
   65SAPC   C24 5312   0.188   7.242   6.584 -0.5439  0.5014 -0.2507
   65SAPC   H4R 5313   0.114   7.201   6.513  1.9371 -2.6057 -1.3082
   65SAPC   H4S 5314   0.139   7.319   6.647  0.0468 -0.0638  0.9488
   65SAPC   C25 5315   0.256   7.127   6.659  0.3373  0.3610  0.1901
   65SAPC   H5R 5316   0.304   7.051   6.595  1.1505  0.1800  0.9900
   65SAPC   C26 5317   0.291   7.115   6.787  0.6944  0.4052  0.3375
   65SAPC   H6R 5318   0.329   7.021   6.829 -1.4182  1.3194  5.0020
   65SAPC   C27 5319   0.250   7.196   6.905 -0.5779 -0.7427  0.3316
   65SAPC   H7R 5320   0.329   7.171   6.979  1.8385  0.5451 -1.6603
   65SAPC   H7S 5321   0.151   7.154   6.932 -0.4726 -0.5887  0.9771
   65SAPC   C28 5322   0.248   7.351   6.881  0.7190  0.6150 -0.0032
   65SAPC   H8R 5323   0.307   7.382   6.794  0.6426 -1.8650 -1.0498
   65SAPC   C29 5324   0.189   7.440   6.962 -0.2919  0.0336 -1.3927
   65SAPC   H9R 5325   0.182   7.542   6.920 -1.7006  0.5123 -0.1006
   65SAPC  C210 5326   0.111   7.414   7.090  0.2547 -0.3909  0.0506
   65SAPC  H10R 5327   0.177   7.446   7.173 -1.9099  0.6286  1.4743
   65SAPC  H10S 5328   0.101   7.304   7.100  0.3745 -0.4448 -0.4080
   65SAPC  C211 5329  -0.021   7.479   7.090 -0.1769 -0.5994  0.2346
   65SAPC  H11R 5330  -0.064   7.510   6.994  0.5202 -1.5708 -0.3986
   65SAPC  C212 5331  -0.078   7.513   7.201  0.1911 -0.1099  0.2002
   65SAPC  H12R 5332  -0.180   7.551   7.185  0.9997  1.9601 -0.4556
   65SAPC  C213 5333  -0.035   7.495   7.342  0.6754 -0.6420 -0.5669
   65SAPC  H13R 5334   0.053   7.556   7.372 -0.6037  0.2514  1.6747
   65SAPC  H13S 5335  -0.020   7.389   7.372  0.4107 -0.6813 -0.5724
   65SAPC  C214 5336  -0.140   7.557   7.439 -0.1094  0.1448  0.2083
   65SAPC  H14R 5337  -0.218   7.619   7.392  0.3898  1.1293  0.6310
   65SAPC  C215 5338  -0.160   7.520   7.569 -0.2304 -0.1038  0.2793
   65SAPC  H15R 5339  -0.242   7.571   7.623  1.1733  1.9972  0.5618
   65SAPC  C216 5340  -0.078   7.419   7.645 -0.0996  0.5494  0.1219
   65SAPC  H16R 5341  -0.024   7.350   7.577 -0.2628 -2.0638  2.4639
   65SAPC  H16S 5342  -0.142   7.364   7.718 -0.1760  0.2518 -0.1702
   65SAPC  C217 5343   0.021   7.497   7.733  0.1420  0.0167 -0.1330
   65SAPC  H17R 5344   0.059   7.419   7.803 -1.5532 -1.7433 -1.0691
   65SAPC  H17S 5345  -0.040   7.570   7.790  0.5884 -1.1202  1.9154
   65SAPC  C218 5346   0.137   7.563   7.657 -0.5468  0.1886  0.1343
   65SAPC  H18R 5347   0.095   7.652   7.605 -1.9536  0.5590  1.8320
   65SAPC  H18S 5348   0.175   7.501   7.572  0.3562 -1.9112  1.9771
   65SAPC  C219 5349   0.265   7.596   7.735 -0.4072 -0.2092  0.3854
   65SAPC  H19R 5350   0.314   7.504   7.776  0.5405  0.6617  1.2657
   65SAPC  H19S 5351   0.243   7.658   7.825  3.0398  0.9551  0.5803
   65SAPC  C220 5352   0.375   7.668   7.649 -0.0170  0.7107 -0.0710
   65SAPC  H20R 5353   0.389   7.612   7.554  1.1332 -0.5507  0.7940
   65SAPC  H20S 5354   0.474   7.667   7.701 -0.6616  0.9125  1.1961
   65SAPC  H20T 5355   0.338   7.770   7.627  0.5399  1.1138  0.8126
   65SAPC   C33 5356  -0.072   6.895   6.663  0.1278 -0.3297  0.1394
   65SAPC   H3X 5357  -0.158   6.847   6.611  0.4811  0.2418 -0.9792
   65SAPC   H3Y 5358  -0.064   6.998   6.623 -0.4163 -0.0638  0.6787
   65SAPC   C34 5359  -0.112   6.924   6.809  0.2065  0.1065 -0.3220
   65SAPC   H4X 5360  -0.026   6.978   6.854 -0.5697  0.6579  0.5417
   65SAPC   H4Y 5361  -0.118   6.834   6.875  0.9997 -2.7627 -3.8663
   65SAPC   C35 5362  -0.236   7.012   6.835  0.1494 -0.1750  0.3716
   65SAPC   H5X 5363  -0.326   6.948   6.840  0.1310 -0.1033  1.0542
   65SAPC   H5Y 5364  -0.239   7.070   6.739 -0.1643  0.0981  0.5445
   65SAPC   C36 5365  -0.222   7.091   6.966 -0.8480 -0.2471 -0.4346
   65SAPC   H6X 5366  -0.304   7.166   6.975 -0.2396  0.2453  1.4602
   65SAPC   H6Y 5367  -0.125   7.143   6.957 -1.2995  0.6638 -0.1926
   65SAPC   C37 5368  -0.192   7.006   7.094  0.3159  0.0539  0.0441
   65SAPC   H7X 5369  -0.097   6.950   7.078 -1.0130 -2.4221  0.4028
   65SAPC   H7Y 5370  -0.277   6.936   7.101 -1.4496  1.7965 -2.3421
   65SAPC   C38 5371  -0.152   7.093   7.218  0.2135 -0.4735  0.4490
   65SAPC   H8X 5372  -0.076   7.168   7.186  1.1628 -2.2336 -1.7016
   65SAPC   H8Y 5373  -0.105   7.019   7.286 -0.9283 -0.2374  1.5289
   65SAPC   C39 5374  -0.262   7.163   7.298  0.4110  0.2837 -0.3034
   65SAPC   H9X 5375  -0.342   7.183   7.224  0.0588 -2.0875 -0.6524
   65SAPC   H9Y 5376  -0.231   7.257   7.347  0.2076  0.2853 -0.1812
   65SAPC  C310 5377  -0.332   7.068   7.398 -0.3902  0.6766 -0.0077
   65SAPC  H10X 5378  -0.256   7.015   7.459 -1.7487  0.6110  1.6800
   65SAPC  H10Y 5379  -0.374   6.980   7.345  3.4271 -0.7772 -0.9493
   65SAPC  C311 5380  -0.435   7.136   7.489 -0.4483  0.3022 -0.5197
   65SAPC  H11X 5381  -0.521   7.176   7.430 -0.6702  1.8021  0.7547
   65SAPC  H11Y 5382  -0.387   7.210   7.557 -0.2673 -0.6449  0.4095
   65SAPC  C312 5383  -0.487   7.032   7.579 -0.5617  0.2650 -0.4794
   65SAPC  H12X 5384  -0.508   6.939   7.522 -1.7975  0.9944 -1.2578
   65SAPC  H12Y 5385  -0.584   7.067   7.621 -0.5757  0.9483 -1.0741
   65SAPC  C313 5386  -0.391   6.981   7.695 -0.5103  1.3691 -0.1114
   65SAPC  H13X 5387  -0.297   6.937   7.658 -0.8719  0.7658 -0.3285
   65SAPC  H13Y 5388  -0.437   6.901   7.756 -1.1532  1.8117 -0.0015
   65SAPC  C314 5389  -0.329   7.091   7.797  0.4330 -1.2928 -0.7386
   65SAPC  H14X 5390  -0.263   7.159   7.740  0.3982  0.0792  0.8142
   65SAPC  H14Y 5391  -0.262   7.040   7.869 -0.2825 -1.5433 -0.2401
   65SAPC  C315 5392  -0.428   7.187   7.865  0.6259 -0.5474  0.6024
   65SAPC  H15X 5393  -0.475   7.250   7.785  2.2104 -0.5492 -0.3627
   65SAPC  H15Y 5394  -0.357   7.250   7.922  1.6294  0.3329 -1.4911
   65SAPC  C316 5395  -0.525   7.128   7.964 -0.4484  0.1855  0.1909
   65SAPC  H16X 5396  -0.456   7.065   8.025  2.8054  1.7019 -1.6615
   65SAPC  H16Y 5397  -0.601   7.060   7.921  0.3364  1.6448 -3.9934
   65SAPC  C317 5398  -0.582   7.240   8.051 -0.1314  0.2874 -0.5047
   65SAPC  H17X 5399  -0.693   7.237   8.059 -0.1055 -0.4235 -0.3519
   65SAPC  H17Y 5400  -0.543   7.330   7.999  0.9897 -0.1230 -0.4032
   65SAPC  C318 5401  -0.520   7.224   8.190  0.3467  0.0504 -0.0985
   65SAPC  H18X 5402  -0.574   7.140   8.240  0.1206  0.4950  0.4154
   65SAPC  H18Y 5403  -0.540   7.313   8.254  0.6851 -0.3300  0.5549
   65SAPC  H18Z 5404  -0.411   7.201   8.183  0.4856  1.2682 -3.6583
   66SAPC     N 5405   4.962   0.856   6.281  0.8010  0.1645 -0.1620
   66SAPC   C12 5406   4.904   0.786   6.405 -0.4875  0.4332 -0.4495
   66SAPC  H12A 5407   4.946   0.837   6.491  0.1442 -0.7610 -0.0235
   66SAPC  H12B 5408   4.934   0.683   6.416  1.9033  0.8632 -2.1873
   66SAPC   C13 5409   5.108   0.871   6.294 -0.4842 -0.4786 -0.3457
   66SAPC  H13A 5410   5.150   0.934   6.217  1.5701 -1.2899  0.0357
   66SAPC  H13B 5411   5.138   0.919   6.386  3.3412  1.1957 -2.2194
   66SAPC  H13C 5412   5.164   0.779   6.282 -0.3980 -1.0319  3.3159
   66SAPC   C14 5413   4.943   0.769   6.156  0.2735 -0.1484  0.0322
   66SAPC  H14A 5414   4.994   0.675   6.172  0.8929  0.4506  1.9468
   66SAPC  H14B 5415   4.837   0.763   6.137 -0.1728  1.1879  1.8065
   66SAPC  H14C 5416   4.988   0.823   6.074  1.2737 -0.2906  0.4651
   66SAPC   C15 5417   4.898   0.985   6.247 -0.2828  0.1455 -0.2603
   66SAPC  H15A 5418   4.926   1.066   6.312  1.3353 -2.3773  2.4364
   66SAPC  H15B 5419   4.926   1.007   6.145  1.6578  2.1480  0.6275
   66SAPC  H15C 5420   4.791   0.975   6.252 -0.0314 -3.1917  0.9853
   66SAPC   C11 5421   4.753   0.781   6.435 -0.0320 -0.6903 -0.1064
   66SAPC  H11A 5422   4.715   0.883   6.457 -0.7028 -1.1752  1.0857
   66SAPC  H11B 5423   4.746   0.719   6.527  0.8156 -0.5222  0.0826
   66SAPC     P 5424   4.519   0.752   6.322  0.1278  0.0059  0.0354
   66SAPC   O13 5425   4.501   0.898   6.305  0.0440  0.4418 -0.0241
   66SAPC   O14 5426   4.469   0.663   6.214  0.3364 -0.1644 -0.2780
   66SAPC   O12 5427   4.679   0.723   6.330 -0.6173 -0.4814  0.5748
   66SAPC   O11 5428   4.460   0.711   6.467 -0.4308  0.1678 -0.3182
   66SAPC    C1 5429   4.485   0.575   6.524  0.2471  0.1450  0.0943
   66SAPC    HA 5430   4.436   0.502   6.455 -1.0851  2.9883 -2.2077
   66SAPC    HB 5431   4.593   0.558   6.538  0.4939  1.7300  0.2494
   66SAPC    C2 5432   4.428   0.549   6.665  0.4077 -0.3765  0.4654
   66SAPC    HS 5433   4.400   0.443   6.679  0.2067 -0.3982 -0.0661
   66SAPC   O21 5434   4.315   0.634   6.690  0.4059  0.3999 -0.3201
   66SAPC   C21 5435   4.208   0.603   6.626 -0.0059 -0.0223  0.4750
   66SAPC   O22 5436   4.186   0.498   6.566  0.7238 -0.1890 -0.7134
   66SAPC   C22 5437   4.124   0.734   6.644 -0.2154 -0.0826  0.3300
   66SAPC   H2R 5438   4.161   0.806   6.720 -0.1439 -0.8230  1.0052
   66SAPC   H2S 5439   4.158   0.779   6.548  0.2581 -1.6293 -0.2484
   66SAPC    C3 5440   4.538   0.588   6.770 -0.1239 -0.4288 -0.0601
   66SAPC    HX 5441   4.551   0.698   6.761  0.2477 -0.2128  2.5614
   66SAPC    HY 5442   4.633   0.535   6.746  0.4744 -0.1932  1.6879
   66SAPC   O31 5443   4.492   0.559   6.904 -0.0192  0.0787 -0.1522
   66SAPC   C31 5444   4.592   0.561   6.991  0.2758 -0.6555  0.2022
   66SAPC   O32 5445   4.710   0.586   6.959 -0.2552  0.1769  0.2578
   66SAPC   C32 5446   4.543   0.526   7.135 -0.3665  0.2408 -0.0073
   66SAPC   H2X 5447   4.491   0.427   7.134 -0.1078  0.0530  1.6503
   66SAPC   H2Y 5448   4.471   0.606   7.162  0.1686  0.5675  0.4725
   66SAPC   C23 5449   3.971   0.742   6.629 -0.6835  0.1373 -0.2350
   66SAPC   H3R 5450   3.937   0.675   6.547  0.3296 -1.5787  0.6707
   66SAPC   H3S 5451   3.935   0.844   6.606  1.8354  0.9668 -0.7488
   66SAPC   C24 5452   3.913   0.697   6.769  0.0274  0.4667  0.2516
   66SAPC   H4R 5453   3.935   0.770   6.849 -0.1637  1.5376 -0.6415
   66SAPC   H4S 5454   3.966   0.603   6.795 -0.4464 -0.6514 -2.4834
   66SAPC   C25 5455   3.768   0.674   6.757  0.7928  0.1984  0.0379
   66SAPC   H5R 5456   3.732   0.671   6.653  0.8064  1.0654  0.0015
   66SAPC   C26 5457   3.682   0.661   6.860  0.7268 -0.2022 -0.0811
   66SAPC   H6R 5458   3.575   0.652   6.838  1.1518 -1.8885 -1.7886
   66SAPC   C27 5459   3.714   0.658   7.009 -0.1139 -0.4720 -0.8368
   66SAPC   H7R 5460   3.811   0.706   7.035  0.1661 -1.1006 -0.7177
   66SAPC   H7S 5461   3.727   0.554   7.046  0.6709 -0.0936  0.0090
   66SAPC   C28 5462   3.605   0.719   7.093  0.0045 -0.1911 -0.0106
   66SAPC   H8R 5463   3.561   0.808   7.045  0.4646 -0.4202 -0.8739
   66SAPC   C29 5464   3.555   0.679   7.209  0.3826  0.0085 -0.9609
   66SAPC   H9R 5465   3.473   0.739   7.251 -0.5699 -0.4188 -2.1569
   66SAPC  C210 5466   3.613   0.568   7.289 -0.1354 -0.1839  0.3028
   66SAPC  H10R 5467   3.710   0.609   7.322 -0.4154 -0.2376  1.2294
   66SAPC  H10S 5468   3.640   0.487   7.218  0.2441  0.8367 -0.7292
   66SAPC  C211 5469   3.527   0.520   7.406 -0.2513  0.3240  0.1331
   66SAPC  H11R 5470   3.466   0.434   7.376  1.2200 -0.0079 -2.1342
   66SAPC  C212 5471   3.536   0.564   7.537  0.2580 -0.2125 -0.0586
   66SAPC  H12R 5472   3.476   0.517   7.617 -2.6609  1.2539 -1.2801
   66SAPC  C213 5473   3.627   0.675   7.589  0.4971 -0.3242 -0.2668
   66SAPC  H13R 5474   3.562   0.749   7.638  0.5540 -0.7572  0.4702
   66SAPC  H13S 5475   3.671   0.739   7.509  0.4757  1.6812  1.2568
   66SAPC  C214 5476   3.734   0.616   7.683  0.2624  0.2484  0.3470
   66SAPC  H14R 5477   3.706   0.588   7.786 -2.5920 -1.4631 -0.7827
   66SAPC  C215 5478   3.863   0.594   7.655 -0.4542 -0.3324 -0.0149
   66SAPC  H15R 5479   3.926   0.549   7.734  1.9777  0.1824 -1.5554
   66SAPC  C216 5480   3.944   0.612   7.526  0.2672 -0.4279 -0.0851
   66SAPC  H16R 5481   4.022   0.690   7.537  0.0418  0.0355 -1.4904
   66SAPC  H16S 5482   3.874   0.648   7.447 -0.9903 -0.7508  0.8619
   66SAPC  C217 5483   4.022   0.484   7.477 -0.2046 -0.0578 -0.1533
   66SAPC  H17R 5484   3.950   0.401   7.459  0.0589 -0.2763 -0.2015
   66SAPC  H17S 5485   4.088   0.448   7.559  0.3517  2.3222  0.5363
   66SAPC  C218 5486   4.093   0.480   7.337 -0.3408 -0.0579 -0.4143
   66SAPC  H18R 5487   4.089   0.370   7.324 -2.4198 -0.0059 -0.5839
   66SAPC  H18S 5488   4.195   0.520   7.350  0.6229 -2.1623 -1.0973
   66SAPC  C219 5489   4.024   0.554   7.218 -0.7716  1.1632 -0.4784
   66SAPC  H19R 5490   4.003   0.659   7.244  0.3784  0.9504  1.5008
   66SAPC  H19S 5491   3.923   0.509   7.211 -1.5161  2.6491  0.4391
   66SAPC  C220 5492   4.101   0.538   7.083  0.1510  0.2175 -0.2676
   66SAPC  H20R 5493   4.090   0.438   7.037 -2.1228  0.1858  0.2342
   66SAPC  H20S 5494   4.210   0.559   7.090 -0.1674  2.2954 -0.8647
   66SAPC  H20T 5495   4.081   0.619   7.010  2.0224  0.1557 -0.9028
   66SAPC   C33 5496   4.639   0.517   7.256 -0.2830 -0.6646  0.0268
   66SAPC   H3X 5497   4.684   0.619   7.259  2.3505 -1.7733  1.2389
   66SAPC   H3Y 5498   4.712   0.436   7.241  0.3603  0.0137 -0.6095
   66SAPC   C34 5499   4.572   0.493   7.387  0.2001 -0.4643  0.2202
   66SAPC   H4X 5500   4.660   0.476   7.453  0.7241  1.5335  0.1015
   66SAPC   H4Y 5501   4.505   0.405   7.385 -0.0418 -0.3664  1.8561
   66SAPC   C35 5502   4.492   0.606   7.445  0.7658 -0.2696 -0.3421
   66SAPC   H5X 5503   4.403   0.621   7.380 -0.4646 -1.2119  1.0741
   66SAPC   H5Y 5504   4.544   0.703   7.433 -1.1216  0.7625 -0.5720
   66SAPC   C36 5505   4.445   0.571   7.586  0.4598 -0.3755 -0.2560
   66SAPC   H6X 5506   4.526   0.546   7.656 -0.4124 -0.0966  0.8812
   66SAPC   H6Y 5507   4.368   0.491   7.574  2.1888 -2.1031 -0.2168
   66SAPC   C37 5508   4.371   0.679   7.660  0.1343  0.2742 -0.0202
   66SAPC   H7X 5509   4.278   0.709   7.607  0.3068 -0.1819 -0.5951
   66SAPC   H7Y 5510   4.440   0.766   7.670  0.8338 -0.3033  0.3160
   66SAPC   C38 5511   4.328   0.632   7.804  0.4458  0.1557  0.3650
   66SAPC   H8X 5512   4.425   0.621   7.858  0.2781  0.4434  0.7272
   66SAPC   H8Y 5513   4.272   0.536   7.794 -0.3640  0.6636 -0.1447
   66SAPC   C39 5514   4.230   0.737   7.866 -0.2307 -1.3206  1.1284
   66SAPC   H9X 5515   4.146   0.762   7.798  1.9522 -2.7626 -2.3141
   66SAPC   H9Y 5516   4.289   0.828   7.888  0.2670 -1.1409 -0.8137
   66SAPC  C310 5517   4.165   0.710   8.003  0.1823  0.0038 -0.4569
   66SAPC  H10X 5518   4.108   0.615   7.993 -0.9461  0.7329 -1.2697
   66SAPC  H10Y 5519   4.085   0.782   8.033  1.5323  0.6007  1.9455
   66SAPC  C311 5520   4.267   0.688   8.118 -0.4916 -0.6197  0.2165
   66SAPC  H11X 5521   4.340   0.771   8.121  0.0608 -1.0362 -0.9794
   66SAPC  H11Y 5522   4.329   0.600   8.093 -0.6760 -0.3862 -1.1568
   66SAPC  C312 5523   4.192   0.673   8.252  0.1907 -0.0248 -0.9437
   66SAPC  H12X 5524   4.125   0.585   8.241 -0.8539  0.6396 -0.0642
   66SAPC  H12Y 5525   4.122   0.759   8.265  1.0974  0.6826 -0.6349
   66SAPC  C313 5526   4.287   0.674   8.376 -0.5349  0.1350  0.8160
   66SAPC  H13X 5527   4.371   0.745   8.363  0.3954 -1.1029 -0.2033
   66SAPC  H13Y 5528   4.331   0.572   8.380  0.9881  0.7568  0.5771
   66SAPC  C314 5529   4.215   0.697   8.515  0.3663  0.3149 -0.1720
   66SAPC  H14X 5530   4.147   0.611   8.537  1.7131 -1.1918 -1.6153
   66SAPC  H14Y 5531   4.138   0.777   8.507  1.9388  1.6981 -2.5763
   66SAPC  C315 5532   4.292   0.715   8.645 -0.3593 -0.5839 -0.5306
   66SAPC  H15X 5533   4.332   0.819   8.638 -0.8167 -0.4695 -1.7971
   66SAPC  H15Y 5534   4.373   0.641   8.661  0.5825 -0.0395 -2.4189
   66SAPC  C316 5535   4.194   0.710   8.773 -0.3557  0.2412  0.2217
   66SAPC  H16X 5536   4.145   0.611   8.765 -1.0857  0.5881  0.2994
   66SAPC  H16Y 5537   4.115   0.788   8.776 -0.5325  0.0304  2.5204
   66SAPC  C317 5538   4.260   0.719   8.914  1.3052  0.0380  0.2328
   66SAPC  H17X 5539   4.296   0.822   8.932  0.4012  0.4072  0.0207
   66SAPC  H17Y 5540   4.356   0.663   8.907  1.2301 -0.1842  0.9843
   66SAPC  C318 5541   4.174   0.659   9.021  0.2181  0.3817 -0.5256
   66SAPC  H18X 5542   4.086   0.727   9.026  0.0232  0.0697  0.4929
   66SAPC  H18Y 5543   4.234   0.661   9.114 -0.2778  1.8574 -0.2121
   66SAPC  H18Z 5544   4.142   0.556   8.995 -0.1830  0.9314 -2.3234
   67SAPC     N 5545   4.746   2.488   6.067 -0.4771  0.5702  0.1075
   67SAPC   C12 5546   4.797   2.616   6.129 -0.7783  0.1418  0.0939
   67SAPC  H12A 5547   4.751   2.696   6.073 -0.2500  0.4497  0.0874
   67SAPC  H12B 5548   4.903   2.633   6.115 -0.9769  1.8596  0.4597
   67SAPC   C13 5549   4.596   2.479   6.068  0.5618  0.9072  0.3264
   67SAPC  H13A 5550   4.559   2.550   5.996 -3.1627  0.1885  1.3080
   67SAPC  H13B 5551   4.560   2.382   6.039  2.8860 -0.6962  2.3551
   67SAPC  H13C 5552   4.551   2.507   6.163  0.0803  1.8784 -0.1740
   67SAPC   C14 5553   4.794   2.463   5.928  0.4467 -0.7360 -0.3535
   67SAPC  H14A 5554   4.902   2.459   5.933  0.5033  1.2377  1.0829
   67SAPC  H14B 5555   4.754   2.365   5.904 -1.6819 -0.6231  2.2799
   67SAPC  H14C 5556   4.764   2.534   5.853 -0.4746 -1.6018 -0.8341
   67SAPC   C15 5557   4.798   2.372   6.148 -0.0468 -0.1659 -0.3235
   67SAPC  H15A 5558   4.785   2.403   6.251  1.2146  0.5849 -0.3794
   67SAPC  H15B 5559   4.746   2.279   6.128  0.6691 -0.3640 -1.3669
   67SAPC  H15C 5560   4.904   2.353   6.146  0.1345  0.7509  0.3121
   67SAPC   C11 5561   4.774   2.641   6.281 -0.9188 -0.1969  0.1142
   67SAPC  H11A 5562   4.665   2.628   6.297 -0.9890 -1.0056 -0.9204
   67SAPC  H11B 5563   4.799   2.747   6.301 -0.5279 -0.0990 -0.8653
   67SAPC     P 5564   4.998   2.578   6.388  0.5044 -0.1401 -0.3726
   67SAPC   O13 5565   5.058   2.450   6.439 -0.1945 -0.1494 -0.1871
   67SAPC   O14 5566   5.058   2.647   6.274  0.8872 -0.1751 -0.0696
   67SAPC   O12 5567   4.839   2.555   6.369  0.2224 -0.6009 -0.3607
   67SAPC   O11 5568   4.999   2.684   6.507  0.1432 -0.0870 -0.0829
   67SAPC    C1 5569   4.955   2.667   6.637  0.6914  1.1670  0.1549
   67SAPC    HA 5570   4.853   2.622   6.636  0.6556  1.2116  1.1850
   67SAPC    HB 5571   5.028   2.602   6.690 -0.6203 -0.3311  0.1727
   67SAPC    C2 5572   4.931   2.793   6.715  0.1579 -0.2908  0.1953
   67SAPC    HS 5573   5.027   2.850   6.713 -0.5443  0.9924  1.2241
   67SAPC   O21 5574   4.908   2.755   6.851 -0.0039  0.1039 -0.6580
   67SAPC   C21 5575   5.002   2.709   6.930 -0.4141  0.2838  0.4276
   67SAPC   O22 5576   5.124   2.707   6.903 -0.0074 -0.0554 -0.3622
   67SAPC   C22 5577   4.944   2.675   7.069  0.3197 -0.3080  0.7557
   67SAPC   H2R 5578   4.837   2.655   7.047  0.8259 -2.3467 -0.0586
   67SAPC   H2S 5579   4.999   2.586   7.107 -0.2518 -1.4436 -0.9389
   67SAPC    C3 5580   4.814   2.875   6.658 -0.0423 -0.6334  0.4490
   67SAPC    HX 5581   4.715   2.825   6.668  0.0909 -0.7173  1.5857
   67SAPC    HY 5582   4.823   2.880   6.548 -1.1093 -0.4436  0.3628
   67SAPC   O31 5583   4.797   3.003   6.725 -0.7422  0.3953 -0.3369
   67SAPC   C31 5584   4.879   3.100   6.687 -0.3924  0.6935  0.4068
   67SAPC   O32 5585   4.930   3.109   6.577 -0.0750  0.0671  0.0560
   67SAPC   C32 5586   4.877   3.208   6.787 -0.3134 -1.0947  0.1627
   67SAPC   H2X 5587   4.862   3.164   6.888  2.2442 -0.7914  0.7641
   67SAPC   H2Y 5588   4.801   3.284   6.760  0.4363 -0.4226 -0.0935
   67SAPC   C23 5589   4.948   2.784   7.173  0.0902 -0.1895  0.3994
   67SAPC   H3R 5590   4.880   2.757   7.257  0.1349  2.0632  1.2400
   67SAPC   H3S 5591   4.898   2.869   7.121  1.0425  0.2171  0.1238
   67SAPC   C24 5592   5.095   2.800   7.229  0.1893  0.2101  0.7782
   67SAPC   H4R 5593   5.084   2.884   7.301 -1.7406  0.9277 -0.2715
   67SAPC   H4S 5594   5.159   2.835   7.146  2.3079 -2.1800  1.2850
   67SAPC   C25 5595   5.155   2.689   7.304 -0.6380 -0.2532 -0.0175
   67SAPC   H5R 5596   5.164   2.597   7.243  2.3889  0.7876 -1.3637
   67SAPC   C26 5597   5.201   2.702   7.429  0.1087 -0.5639 -0.7277
   67SAPC   H6R 5598   5.241   2.610   7.474 -0.5273 -0.3497  0.2956
   67SAPC   C27 5599   5.197   2.831   7.509 -0.6485  0.9219  0.2136
   67SAPC   H7R 5600   5.091   2.862   7.527 -0.4048  2.0269 -0.2057
   67SAPC   H7S 5601   5.241   2.916   7.454 -3.4450  1.0696 -2.0404
   67SAPC   C28 5602   5.271   2.826   7.641  0.1104  0.5304 -0.2923
   67SAPC   H8R 5603   5.380   2.837   7.631  0.2377  1.5404  1.7013
   67SAPC   C29 5604   5.216   2.805   7.758  0.7359  0.5209 -0.0147
   67SAPC   H9R 5605   5.290   2.812   7.839  0.1996 -0.5130  0.5925
   67SAPC  C210 5606   5.075   2.775   7.798  0.3895  0.1212 -0.8383
   67SAPC  H10R 5607   5.079   2.727   7.898  0.8927 -0.0666 -0.9436
   67SAPC  H10S 5608   5.034   2.713   7.715  0.2461  0.7314 -1.2300
   67SAPC  C211 5609   4.993   2.904   7.796 -0.6737  0.2537  0.0098
   67SAPC  H11R 5610   5.035   2.990   7.743  0.0641 -0.0189  0.1309
   67SAPC  C212 5611   4.877   2.919   7.851  0.2586 -0.1241 -0.1194
   67SAPC  H12R 5612   4.828   3.017   7.851  2.5064  1.0516 -0.8068
   67SAPC  C213 5613   4.798   2.812   7.921  0.3428  0.3763  0.6195
   67SAPC  H13R 5614   4.823   2.821   8.029  1.2468 -1.7091  0.6415
   67SAPC  H13S 5615   4.844   2.713   7.899  0.1558  0.6326 -1.0647
   67SAPC  C214 5616   4.649   2.806   7.904  0.6811 -0.5741  0.1047
   67SAPC  H14R 5617   4.613   2.721   7.844  1.6530 -0.6208 -0.4371
   67SAPC  C215 5618   4.573   2.898   7.965  0.1001 -0.9677 -0.2172
   67SAPC  H15R 5619   4.464   2.886   7.970 -0.4749  3.2966  1.7413
   67SAPC  C216 5620   4.619   3.015   8.046  0.1128  0.3771  0.2740
   67SAPC  H16R 5621   4.591   3.108   7.991 -1.0955 -0.2951 -0.2967
   67SAPC  H16S 5622   4.730   3.021   8.046  0.1505  0.0027 -0.8719
   67SAPC  C217 5623   4.562   3.035   8.192 -0.3019 -0.0410 -0.0073
   67SAPC  H17R 5624   4.582   2.948   8.258  0.6949 -1.2233 -1.7843
   67SAPC  H17S 5625   4.451   3.030   8.188 -0.3471  1.2997 -1.4109
   67SAPC  C218 5626   4.597   3.181   8.242  0.0999  0.2143 -0.1494
   67SAPC  H18R 5627   4.524   3.226   8.312  0.8026 -1.1151  1.5361
   67SAPC  H18S 5628   4.610   3.251   8.157 -1.2172  0.0644 -0.4960
   67SAPC  C219 5629   4.729   3.179   8.329  0.3327  0.0346  0.4881
   67SAPC  H19R 5630   4.710   3.088   8.389 -1.8220 -0.2082 -0.4323
   67SAPC  H19S 5631   4.726   3.263   8.402 -0.1543  0.1431  0.3533
   67SAPC  C220 5632   4.857   3.168   8.260  0.2895 -0.4784  1.0951
   67SAPC  H20R 5633   4.873   3.251   8.188  1.2503  0.4075  2.2919
   67SAPC  H20S 5634   4.870   3.066   8.219  0.6094 -0.6026  1.4966
   67SAPC  H20T 5635   4.938   3.184   8.335  2.1249 -0.9652 -0.6935
   67SAPC   C33 5636   5.020   3.278   6.799  0.9603 -0.7446 -0.2273
   67SAPC   H3X 5637   5.019   3.364   6.869  0.2995 -0.2454 -0.8402
   67SAPC   H3Y 5638   5.050   3.312   6.698 -0.0234  0.6122 -0.0859
   67SAPC   C34 5639   5.131   3.184   6.834  0.0876 -0.8867  0.6369
   67SAPC   H4X 5640   5.221   3.249   6.832 -0.6351  0.1272 -0.8511
   67SAPC   H4Y 5641   5.151   3.097   6.768  0.6751 -0.4467  0.2187
   67SAPC   C35 5642   5.122   3.119   6.973  0.2857 -0.1124 -0.1304
   67SAPC   H5X 5643   5.191   3.033   6.982 -1.7283 -1.8049 -0.2259
   67SAPC   H5Y 5644   5.024   3.066   6.980 -0.2471  0.8465 -0.1341
   67SAPC   C36 5645   5.155   3.212   7.088  0.2389 -0.3025  0.0667
   67SAPC   H6X 5646   5.091   3.301   7.071 -0.3055  0.0248  3.1236
   67SAPC   H6Y 5647   5.256   3.257   7.087  0.3217 -0.4583  0.8044
   67SAPC   C37 5648   5.107   3.163   7.226 -0.2016 -0.2379 -0.6767
   67SAPC   H7X 5649   5.180   3.101   7.282 -0.2222  0.6122  0.3422
   67SAPC   H7Y 5650   5.016   3.099   7.232 -0.3358 -0.0527 -0.7268
   67SAPC   C38 5651   5.085   3.281   7.326  0.7215  0.4413  1.0604
   67SAPC   H8X 5652   5.022   3.352   7.269 -0.8854 -1.0492  0.9108
   67SAPC   H8Y 5653   5.185   3.325   7.347  0.9617  0.4281 -0.0150
   67SAPC   C39 5654   5.005   3.249   7.457  0.0457  0.3807  0.3067
   67SAPC   H9X 5655   5.046   3.168   7.521  0.0969  0.2577  0.1189
   67SAPC   H9Y 5656   4.906   3.212   7.426  0.8865 -1.7667  0.0441
   67SAPC  C310 5657   4.973   3.376   7.536  0.2498 -0.1495  0.7162
   67SAPC  H10X 5658   4.893   3.435   7.486  1.3466 -0.1730 -1.1624
   67SAPC  H10Y 5659   5.053   3.453   7.529  0.0808  0.0370  0.8218
   67SAPC  C311 5660   4.938   3.351   7.681  0.0886 -0.1739  0.1943
   67SAPC  H11X 5661   5.026   3.302   7.726 -1.2662 -2.0557  0.9218
   67SAPC  H11Y 5662   4.859   3.276   7.703  0.2464 -0.2003  0.6764
   67SAPC  C312 5663   4.899   3.475   7.759 -0.3481 -0.6471  0.1883
   67SAPC  H12X 5664   4.794   3.506   7.740 -0.1393 -0.6284 -0.9963
   67SAPC  H12Y 5665   4.965   3.559   7.729  0.6943 -1.7628 -0.7934
   67SAPC  C313 5666   4.909   3.462   7.909  0.2948  0.7692 -0.8407
   67SAPC  H13X 5667   4.850   3.371   7.933  0.2661  0.6238 -1.4400
   67SAPC  H13Y 5668   4.874   3.558   7.952 -0.2637  0.0617  0.3344
   67SAPC  C314 5669   5.054   3.458   7.952 -0.0832  0.2656  0.4696
   67SAPC  H14X 5670   5.105   3.543   7.901 -1.8392  0.9625 -0.2153
   67SAPC  H14Y 5671   5.104   3.360   7.939  0.7664  0.6513  0.7753
   67SAPC  C315 5672   5.072   3.490   8.095 -0.1054 -0.6070 -0.4137
   67SAPC  H15X 5673   5.029   3.411   8.161  1.3614 -0.9052  0.2207
   67SAPC  H15Y 5674   5.037   3.586   8.137 -0.5325  0.0112 -2.1029
   67SAPC  C316 5675   5.221   3.507   8.129  0.2355  0.6322  0.0610
   67SAPC  H16X 5676   5.251   3.591   8.063 -1.7166  1.2319 -0.1344
   67SAPC  H16Y 5677   5.279   3.419   8.095 -1.6767 -0.5470 -0.2988
   67SAPC  C317 5678   5.241   3.536   8.276 -0.2977  0.1694 -0.4968
   67SAPC  H17X 5679   5.207   3.451   8.338 -1.8263  0.2302 -1.2233
   67SAPC  H17Y 5680   5.175   3.622   8.299 -0.0225 -0.1250  1.5919
   67SAPC  C318 5681   5.381   3.562   8.319  0.7467  0.6841 -0.5163
   67SAPC  H18X 5682   5.446   3.472   8.318 -0.1882 -0.0075 -0.7457
   67SAPC  H18Y 5683   5.400   3.587   8.425  3.4274 -1.0172 -0.5155
   67SAPC  H18Z 5684   5.421   3.645   8.258  1.4322  0.6240 -0.1496
   68SAPC     N 5685   5.744   6.373   6.309 -0.2952 -0.1814 -0.5080
   68SAPC   C12 5686   5.881   6.399   6.264  0.3258  0.3165  0.7486
   68SAPC  H12A 5687   5.934   6.309   6.291 -0.0237 -0.6772 -1.6814
   68SAPC  H12B 5688   5.921   6.481   6.323 -0.3928  0.5023  0.9904
   68SAPC   C13 5689   5.655   6.492   6.280 -0.2617 -0.0755 -1.2748
   68SAPC  H13A 5690   5.649   6.501   6.172 -0.0509 -2.1504 -1.5001
   68SAPC  H13B 5691   5.555   6.471   6.312 -0.1816  0.8729 -0.3679
   68SAPC  H13C 5692   5.679   6.587   6.326 -0.0674  0.8313 -3.1584
   68SAPC   C14 5693   5.688   6.257   6.226 -0.0130 -0.3837  0.0334
   68SAPC  H14A 5694   5.759   6.176   6.236  2.8575  2.0680  0.9735
   68SAPC  H14B 5695   5.599   6.229   6.280  1.3042  1.0080  3.1673
   68SAPC  H14C 5696   5.670   6.278   6.121 -1.5988 -0.7343  0.2021
   68SAPC   C15 5697   5.751   6.331   6.451  0.7397 -0.0258 -1.1923
   68SAPC  H15A 5698   5.658   6.293   6.492  1.6003 -1.2414 -0.3149
   68SAPC  H15B 5699   5.826   6.255   6.458 -0.1282 -1.0906 -2.7553
   68SAPC  H15C 5700   5.781   6.416   6.511 -1.7109  0.5778 -0.7037
   68SAPC   C11 5701   5.908   6.422   6.118  0.4228 -0.0484 -0.1169
   68SAPC  H11A 5702   5.833   6.479   6.059  0.5511  1.3204  0.9825
   68SAPC  H11B 5703   5.901   6.322   6.070 -2.9174 -1.6915  3.1999
   68SAPC     P 5704   6.052   6.629   6.143  0.1999  0.0017 -0.1767
   68SAPC   O13 5705   6.191   6.675   6.135 -0.5477  0.1794  0.2978
   68SAPC   O14 5706   5.961   6.699   6.052 -0.0412  0.4378  0.1418
   68SAPC   O12 5707   6.039   6.474   6.113  0.3361  0.2056  0.0721
   68SAPC   O11 5708   6.007   6.649   6.296  0.4284  0.1990 -0.5905
   68SAPC    C1 5709   6.065   6.720   6.396 -0.0347 -1.1806 -0.1230
   68SAPC    HA 5710   6.176   6.709   6.392 -0.1207 -1.6988 -1.2579
   68SAPC    HB 5711   6.049   6.830   6.391 -0.9275 -1.3699 -2.3833
   68SAPC    C2 5712   6.024   6.659   6.530  0.2021  0.3558  0.4271
   68SAPC    HS 5713   6.085   6.718   6.603 -0.0309  1.5752 -0.3263
   68SAPC   O21 5714   6.044   6.512   6.534 -0.3672  0.3288  0.6953
   68SAPC   C21 5715   6.168   6.473   6.540 -0.1806 -0.1305  0.0314
   68SAPC   O22 5716   6.265   6.550   6.542 -0.1010  0.2805 -0.2209
   68SAPC   C22 5717   6.183   6.321   6.516  0.0631 -0.4300  0.2685
   68SAPC   H2R 5718   6.133   6.305   6.418 -2.2583  3.0929  0.7112
   68SAPC   H2S 5719   6.291   6.299   6.502  0.2935 -0.4662  1.8726
   68SAPC    C3 5720   5.877   6.692   6.561  0.0475  0.1797  0.4600
   68SAPC    HX 5721   5.815   6.620   6.504  1.0383 -0.5179  0.2549
   68SAPC    HY 5722   5.863   6.796   6.523 -1.6361  0.6286  2.1378
   68SAPC   O31 5723   5.858   6.686   6.706  0.3353  0.0779  0.2076
   68SAPC   C31 5724   5.808   6.575   6.752 -0.4028 -0.3528 -0.6780
   68SAPC   O32 5725   5.799   6.474   6.691  0.2403 -0.1592  0.1071
   68SAPC   C32 5726   5.752   6.598   6.889  0.1988 -0.0796  0.5865
   68SAPC   H2X 5727   5.704   6.698   6.890 -0.6315 -0.4641  1.3871
   68SAPC   H2Y 5728   5.837   6.582   6.958  0.7018 -1.6790 -0.3577
   68SAPC   C23 5729   6.114   6.246   6.628  0.2902  0.1438  0.4729
   68SAPC   H3R 5730   6.114   6.141   6.592  1.3245  0.1583  0.3774
   68SAPC   H3S 5731   6.012   6.285   6.646 -0.5040 -0.5733 -2.1132
   68SAPC   C24 5732   6.209   6.248   6.757  0.7734 -0.2058  0.1910
   68SAPC   H4R 5733   6.211   6.356   6.783 -3.2237  0.1226 -0.2247
   68SAPC   H4S 5734   6.311   6.218   6.725  0.4372 -0.5823 -0.5547
   68SAPC   C25 5735   6.148   6.179   6.880  0.2881 -0.1198 -0.1264
   68SAPC   H5R 5736   6.188   6.079   6.903  0.5184 -0.1034 -0.4467
   68SAPC   C26 5737   6.065   6.241   6.971  0.0604  0.7762  0.1258
   68SAPC   H6R 5738   6.021   6.189   7.056  0.3283 -0.0283 -0.2208
   68SAPC   C27 5739   6.012   6.375   6.946  0.8140  0.0490 -0.4683
   68SAPC   H7R 5740   5.908   6.379   6.985  0.4504 -0.2375 -1.3690
   68SAPC   H7S 5741   5.999   6.416   6.843  1.8040 -1.5678 -1.2677
   68SAPC   C28 5742   6.082   6.472   7.031  0.2199 -0.6539  0.2254
   68SAPC   H8R 5743   6.144   6.536   6.967 -0.2281 -1.5670 -1.1717
   68SAPC   C29 5744   6.097   6.492   7.166  0.4968  0.1765  0.4992
   68SAPC   H9R 5745   6.162   6.573   7.202  0.1802  0.2033  1.0149
   68SAPC  C210 5746   6.022   6.402   7.267  0.0472 -0.5643  0.4012
   68SAPC  H10R 5747   6.020   6.297   7.232  1.5548 -0.7773  0.8750
   68SAPC  H10S 5748   5.912   6.416   7.268 -0.3909 -3.4282  1.6776
   68SAPC  C211 5749   6.092   6.406   7.397  1.2473  0.3623 -0.3815
   68SAPC  H11R 5750   6.079   6.502   7.449  0.4032  0.5391 -0.8865
   68SAPC  C212 5751   6.151   6.302   7.461 -0.0578 -0.1161 -0.3479
   68SAPC  H12R 5752   6.176   6.322   7.566 -0.7050  0.5955 -0.3206
   68SAPC  C213 5753   6.166   6.160   7.416 -0.3827 -0.1923  0.8492
   68SAPC  H13R 5754   6.244   6.105   7.473 -0.9809  0.3505  2.2324
   68SAPC  H13S 5755   6.213   6.156   7.315  0.2844  2.9639  0.9401
   68SAPC  C214 5756   6.031   6.089   7.404  0.0157  0.2488 -0.5150
   68SAPC  H14R 5757   5.940   6.149   7.419 -0.6784 -1.0637  0.6481
   68SAPC  C215 5758   6.022   5.961   7.362  0.4632  0.1575 -0.1748
   68SAPC  H15R 5759   5.929   5.904   7.376  1.1462 -0.8142  0.5957
   68SAPC  C216 5760   6.144   5.875   7.327 -0.5738 -0.0527  0.0173
   68SAPC  H16R 5761   6.141   5.778   7.381 -2.7234 -0.1790 -0.2495
   68SAPC  H16S 5762   6.243   5.921   7.347 -0.4967 -0.8227  1.5335
   68SAPC  C217 5763   6.138   5.831   7.178  0.3528 -0.2167  0.2285
   68SAPC  H17R 5764   6.237   5.794   7.143  1.4783  2.6735  0.1422
   68SAPC  H17S 5765   6.115   5.920   7.116  1.1699  0.6115  1.0770
   68SAPC  C218 5766   6.022   5.733   7.152 -0.0269  0.2303 -0.9001
   68SAPC  H18R 5767   5.920   5.769   7.178 -0.3468  0.2077 -2.0708
   68SAPC  H18S 5768   6.034   5.645   7.219 -1.3610  2.0603  1.9797
   68SAPC  C219 5769   6.019   5.687   7.008  0.2293  0.2803  0.5186
   68SAPC  H19R 5770   5.992   5.579   7.007 -0.7656  0.4888 -1.9243
   68SAPC  H19S 5771   6.119   5.691   6.961 -0.0665 -0.6921 -0.2416
   68SAPC  C220 5772   5.920   5.758   6.921 -0.0861  0.1755  0.3355
   68SAPC  H20R 5773   5.903   5.703   6.826 -1.1243 -0.7234  1.0168
   68SAPC  H20S 5774   5.953   5.862   6.903 -0.0921  0.5571  2.3397
   68SAPC  H20T 5775   5.816   5.753   6.960 -1.0832 -2.0529 -2.2596
   68SAPC   C33 5776   5.645   6.490   6.905  0.0291 -0.5806 -0.0623
   68SAPC   H3X 5777   5.702   6.395   6.908 -0.3330 -0.9070 -2.0479
   68SAPC   H3Y 5778   5.567   6.491   6.825 -2.0756 -0.6249  1.9004
   68SAPC   C34 5779   5.575   6.503   7.037  0.4104 -0.3425  0.1673
   68SAPC   H4X 5780   5.528   6.407   7.066 -0.7476  0.4024  0.8385
   68SAPC   H4Y 5781   5.501   6.587   7.035  0.3140 -0.3814  1.5512
   68SAPC   C35 5782   5.654   6.536   7.165  0.1580 -0.8079  0.1593
   68SAPC   H5X 5783   5.688   6.641   7.157  1.8256 -1.2637  0.9303
   68SAPC   H5Y 5784   5.743   6.469   7.161  0.3576 -0.5086 -0.8946
   68SAPC   C36 5785   5.575   6.501   7.299  0.3372 -0.5059 -0.1764
   68SAPC   H6X 5786   5.513   6.409   7.292  1.8695 -1.4656 -2.1635
   68SAPC   H6Y 5787   5.504   6.583   7.322 -0.1964 -0.7339 -0.9811
   68SAPC   C37 5788   5.673   6.471   7.412 -0.0752  0.0018  0.1806
   68SAPC   H7X 5789   5.744   6.557   7.418 -0.1376 -0.0005  0.9588
   68SAPC   H7Y 5790   5.732   6.380   7.390 -1.2829 -0.7812  0.1225
   68SAPC   C38 5791   5.595   6.453   7.538  0.3548  0.2312 -0.9655
   68SAPC   H8X 5792   5.517   6.375   7.526  0.6035 -0.1702 -0.0773
   68SAPC   H8Y 5793   5.545   6.548   7.566 -0.2124 -0.5904  0.9094
   68SAPC   C39 5794   5.670   6.432   7.671 -0.9914 -0.2427  0.7365
   68SAPC   H9X 5795   5.736   6.513   7.708  0.6206 -0.6886 -0.9843
   68SAPC   H9Y 5796   5.738   6.348   7.644 -1.8728 -0.5239 -0.7656
   68SAPC  C310 5797   5.573   6.377   7.781 -0.6745 -0.7372 -0.8500
   68SAPC  H10X 5798   5.495   6.309   7.743 -1.0325 -1.4747  1.0794
   68SAPC  H10Y 5799   5.529   6.467   7.829 -0.6279 -1.4284  0.5604
   68SAPC  C311 5800   5.646   6.300   7.891  0.2100 -0.3700  0.0717
   68SAPC  H11X 5801   5.718   6.223   7.857  0.1085 -1.7519  2.6841
   68SAPC  H11Y 5802   5.575   6.237   7.949 -0.4516 -2.0222 -2.4056
   68SAPC  C312 5803   5.713   6.397   7.999 -0.5504  0.5181 -0.2405
   68SAPC  H12X 5804   5.638   6.458   8.054  1.9566  3.3486  0.3001
   68SAPC  H12Y 5805   5.767   6.465   7.930  2.0804 -1.5754 -0.4493
   68SAPC  C313 5806   5.792   6.317   8.100 -0.1791 -0.9681 -0.3950
   68SAPC  H13X 5807   5.881   6.279   8.045 -0.3735 -0.0568 -1.3662
   68SAPC  H13Y 5808   5.735   6.233   8.147 -0.5263 -0.0291  0.9008
   68SAPC  C314 5809   5.862   6.411   8.203  0.1809  0.8330 -0.0094
   68SAPC  H14X 5810   5.784   6.462   8.263 -0.5747 -0.5803  0.2745
   68SAPC  H14Y 5811   5.927   6.484   8.150 -0.2795  0.8809 -0.5180
   68SAPC  C315 5812   5.949   6.327   8.305 -0.2257  0.0455  1.2056
   68SAPC  H15X 5813   6.020   6.266   8.245 -2.0659  0.7531 -1.9321
   68SAPC  H15Y 5814   5.892   6.255   8.368 -0.8107  0.1016  0.7523
   68SAPC  C316 5815   6.024   6.425   8.401  0.8523  0.2072 -0.7694
   68SAPC  H16X 5816   6.073   6.369   8.484  1.2698  0.4484 -0.8524
   68SAPC  H16Y 5817   5.957   6.498   8.451  1.1738 -0.1027  0.1328
   68SAPC  C317 5818   6.138   6.500   8.336 -0.1790 -1.0356 -0.0009
   68SAPC  H17X 5819   6.090   6.567   8.262 -0.1647 -0.0494  0.8631
   68SAPC  H17Y 5820   6.203   6.428   8.282  1.4699 -2.3157  3.3711
   68SAPC  C318 5821   6.215   6.591   8.430  0.3113 -0.4254  0.2174
   68SAPC  H18X 5822   6.277   6.663   8.372 -0.7520 -0.4495 -0.9980
   68SAPC  H18Y 5823   6.274   6.528   8.500  2.5447  1.8710  0.5673
   68SAPC  H18Z 5824   6.138   6.647   8.486 -1.7397 -2.5712 -0.2839
   69SLPC     N 5825   5.974   3.983  11.123 -0.1811  0.3130 -0.3390
   69SLPC   C13 5826   5.865   4.065  11.168  0.4616 -0.4824 -0.0088
   69SLPC  H13A 5827   5.789   3.999  11.208 -1.8126  0.3899 -2.5760
   69SLPC  H13B 5828   5.905   4.135  11.240 -2.7359  0.4692  1.0283
   69SLPC  H13C 5829   5.826   4.124  11.087 -0.6699 -0.0210  0.8439
   69SLPC   C14 5830   6.024   3.890  11.229 -0.3467  0.8304  0.3364
   69SLPC  H14A 5831   6.055   3.936  11.321  1.7979 -1.1197  0.6767
   69SLPC  H14B 5832   5.952   3.814  11.256 -0.0661  1.1426  2.0229
   69SLPC  H14C 5833   6.116   3.845  11.194 -0.5709  0.9295 -0.4112
   69SLPC   C15 5834   6.098   4.065  11.086  0.3849 -0.2133 -0.3456
   69SLPC  H15A 5835   6.097   4.101  10.984 -0.6372 -0.3386 -0.3947
   69SLPC  H15B 5836   6.113   4.156  11.141  1.5138  0.6989 -2.0763
   69SLPC  H15C 5837   6.191   4.011  11.098  1.2909  1.7091  1.9380
   69SLPC   C12 5838   5.926   3.899  11.003  0.3404  0.1470 -0.4317
   69SLPC  H12A 5839   6.011   3.879  10.940  0.4027 -0.5841 -0.1186
   69SLPC  H12B 5840   5.863   3.969  10.949 -2.7088 -0.6363  1.8247
   69SLPC   C11 5841   5.830   3.780  11.048 -0.5167 -0.9821  0.2543
   69SLPC  H11A 5842   5.768   3.764  10.957 -0.0125 -0.4766 -0.1877
   69SLPC  H11B 5843   5.754   3.801  11.126 -0.5693 -0.7404  0.1400
   69SLPC     P 5844   5.992   3.589  10.974 -0.0074 -0.1388 -0.0442
   69SLPC   O13 5845   6.124   3.658  10.955  0.5481 -0.1139 -0.0940
   69SLPC   O14 5846   5.993   3.447  11.008  0.3055  0.1046  0.5263
   69SLPC   O12 5847   5.909   3.664  11.085 -0.4360 -0.2752  0.6784
   69SLPC   O11 5848   5.901   3.609  10.850 -0.0661 -0.0635  1.0038
   69SLPC    C1 5849   5.819   3.510  10.789  0.9039 -0.4897 -0.9651
   69SLPC    HA 5850   5.798   3.433  10.867  2.5628  0.0943  0.1038
   69SLPC    HB 5851   5.732   3.553  10.735  1.4266  1.3349 -0.4125
   69SLPC    C2 5852   5.900   3.434  10.677  0.2172 -0.3541  0.3123
   69SLPC    HS 5853   5.986   3.378  10.720 -0.2446 -2.7094 -1.6119
   69SLPC   O21 5854   5.938   3.529  10.580  0.3223  0.1507 -0.5964
   69SLPC   C21 5855   6.040   3.495  10.508 -0.0083 -0.7282  0.9848
   69SLPC   O22 5856   6.116   3.403  10.528 -0.6228  0.4752 -0.1822
   69SLPC   C22 5857   6.064   3.597  10.394 -0.0580  0.6553 -1.0204
   69SLPC   H2R 5858   5.996   3.684  10.393 -0.6503  0.1984 -2.0759
   69SLPC   H2S 5859   6.165   3.643  10.397  0.4295 -0.2850 -2.1306
   69SLPC    C3 5860   5.807   3.324  10.617  0.5221 -0.6117  0.2428
   69SLPC    HX 5861   5.726   3.367  10.555 -1.8048 -2.6731  1.6798
   69SLPC    HY 5862   5.749   3.282  10.702 -2.0543 -0.4444 -1.3401
   69SLPC   O31 5863   5.886   3.226  10.545 -0.1704 -0.0389  0.2035
   69SLPC   C31 5864   5.870   3.208  10.412  0.0824 -0.2129  0.1647
   69SLPC   O32 5865   5.802   3.271  10.335  0.7629  0.3042 -0.2786
   69SLPC   C32 5866   5.954   3.079  10.371  0.8080 -0.4408 -0.0707
   69SLPC   H2X 5867   5.903   2.986  10.404 -0.4099  0.3182  0.2577
   69SLPC   H2Y 5868   6.047   3.087  10.431  0.2257 -0.1033  0.7896
   69SLPC   C23 5869   6.058   3.546  10.251  0.6017  1.1794 -0.0538
   69SLPC   H3R 5870   5.961   3.499  10.222  1.3634  0.3673 -1.3663
   69SLPC   H3S 5871   6.134   3.468  10.231 -0.7638 -0.4719  0.8840
   69SLPC   C24 5872   6.074   3.653  10.147 -0.1928 -0.0301  0.2303
   69SLPC   H4R 5873   6.152   3.730  10.167  0.5214 -0.2383 -1.5737
   69SLPC   H4S 5874   5.980   3.713  10.144  0.5863  1.1901 -0.4091
   69SLPC   C25 5875   6.102   3.600  10.005 -0.5239  0.4693  0.2287
   69SLPC   H5R 5876   6.085   3.674   9.924  0.3648 -0.6417 -1.0307
   69SLPC   H5S 5877   6.044   3.508   9.985  3.3154 -2.6823  2.1568
   69SLPC   C26 5878   6.240   3.543   9.977  0.0449 -0.1982  0.2137
   69SLPC   H6R 5879   6.251   3.448  10.034 -2.2783  0.2412  1.4971
   69SLPC   H6S 5880   6.311   3.618  10.019  0.9530 -1.6273  1.3302
   69SLPC   C27 5881   6.248   3.528   9.823 -0.2310 -0.3350  0.3547
   69SLPC   H7R 5882   6.208   3.614   9.765 -0.8277 -0.3385  0.7536
   69SLPC   H7S 5883   6.180   3.443   9.800  0.9273 -0.8527 -1.3412
   69SLPC   C28 5884   6.383   3.469   9.785  0.0940 -0.5859  0.1984
   69SLPC   H8R 5885   6.379   3.415   9.688 -1.5180  0.5472 -0.4137
   69SLPC   H8S 5886   6.411   3.390   9.857 -1.0596 -1.3891 -0.2122
   69SLPC   C29 5887   6.492   3.571   9.786  0.1572 -0.5521 -0.4744
   69SLPC   H9R 5888   6.495   3.633   9.695  0.3658 -4.5088 -3.4458
   69SLPC  C210 5889   6.602   3.576   9.870  0.7459 -0.0877  0.0450
   69SLPC  H10R 5890   6.671   3.662   9.867  2.1015 -1.0553  1.7740
   69SLPC  C211 5891   6.631   3.493   9.992  0.5552 -0.4430 -0.0760
   69SLPC  H11R 5892   6.740   3.499  10.013  0.6433  1.1270 -0.7672
   69SLPC  H11S 5893   6.595   3.391   9.969 -0.0959  0.3821 -3.2101
   69SLPC  C212 5894   6.562   3.559  10.110 -0.1283 -0.1751  0.9672
   69SLPC  H12R 5895   6.463   3.514  10.125 -0.2153 -0.3309 -0.0262
   69SLPC  C213 5896   6.615   3.643  10.198  0.4753  0.5069 -0.1374
   69SLPC  H13R 5897   6.553   3.678  10.282  1.3685 -1.5218  1.4519
   69SLPC  C214 5898   6.745   3.702  10.196 -0.3748  0.2455  0.8400
   69SLPC  H14R 5899   6.715   3.803  10.229  0.1357 -0.1504  2.5870
   69SLPC  H14S 5900   6.801   3.706  10.100 -0.3619  2.6332  0.8835
   69SLPC  C215 5901   6.842   3.653  10.310  0.4588  0.2367 -1.0688
   69SLPC  H15R 5902   6.784   3.636  10.403  0.7811  0.3583 -0.8439
   69SLPC  H15S 5903   6.916   3.731  10.336  1.0425 -0.9359  1.0838
   69SLPC  C216 5904   6.896   3.520  10.276  1.1782 -0.0220  0.0722
   69SLPC  H16R 5905   6.952   3.522  10.179  0.0519 -1.7715 -0.6633
   69SLPC  H16S 5906   6.816   3.445  10.261  0.3095  1.0296 -0.7014
   69SLPC  C217 5907   6.994   3.475  10.384 -0.4782  0.6666 -0.2857
   69SLPC  H17R 5908   6.930   3.454  10.472  1.1901 -0.3986  0.7316
   69SLPC  H17S 5909   7.067   3.557  10.401 -0.8987  0.9904 -0.0353
   69SLPC  C218 5910   7.058   3.341  10.337  0.0324  0.1953  0.0602
   69SLPC  H18R 5911   7.092   3.352  10.231 -0.5231  0.4602 -0.0923
   69SLPC  H18S 5912   6.977   3.266  10.339  0.6759 -0.5094  0.1639
   69SLPC  H18T 5913   7.149   3.318  10.396  1.0314  1.3326 -0.9700
   69SLPC   C33 5914   5.973   3.069  10.217 -0.0629  0.1287  0.0430
   69SLPC   H3X 5915   5.878   3.088  10.164 -0.6061 -1.1170  0.5395
   69SLPC   H3Y 5916   6.007   2.965  10.200 -4.3387 -1.7134  1.4878
   69SLPC   C34 5917   6.084   3.156  10.157 -0.0920  0.8980 -0.5449
   69SLPC   H4X 5918   6.179   3.131  10.208 -0.2114  0.3666 -0.5726
   69SLPC   H4Y 5919   6.055   3.261  10.179  1.8941  1.7801 -1.8513
   69SLPC   C35 5920   6.099   3.151  10.002  0.1546 -1.0996 -0.3276
   69SLPC   H5X 5921   6.192   3.209   9.980 -0.5678  0.1925 -0.0833
   69SLPC   H5Y 5922   6.014   3.213   9.967 -0.2150 -0.7814  1.0677
   69SLPC   C36 5923   6.107   3.012   9.941 -0.0973  0.8289 -0.0653
   69SLPC   H6X 5924   6.017   2.952   9.968  2.2051 -2.6199  0.6156
   69SLPC   H6Y 5925   6.192   2.954   9.983  0.0959  1.3542  0.2829
   69SLPC   C37 5926   6.093   3.027   9.785  0.5668  0.3795  0.5170
   69SLPC   H7X 5927   5.990   3.061   9.759  1.1015  0.3067 -1.8455
   69SLPC   H7Y 5928   6.106   2.922   9.750  4.2677  1.2005 -1.0181
   69SLPC   C38 5929   6.197   3.116   9.719 -0.6699 -0.7944 -0.3941
   69SLPC   H8X 5930   6.298   3.093   9.759 -0.6479  0.8575  0.6098
   69SLPC   H8Y 5931   6.178   3.221   9.751 -0.7774 -1.2600  1.1930
   69SLPC   C39 5932   6.189   3.093   9.574  0.5984 -0.4464 -0.5501
   69SLPC   H9X 5933   6.088   3.116   9.535  0.2378 -1.2302 -0.0997
   69SLPC   H9Y 5934   6.229   2.994   9.544  2.7087  0.0526  0.4238
   69SLPC  C310 5935   6.282   3.194   9.513  0.6505 -0.0400 -0.4847
   69SLPC  H10X 5936   6.388   3.161   9.520  0.7106  0.0422 -0.9551
   69SLPC  H10Y 5937   6.266   3.294   9.559 -0.7691 -0.1060 -0.8162
   69SLPC  C311 5938   6.265   3.211   9.359  0.6051  0.4125 -0.5546
   69SLPC  H11X 5939   6.158   3.224   9.331  0.2323 -0.0306  0.6243
   69SLPC  H11Y 5940   6.291   3.109   9.326  0.3332  0.9137 -2.4144
   69SLPC  C312 5941   6.358   3.313   9.291  0.2635  0.1544  0.1217
   69SLPC  H12X 5942   6.462   3.297   9.325  0.4166 -0.5060 -0.6384
   69SLPC  H12Y 5943   6.331   3.416   9.325  0.4246  1.0243 -2.2086
   69SLPC  C313 5944   6.371   3.291   9.134  0.3529  0.2136  0.2126
   69SLPC  H13X 5945   6.266   3.287   9.099  0.5192 -2.7511 -0.2199
   69SLPC  H13Y 5946   6.424   3.194   9.120  1.1951  0.7236 -0.2744
   69SLPC  C314 5947   6.449   3.401   9.062 -0.4010 -0.5000 -0.0402
   69SLPC  H14X 5948   6.524   3.451   9.127 -1.4146  0.0747  0.7295
   69SLPC  H14Y 5949   6.387   3.490   9.042 -2.2667 -2.0917 -1.7417
   69SLPC  C315 5950   6.503   3.344   8.927  0.2658 -0.1167 -1.1711
   69SLPC  H15X 5951   6.424   3.284   8.877  0.4814  1.5212 -3.6629
   69SLPC  H15Y 5952   6.592   3.281   8.948 -1.5384 -3.0079 -1.5595
   69SLPC  C316 5953   6.519   3.458   8.826  0.3310 -0.0650  0.0465
   69SLPC  H16X 5954   6.418   3.499   8.803  1.2123  1.1178 -2.1370
   69SLPC  H16Y 5955   6.559   3.406   8.736  1.3459  0.2189  0.3227
   69SLPC  C317 5956   6.613   3.578   8.856 -0.4757 -0.4282  0.1344
   69SLPC  H17X 5957   6.607   3.605   8.964  0.8206  0.2237  0.0586
   69SLPC  H17Y 5958   6.571   3.657   8.791 -0.1684 -1.1289 -0.9434
   69SLPC  C318 5959   6.762   3.547   8.815  0.9338  0.0132  0.7008
   69SLPC  H18X 5960   6.801   3.469   8.883  1.4802  1.1939  1.7738
   69SLPC  H18Y 5961   6.809   3.635   8.863 -0.1670  0.2777  1.3398
   69SLPC  H18Z 5962   6.791   3.550   8.708  0.4133  1.4688  0.5741
   70SLPC     N 5963   2.505   2.561  11.100 -1.1152 -0.0907 -0.2260
   70SLPC   C13 5964   2.653   2.561  11.133  0.1719 -0.0193 -0.6121
   70SLPC  H13A 5965   2.681   2.650  11.187  3.7921 -1.2306 -0.1717
   70SLPC  H13B 5966   2.689   2.478  11.192 -0.4725 -1.8287 -2.6527
   70SLPC  H13C 5967   2.710   2.570  11.041  0.8984  0.6228 -0.1113
   70SLPC   C14 5968   2.488   2.684  11.022 -0.3422 -0.1062 -0.4115
   70SLPC  H14A 5969   2.536   2.685  10.925 -1.5450 -0.4926 -1.0359
   70SLPC  H14B 5970   2.389   2.705  10.985 -0.2405  0.2122 -0.5076
   70SLPC  H14C 5971   2.524   2.771  11.075 -1.5832 -1.3140  2.6581
   70SLPC   C15 5972   2.438   2.567  11.238 -0.5765 -0.1948 -1.3485
   70SLPC  H15A 5973   2.478   2.654  11.287  0.5483 -1.4638  0.1064
   70SLPC  H15B 5974   2.331   2.572  11.225 -0.6987 -0.5861 -0.5814
   70SLPC  H15C 5975   2.466   2.476  11.291  0.3621  0.7844 -0.0957
   70SLPC   C12 5976   2.464   2.438  11.025  0.1222 -0.6554 -0.3471
   70SLPC  H12A 5977   2.357   2.431  11.018  0.0560  1.2829 -2.8129
   70SLPC  H12B 5978   2.494   2.350  11.080 -0.8097  0.5777  2.2778
   70SLPC   C11 5979   2.513   2.427  10.880  0.0517 -0.7282 -0.2155
   70SLPC  H11A 5980   2.490   2.524  10.831 -0.8416 -0.4317  0.7648
   70SLPC  H11B 5981   2.452   2.345  10.835 -0.5590 -0.4212  0.0387
   70SLPC     P 5982   2.728   2.283  10.858  0.3394 -0.0440 -0.2251
   70SLPC   O13 5983   2.874   2.295  10.860 -0.4952  0.1322 -0.1478
   70SLPC   O14 5984   2.669   2.194  10.959  0.4108 -0.4488  0.2497
   70SLPC   O12 5985   2.657   2.421  10.870 -0.3592  0.5460 -0.4452
   70SLPC   O11 5986   2.682   2.227  10.720 -0.0909  0.1547  0.6543
   70SLPC    C1 5987   2.739   2.261  10.595  0.6880  0.4624  0.6042
   70SLPC    HA 5988   2.849   2.252  10.606  0.4241 -1.8722  2.0481
   70SLPC    HB 5989   2.714   2.192  10.512 -0.2178  2.6790 -1.0551
   70SLPC    C2 5990   2.699   2.407  10.547 -0.6884  0.3516  0.4384
   70SLPC    HS 5991   2.739   2.478  10.623  0.2853  0.0812  0.1964
   70SLPC   O21 5992   2.559   2.421  10.526 -0.0957  0.1974  0.0738
   70SLPC   C21 5993   2.507   2.540  10.543  0.2993 -0.6461 -0.7056
   70SLPC   O22 5994   2.563   2.637  10.597 -0.1147  0.0761  0.0587
   70SLPC   C22 5995   2.357   2.539  10.512  1.2818 -0.3632  0.1903
   70SLPC   H2R 5996   2.312   2.464  10.581  0.1398  1.7235  1.8398
   70SLPC   H2S 5997   2.315   2.632  10.558 -1.3926 -1.6073  0.4229
   70SLPC    C3 5998   2.776   2.440  10.418 -0.4022  0.0003 -0.3001
   70SLPC    HX 5999   2.752   2.354  10.352  2.9001 -0.5554 -0.9566
   70SLPC    HY 6000   2.887   2.442  10.430 -0.0144  1.2947 -3.2435
   70SLPC   O31 6001   2.738   2.567  10.349 -0.3175  0.4665 -0.0172
   70SLPC   C31 6002   2.829   2.644  10.301  0.0351  0.4315  0.0460
   70SLPC   O32 6003   2.952   2.621  10.302  0.0729  0.3517  0.2888
   70SLPC   C32 6004   2.756   2.758  10.229 -0.3960  0.2539  0.4358
   70SLPC   H2X 6005   2.814   2.853  10.231 -1.7521  1.1216  0.0832
   70SLPC   H2Y 6006   2.664   2.764  10.292  1.4502 -1.9081  3.6358
   70SLPC   C23 6007   2.318   2.524  10.363 -1.1024  0.1771 -0.2956
   70SLPC   H3R 6008   2.208   2.510  10.356 -1.1173  0.1659 -0.0357
   70SLPC   H3S 6009   2.377   2.443  10.313 -0.5894  0.8889 -0.8818
   70SLPC   C24 6010   2.348   2.643  10.278 -1.2281 -0.3258  0.3837
   70SLPC   H4R 6011   2.454   2.650  10.247 -2.1660  0.6382 -3.0466
   70SLPC   H4S 6012   2.323   2.733  10.338 -0.0152 -0.5765  1.2839
   70SLPC   C25 6013   2.267   2.647  10.148 -0.4520 -0.2982 -0.6124
   70SLPC   H5R 6014   2.287   2.741  10.094  0.3747 -0.2666 -0.2695
   70SLPC   H5S 6015   2.160   2.647  10.179 -0.6955 -0.0010 -1.4276
   70SLPC   C26 6016   2.311   2.532  10.055  0.7102  0.0552  0.0901
   70SLPC   H6R 6017   2.246   2.548   9.966 -1.8348  0.9713  1.9710
   70SLPC   H6S 6018   2.274   2.437  10.100 -0.2486 -0.0990 -0.9917
   70SLPC   C27 6019   2.449   2.517   9.997  0.2953 -0.0674 -0.1320
   70SLPC   H7R 6020   2.528   2.510  10.074  1.3860  1.0095 -1.1158
   70SLPC   H7S 6021   2.491   2.600   9.936 -0.4061 -0.3923 -1.0888
   70SLPC   C28 6022   2.454   2.396   9.906 -0.8595  0.1888 -0.1463
   70SLPC   H8R 6023   2.541   2.414   9.840 -0.3920  1.0533  0.6832
   70SLPC   H8S 6024   2.373   2.399   9.830 -0.3471 -0.9365 -0.7624
   70SLPC   C29 6025   2.455   2.262   9.979  0.4446  0.3532  0.0108
   70SLPC   H9R 6026   2.367   2.237  10.040 -0.1854  1.2656 -0.5034
   70SLPC  C210 6027   2.542   2.157   9.964 -0.1744 -0.0583 -0.1250
   70SLPC  H10R 6028   2.514   2.063  10.013 -0.9567  1.5361  2.6827
   70SLPC  C211 6029   2.660   2.163   9.873 -0.8015  0.8244 -0.2162
   70SLPC  H11R 6030   2.731   2.222   9.935  0.7910  0.3497 -1.5299
   70SLPC  H11S 6031   2.638   2.216   9.778 -1.1319  0.8138 -0.1486
   70SLPC  C212 6032   2.736   2.032   9.848 -0.3880  0.2327  0.4591
   70SLPC  H12R 6033   2.797   1.988   9.928  2.0350  2.8774  0.2593
   70SLPC  C213 6034   2.751   1.974   9.729 -0.2692 -0.2478 -0.6965
   70SLPC  H13R 6035   2.810   1.881   9.731 -2.8063 -1.9358 -0.1791
   70SLPC  C214 6036   2.693   2.012   9.596 -0.1268  0.5241 -0.3579
   70SLPC  H14R 6037   2.614   2.090   9.601  0.0382  0.9244 -2.9080
   70SLPC  H14S 6038   2.650   1.919   9.553 -1.6402  0.5198  1.0307
   70SLPC  C215 6039   2.801   2.077   9.506  0.4727 -0.8565 -0.7678
   70SLPC  H15R 6040   2.893   2.014   9.514  0.1749 -1.0851  2.0143
   70SLPC  H15S 6041   2.833   2.177   9.543  1.2777 -1.2160 -0.4476
   70SLPC  C216 6042   2.766   2.075   9.354  0.5519  0.2401 -0.6972
   70SLPC  H16R 6043   2.687   2.152   9.355 -0.4849 -0.7935 -0.7689
   70SLPC  H16S 6044   2.712   1.980   9.334 -0.2230  0.6446 -0.5560
   70SLPC  C217 6045   2.874   2.117   9.254 -0.1008 -0.0194 -0.5093
   70SLPC  H17R 6046   2.958   2.046   9.271 -1.6348 -2.1133 -1.1831
   70SLPC  H17S 6047   2.903   2.221   9.280  1.2130 -0.2646 -0.9161
   70SLPC  C218 6048   2.818   2.114   9.112 -0.8651  0.4295  0.8871
   70SLPC  H18R 6049   2.731   2.180   9.094 -0.1626  0.5988 -2.3843
   70SLPC  H18S 6050   2.782   2.011   9.096 -2.3063  1.2732 -1.8819
   70SLPC  H18T 6051   2.896   2.126   9.034 -0.4062 -0.9477  1.1120
   70SLPC   C33 6052   2.719   2.740  10.078  0.4269  0.0557 -0.1806
   70SLPC   H3X 6053   2.624   2.790  10.049  0.0774 -0.7335 -0.4116
   70SLPC   H3Y 6054   2.701   2.632  10.057 -1.1397  0.1880  0.4118
   70SLPC   C34 6055   2.817   2.796   9.980  0.1879 -0.8272 -0.3716
   70SLPC   H4X 6056   2.917   2.749   9.992  0.0436 -1.0676 -0.0941
   70SLPC   H4Y 6057   2.830   2.903  10.007  2.7384 -0.9639 -0.7759
   70SLPC   C35 6058   2.777   2.786   9.834 -0.1364  0.2115  0.2565
   70SLPC   H5X 6059   2.845   2.842   9.766  0.6350  1.7545  2.1911
   70SLPC   H5Y 6060   2.685   2.842   9.809  0.3997  0.7959 -0.4720
   70SLPC   C36 6061   2.772   2.639   9.786 -0.0933  0.2712  0.6278
   70SLPC   H6X 6062   2.719   2.574   9.860  0.7511 -0.1791  0.8617
   70SLPC   H6Y 6063   2.869   2.590   9.761 -1.1296 -0.5169 -2.2607
   70SLPC   C37 6064   2.698   2.623   9.651 -0.6079 -0.0250  0.4206
   70SLPC   H7X 6065   2.743   2.697   9.581 -0.0718 -0.3334  0.4286
   70SLPC   H7Y 6066   2.587   2.626   9.656 -0.6814  4.3494 -0.1042
   70SLPC   C38 6067   2.717   2.481   9.578 -0.0578  0.4509  0.0244
   70SLPC   H8X 6068   2.690   2.387   9.631  1.5873 -2.0572 -3.1978
   70SLPC   H8Y 6069   2.825   2.473   9.553  0.3788 -0.0815  1.9274
   70SLPC   C39 6070   2.656   2.476   9.425 -0.4370  0.4764  0.7916
   70SLPC   H9X 6071   2.703   2.387   9.378 -0.4057  1.1769 -0.5548
   70SLPC   H9Y 6072   2.683   2.566   9.366 -1.7504  0.8633  0.7417
   70SLPC  C310 6073   2.499   2.459   9.408 -0.6595  0.4416  0.0050
   70SLPC  H10X 6074   2.454   2.533   9.477  1.0077  2.8724 -1.3434
   70SLPC  H10Y 6075   2.477   2.357   9.446 -0.8353 -0.6175 -2.7369
   70SLPC  C311 6076   2.447   2.453   9.267  0.6713  0.3458  0.4402
   70SLPC  H11X 6077   2.348   2.403   9.274  1.5202 -1.3966  0.6594
   70SLPC  H11Y 6078   2.518   2.396   9.204  0.8941  0.1303  0.8825
   70SLPC  C312 6079   2.436   2.598   9.200 -0.7249  0.1262  1.0428
   70SLPC  H12X 6080   2.529   2.658   9.213  0.2241 -1.5049  2.0428
   70SLPC  H12Y 6081   2.356   2.661   9.245 -1.1161  1.3918 -1.2183
   70SLPC  C313 6082   2.395   2.591   9.048 -0.2729 -0.2506 -0.8106
   70SLPC  H13X 6083   2.310   2.519   9.052 -1.2444  0.9450  1.5343
   70SLPC  H13Y 6084   2.477   2.554   8.982  0.5364  1.8728 -1.0489
   70SLPC  C314 6085   2.352   2.736   9.003 -0.7345  0.2770  0.0741
   70SLPC  H14X 6086   2.429   2.810   9.033 -0.1090  0.1109 -1.0544
   70SLPC  H14Y 6087   2.262   2.770   9.060 -2.5012  0.9588 -2.8769
   70SLPC  C315 6088   2.309   2.750   8.857  0.8510  0.2849  1.0111
   70SLPC  H15X 6089   2.226   2.676   8.856  0.2038  1.0000  0.7288
   70SLPC  H15Y 6090   2.389   2.722   8.785 -0.4366  3.1961 -1.8223
   70SLPC  C316 6091   2.253   2.894   8.829 -0.5334  0.1054  0.2058
   70SLPC  H16X 6092   2.327   2.976   8.845  0.5603 -0.6207 -0.9440
   70SLPC  H16Y 6093   2.170   2.909   8.901 -0.8926  0.2399 -0.2258
   70SLPC  C317 6094   2.202   2.915   8.681  0.2719  0.4301 -0.1030
   70SLPC  H17X 6095   2.122   2.838   8.667  1.1738 -0.5835  0.2422
   70SLPC  H17Y 6096   2.289   2.897   8.614 -0.2014  1.3551 -1.0013
   70SLPC  C318 6097   2.144   3.056   8.661  0.7881  0.5844  0.1296
   70SLPC  H18X 6098   2.222   3.127   8.695  2.3982 -1.3915  0.7463
   70SLPC  H18Y 6099   2.057   3.079   8.726  0.1645 -1.5698  0.1312
   70SLPC  H18Z 6100   2.106   3.071   8.558  1.3849 -1.6709 -0.4862
   71SLPC     N 6101   1.556   0.883  10.607  0.1840  0.9576  1.1646
   71SLPC   C13 6102   1.488   0.755  10.654 -0.5643 -0.7428 -0.3630
   71SLPC  H13A 6103   1.457   0.766  10.757 -0.2347  0.3567 -0.3735
   71SLPC  H13B 6104   1.401   0.724  10.597 -0.2670 -0.8786 -0.7477
   71SLPC  H13C 6105   1.560   0.675  10.647  1.1861  0.6629  0.8847
   71SLPC   C14 6106   1.564   0.870  10.456  0.0438 -0.4963 -0.0196
   71SLPC  H14A 6107   1.602   0.772  10.433 -0.5340 -0.7708  0.2095
   71SLPC  H14B 6108   1.468   0.888  10.410  0.1529  1.2053  0.3300
   71SLPC  H14C 6109   1.631   0.940  10.407 -0.5324  0.4915  0.5735
   71SLPC   C15 6110   1.693   0.882  10.663  0.1442 -0.0266 -0.0217
   71SLPC  H15A 6111   1.763   0.957  10.627 -0.1622  0.0077 -0.5498
   71SLPC  H15B 6112   1.683   0.888  10.770 -0.4429  1.7829 -0.1546
   71SLPC  H15C 6113   1.744   0.788  10.649 -0.2090  0.1260 -2.9665
   71SLPC   C12 6114   1.473   1.010  10.639 -0.1031  0.3989 -0.6130
   71SLPC  H12A 6115   1.371   0.991  10.608 -1.0665  1.4055  1.7091
   71SLPC  H12B 6116   1.508   1.090  10.576  1.8609 -1.1013 -1.5521
   71SLPC   C11 6117   1.468   1.052  10.787 -0.4969 -0.3966  0.3000
   71SLPC  H11A 6118   1.438   0.957  10.837  1.2150 -0.8222  0.5666
   71SLPC  H11B 6119   1.381   1.119  10.801 -0.2791  0.1517 -0.8410
   71SLPC     P 6120   1.663   1.233  10.810  0.6343  0.0621 -0.2942
   71SLPC   O13 6121   1.578   1.350  10.833 -0.5439  0.1950  0.0757
   71SLPC   O14 6122   1.791   1.238  10.879 -0.3519  0.3239 -0.6840
   71SLPC   O12 6123   1.593   1.101  10.844 -0.7197  0.3368  0.7202
   71SLPC   O11 6124   1.698   1.230  10.656  0.1829  0.2613  0.2706
   71SLPC    C1 6125   1.628   1.313  10.559 -0.9855  0.2815 -0.8416
   71SLPC    HA 6126   1.517   1.310  10.563 -0.9985 -0.0397 -1.3656
   71SLPC    HB 6127   1.660   1.419  10.569  1.5956 -0.2427 -2.6227
   71SLPC    C2 6128   1.655   1.258  10.422 -0.2451  0.1324  0.5222
   71SLPC    HS 6129   1.631   1.151  10.407 -1.2289  0.5107 -0.8020
   71SLPC   O21 6130   1.790   1.284  10.392 -0.0679  0.7291 -0.1772
   71SLPC   C21 6131   1.858   1.199  10.317 -0.1931 -0.2273 -0.0022
   71SLPC   O22 6132   1.826   1.089  10.277  0.6192 -0.2770  0.1726
   71SLPC   C22 6133   1.988   1.272  10.283  0.0284  0.2032 -0.7671
   71SLPC   H2R 6134   1.979   1.383  10.292  0.3183  0.0895  2.1672
   71SLPC   H2S 6135   2.068   1.251  10.358  1.7584  1.1784 -2.2436
   71SLPC    C3 6136   1.578   1.322  10.297 -0.4100  0.1089  0.5942
   71SLPC    HX 6137   1.609   1.428  10.300  2.2842 -0.5611 -0.6185
   71SLPC    HY 6138   1.468   1.320  10.317 -0.5521  0.5224 -0.0962
   71SLPC   O31 6139   1.604   1.265  10.167  0.0964  0.1607 -0.0312
   71SLPC   C31 6140   1.557   1.139  10.141  0.0779 -0.6242  0.0466
   71SLPC   O32 6141   1.495   1.070  10.219  0.0786  0.1996 -0.8936
   71SLPC   C32 6142   1.592   1.106   9.995  0.2524  0.7667  0.0948
   71SLPC   H2X 6143   1.666   1.024  10.009 -0.1011  0.9195  3.6690
   71SLPC   H2Y 6144   1.652   1.189   9.951  1.8809 -1.6662 -2.6042
   71SLPC   C23 6145   2.056   1.229  10.149  0.5707 -0.1128 -0.9760
   71SLPC   H3R 6146   2.092   1.124  10.154  1.5460  0.2597  0.9668
   71SLPC   H3S 6147   2.142   1.297  10.130  3.6605 -2.5247  2.6991
   71SLPC   C24 6148   1.971   1.239  10.028 -0.6031 -0.1589 -0.0205
   71SLPC   H4R 6149   1.914   1.334  10.022 -1.8027 -0.8425  0.2185
   71SLPC   H4S 6150   1.892   1.161  10.032 -0.1381 -0.6280  0.2493
   71SLPC   C25 6151   2.058   1.229   9.903  0.0425 -0.0487  0.3561
   71SLPC   H5R 6152   2.123   1.139   9.912 -0.0980 -0.0484  1.5136
   71SLPC   H5S 6153   2.125   1.317   9.919 -0.0941  0.2205 -0.5060
   71SLPC   C26 6154   1.991   1.240   9.765 -0.5175 -0.2079 -0.2310
   71SLPC   H6R 6155   1.966   1.347   9.750 -2.1707 -0.8222 -2.3002
   71SLPC   H6S 6156   1.899   1.179   9.771 -1.3368  1.0718  1.2610
   71SLPC   C27 6157   2.080   1.190   9.653  0.2322  0.0356  0.0736
   71SLPC   H7R 6158   2.072   1.080   9.645 -0.4022  0.0892 -0.1252
   71SLPC   H7S 6159   2.185   1.216   9.679 -0.1487  1.3179  0.3805
   71SLPC   C28 6160   2.046   1.262   9.512  0.1228 -0.1690 -0.0294
   71SLPC   H8R 6161   2.079   1.368   9.523 -0.7783  0.2828 -1.4009
   71SLPC   H8S 6162   1.935   1.262   9.498  0.3666  2.6738 -3.2985
   71SLPC   C29 6163   2.107   1.210   9.386 -0.6170 -0.5984  0.4609
   71SLPC   H9R 6164   2.187   1.136   9.404 -0.8287 -1.6911 -2.6419
   71SLPC  C210 6165   2.080   1.257   9.263 -0.6296  0.4272  0.6718
   71SLPC  H10R 6166   2.126   1.210   9.175 -1.9138 -1.6363  1.0305
   71SLPC  C211 6167   1.983   1.362   9.225 -0.5721 -0.1724  0.5719
   71SLPC  H11R 6168   2.032   1.452   9.182 -0.7681  0.7814  2.2758
   71SLPC  H11S 6169   1.935   1.400   9.317  0.4236  0.4324  0.8559
   71SLPC  C212 6170   1.874   1.313   9.135  0.2890  0.2109  0.0537
   71SLPC  H12R 6171   1.853   1.206   9.124 -2.6458  0.7431 -0.3936
   71SLPC  C213 6172   1.782   1.394   9.072 -0.8127  0.7227 -0.0936
   71SLPC  H13R 6173   1.701   1.352   9.011 -0.6777  2.0840 -1.2760
   71SLPC  C214 6174   1.778   1.548   9.066  0.4909  0.2451  0.0451
   71SLPC  H14R 6175   1.877   1.593   9.089  0.7195 -0.3049  0.1678
   71SLPC  H14S 6176   1.716   1.586   9.150 -0.0003  3.2024 -1.5432
   71SLPC  C215 6177   1.735   1.598   8.933  0.2900 -0.6648 -0.7376
   71SLPC  H15R 6178   1.706   1.705   8.942 -0.3841 -0.9432  0.7194
   71SLPC  H15S 6179   1.641   1.551   8.898  1.3079 -1.7919 -2.0563
   71SLPC  C216 6180   1.836   1.578   8.815  0.5259 -0.2342  0.1688
   71SLPC  H16R 6181   1.779   1.582   8.719  0.6862 -1.2423  0.0259
   71SLPC  H16S 6182   1.870   1.472   8.812  0.4696 -0.2365 -0.7204
   71SLPC  C217 6183   1.950   1.678   8.821 -0.3199  0.2047  0.3980
   71SLPC  H17R 6184   2.010   1.665   8.914 -0.1610 -1.9724  0.0488
   71SLPC  H17S 6185   1.907   1.778   8.840  1.4521  0.8412  1.2817
   71SLPC  C218 6186   2.046   1.693   8.699 -0.0069  0.0333  0.1868
   71SLPC  H18R 6187   2.098   1.595   8.689  0.4677  0.3988 -1.3026
   71SLPC  H18S 6188   2.120   1.773   8.720  1.4777 -1.2573  0.0953
   71SLPC  H18T 6189   2.000   1.714   8.600  0.8682  1.2505  0.0144
   71SLPC   C33 6190   1.473   1.052   9.909  0.4057 -0.1986 -0.3215
   71SLPC   H3X 6191   1.377   1.103   9.932  0.1542 -0.1276 -1.4934
   71SLPC   H3Y 6192   1.463   0.950   9.952  0.2244 -0.4045 -0.8452
   71SLPC   C34 6193   1.503   1.042   9.752 -0.5607 -0.7093  0.3354
   71SLPC   H4X 6194   1.408   0.999   9.714 -1.2603  0.8154  0.3259
   71SLPC   H4Y 6195   1.585   0.968   9.740  0.4365  0.2546  1.0003
   71SLPC   C35 6196   1.554   1.166   9.690 -0.3060  0.8648  0.3955
   71SLPC   H5X 6197   1.643   1.207   9.743  1.3929  1.0869 -2.3986
   71SLPC   H5Y 6198   1.464   1.230   9.697 -0.4728  1.0457 -2.1684
   71SLPC   C36 6199   1.589   1.152   9.534  0.2576  0.8736  0.3125
   71SLPC   H6X 6200   1.596   1.255   9.493  0.5702  1.8039  2.5377
   71SLPC   H6Y 6201   1.500   1.099   9.493  0.7432  0.3465 -0.0721
   71SLPC   C37 6202   1.716   1.067   9.504 -1.0024  0.0284 -0.0023
   71SLPC   H7X 6203   1.710   0.977   9.570 -0.7494 -0.6410 -0.8698
   71SLPC   H7Y 6204   1.808   1.109   9.548 -0.7639  0.0644 -0.5383
   71SLPC   C38 6205   1.735   1.029   9.359 -0.4788  0.8595 -0.6799
   71SLPC   H8X 6206   1.775   1.120   9.310  0.4707  0.1107 -1.3467
   71SLPC   H8Y 6207   1.641   0.997   9.308 -1.6783 -1.3121  2.5331
   71SLPC   C39 6208   1.836   0.915   9.337  0.2777  0.3070 -0.6030
   71SLPC   H9X 6209   1.799   0.814   9.367  1.1565  0.4672  1.1062
   71SLPC   H9Y 6210   1.933   0.934   9.387  0.9428 -1.1478 -1.2770
   71SLPC  C310 6211   1.879   0.902   9.192  0.4408 -0.0857 -0.2917
   71SLPC  H10X 6212   1.969   0.964   9.175  0.5198  0.1741  1.0321
   71SLPC  H10Y 6213   1.793   0.950   9.141  0.7564  1.2179  0.3730
   71SLPC  C311 6214   1.895   0.761   9.130 -0.1426 -0.9619 -0.3148
   71SLPC  H11X 6215   1.793   0.718   9.127 -0.1015 -1.0568 -0.3480
   71SLPC  H11Y 6216   1.947   0.716   9.217 -0.5489  0.6387  0.8011
   71SLPC  C312 6217   1.961   0.756   8.993 -0.4308  0.6086  0.3656
   71SLPC  H12X 6218   2.047   0.823   8.977 -0.6447  1.4390  2.3367
   71SLPC  H12Y 6219   1.881   0.788   8.922  1.4150  1.9342 -1.2125
   71SLPC  C313 6220   2.010   0.611   8.971 -0.2546  0.3055 -0.1134
   71SLPC  H13X 6221   1.932   0.536   8.998 -1.7203  1.9551  0.3853
   71SLPC  H13Y 6222   2.101   0.596   9.033 -0.4950 -1.8780 -0.2085
   71SLPC  C314 6223   2.052   0.575   8.829 -0.6727  0.5356 -0.7830
   71SLPC  H14X 6224   2.154   0.619   8.820  0.7996 -2.5248 -0.3699
   71SLPC  H14Y 6225   1.978   0.620   8.759 -1.4100  3.0582  1.4664
   71SLPC  C315 6226   2.069   0.428   8.792  0.1387 -0.2314  0.2088
   71SLPC  H15X 6227   2.079   0.413   8.682  0.2395 -0.9431  0.3055
   71SLPC  H15Y 6228   1.980   0.370   8.826 -0.3666  1.1819  1.4169
   71SLPC  C316 6229   2.183   0.356   8.862  1.0333 -0.4232  0.2020
   71SLPC  H16X 6230   2.144   0.285   8.937 -0.6054 -1.3495 -1.4331
   71SLPC  H16Y 6231   2.249   0.432   8.909  0.6298 -0.1497  0.3375
   71SLPC  C317 6232   2.286   0.282   8.768  0.0276  0.1587 -0.1451
   71SLPC  H17X 6233   2.333   0.357   8.700 -3.5055 -0.7168 -3.9759
   71SLPC  H17Y 6234   2.228   0.213   8.703 -0.3371  1.2057 -0.9795
   71SLPC  C318 6235   2.390   0.211   8.849 -0.1273 -0.9398 -0.0534
   71SLPC  H18X 6236   2.437   0.282   8.920 -0.2598 -1.2404  0.3361
   71SLPC  H18Y 6237   2.468   0.167   8.782 -0.7772 -2.8024  0.3415
   71SLPC  H18Z 6238   2.345   0.128   8.908  0.7727 -0.8312  0.8136
   72SLPC     N 6239   1.805   0.365  10.964 -0.2996  0.3800  0.2294
   72SLPC   C13 6240   1.866   0.394  11.097  0.0120  0.5713 -0.3470
   72SLPC  H13A 6241   1.800   0.461  11.148 -1.1010 -0.7570  0.0100
   72SLPC  H13B 6242   1.865   0.302  11.154 -2.7299  0.6747 -0.1032
   72SLPC  H13C 6243   1.967   0.428  11.077 -0.1506  0.3148 -1.6895
   72SLPC   C14 6244   1.883   0.268  10.884  0.2869  0.2665 -0.1513
   72SLPC  H14A 6245   1.886   0.169  10.928 -0.0001  0.8906  1.3082
   72SLPC  H14B 6246   1.839   0.263  10.785 -1.2334 -2.4083  0.5312
   72SLPC  H14C 6247   1.976   0.318  10.861 -0.9229  2.2904 -0.8483
   72SLPC   C15 6248   1.800   0.490  10.890 -0.0812  0.4706  0.1672
   72SLPC  H15A 6249   1.730   0.475  10.809 -1.1437 -0.9357  1.3011
   72SLPC  H15B 6250   1.792   0.581  10.946  0.7666  1.8528 -1.8182
   72SLPC  H15C 6251   1.900   0.498  10.850 -0.6722  2.2646 -1.0811
   72SLPC   C12 6252   1.674   0.306  10.997 -0.2130  0.3206  1.1458
   72SLPC  H12A 6253   1.628   0.345  11.087 -3.4593 -1.5795  0.4975
   72SLPC  H12B 6254   1.694   0.204  11.027  2.1559  0.8383  1.5159
   72SLPC   C11 6255   1.556   0.333  10.897  0.2473  0.1223 -0.6650
   72SLPC  H11A 6256   1.533   0.442  10.900  1.4165  0.4045 -1.3079
   72SLPC  H11B 6257   1.475   0.271  10.941 -0.0704  0.8457 -0.2089
   72SLPC     P 6258   1.518   0.359  10.640 -0.0615 -0.0444 -0.0079
   72SLPC   O13 6259   1.374   0.386  10.662 -0.1891 -0.1234 -0.2012
   72SLPC   O14 6260   1.600   0.475  10.616  0.2810 -0.1982  0.0849
   72SLPC   O12 6261   1.585   0.281  10.766 -0.2355  0.0479 -0.0009
   72SLPC   O11 6262   1.534   0.262  10.520  0.4365 -0.6844 -0.5008
   72SLPC    C1 6263   1.643   0.209  10.454 -0.2479 -0.1158 -0.2612
   72SLPC    HA 6264   1.722   0.177  10.526  0.8884 -0.5183 -1.6368
   72SLPC    HB 6265   1.610   0.124  10.391 -0.9576  0.6688 -0.9565
   72SLPC    C2 6266   1.710   0.304  10.350 -0.2709  0.0867  0.0080
   72SLPC    HS 6267   1.769   0.365  10.422 -0.8657 -0.2066  0.7529
   72SLPC   O21 6268   1.609   0.379  10.283 -0.4711 -0.0725  0.6801
   72SLPC   C21 6269   1.620   0.508  10.271 -0.1763  0.4688  0.1888
   72SLPC   O22 6270   1.707   0.580  10.314  0.9629  1.0038 -0.5568
   72SLPC   C22 6271   1.504   0.557  10.185 -0.1624 -0.1172 -0.5471
   72SLPC   H2R 6272   1.469   0.472  10.123 -0.8415 -0.6391  0.5194
   72SLPC   H2S 6273   1.420   0.589  10.250  0.4990  0.2539  0.1446
   72SLPC    C3 6274   1.807   0.238  10.249  0.2835  0.0431  0.3743
   72SLPC    HX 6275   1.746   0.172  10.183 -2.5851  2.2136  0.6579
   72SLPC    HY 6276   1.873   0.188  10.323  2.1331  0.1145 -1.1310
   72SLPC   O31 6277   1.873   0.328  10.165 -0.3623 -0.3102  0.6138
   72SLPC   C31 6278   1.988   0.377  10.205  0.3831 -0.1802 -0.7970
   72SLPC   O32 6279   2.030   0.353  10.317  0.4809 -0.2691 -0.3892
   72SLPC   C32 6280   2.056   0.469  10.103 -0.3697 -0.0102  0.4891
   72SLPC   H2X 6281   2.147   0.500  10.158  0.3171 -1.2732  0.0980
   72SLPC   H2Y 6282   1.981   0.549  10.086 -0.5795 -0.5044 -1.0749
   72SLPC   C23 6283   1.548   0.676  10.096 -0.2673  0.4935 -0.4467
   72SLPC   H3R 6284   1.598   0.757  10.154 -1.5703  0.5386  0.6748
   72SLPC   H3S 6285   1.456   0.723  10.056  0.7903  0.7777 -2.6507
   72SLPC   C24 6286   1.629   0.634   9.979 -0.6893 -0.3014  0.0604
   72SLPC   H4R 6287   1.734   0.605  10.001 -0.1744  0.1464 -1.6609
   72SLPC   H4S 6288   1.637   0.731   9.927  2.1544  0.7891  2.2549
   72SLPC   C25 6289   1.579   0.522   9.888 -0.2633 -0.0067 -0.0284
   72SLPC   H5R 6290   1.469   0.528   9.874 -0.3622 -0.2695  0.6412
   72SLPC   H5S 6291   1.596   0.426   9.940 -1.7335 -1.6805 -2.4195
   72SLPC   C26 6292   1.641   0.514   9.749  0.4111  0.3313 -0.5947
   72SLPC   H6R 6293   1.609   0.412   9.722 -1.6036  1.0088 -0.9741
   72SLPC   H6S 6294   1.751   0.530   9.750  0.7604 -1.8119 -0.8763
   72SLPC   C27 6295   1.569   0.608   9.652 -0.4638  0.6643 -0.1483
   72SLPC   H7R 6296   1.578   0.714   9.684  0.1313  0.0934  1.7043
   72SLPC   H7S 6297   1.460   0.587   9.655 -0.0672 -1.9648 -1.3944
   72SLPC   C28 6298   1.606   0.586   9.504  0.9702 -0.6824 -0.4096
   72SLPC   H8R 6299   1.577   0.480   9.488  0.6798 -0.5163 -1.0250
   72SLPC   H8S 6300   1.717   0.599   9.504  0.8546  0.4050  0.2572
   72SLPC   C29 6301   1.526   0.668   9.407  0.3438 -1.2942  0.1235
   72SLPC   H9R 6302   1.511   0.768   9.449 -1.0530 -0.9391 -1.1547
   72SLPC  C210 6303   1.489   0.636   9.278 -0.3414  0.0256 -0.4536
   72SLPC  H10R 6304   1.417   0.699   9.224  0.0127  0.0837 -0.8662
   72SLPC  C211 6305   1.529   0.507   9.208 -0.4567 -0.1190  0.1845
   72SLPC  H11R 6306   1.446   0.436   9.229 -2.1876  1.6794 -0.2270
   72SLPC  H11S 6307   1.620   0.458   9.248  0.2667  0.6883 -0.4192
   72SLPC  C212 6308   1.556   0.533   9.060  0.2052 -0.0833 -0.2778
   72SLPC  H12R 6309   1.615   0.620   9.029 -2.3967  2.0723  0.3872
   72SLPC  C213 6310   1.490   0.467   8.962 -0.8396  0.2493 -0.1853
   72SLPC  H13R 6311   1.520   0.493   8.860 -1.1364  0.3214 -0.2555
   72SLPC  C214 6312   1.375   0.371   8.976  0.0666  0.8290 -0.8145
   72SLPC  H14R 6313   1.296   0.413   9.041  0.2518  0.5015 -0.3692
   72SLPC  H14S 6314   1.425   0.284   9.023  2.0157  1.9910 -0.6482
   72SLPC  C215 6315   1.307   0.319   8.844 -0.1039  0.1806 -0.4752
   72SLPC  H15R 6316   1.259   0.400   8.785  0.1527 -0.4442 -1.5506
   72SLPC  H15S 6317   1.235   0.235   8.857 -0.2450  0.2684 -0.6903
   72SLPC  C216 6318   1.408   0.251   8.748  0.4204  0.5907  0.6292
   72SLPC  H16R 6319   1.380   0.147   8.720  3.4894  0.1831 -1.4748
   72SLPC  H16S 6320   1.501   0.225   8.804  0.5923 -0.6879 -0.2116
   72SLPC  C217 6321   1.432   0.323   8.618 -0.6827  0.5883 -0.4824
   72SLPC  H17R 6322   1.472   0.423   8.643 -2.3796  0.6032  2.5352
   72SLPC  H17S 6323   1.336   0.360   8.575 -1.1627 -1.7487 -1.6234
   72SLPC  C218 6324   1.521   0.250   8.517 -0.8710  0.5218  0.1076
   72SLPC  H18R 6325   1.607   0.214   8.577 -0.9330 -0.8537 -0.6002
   72SLPC  H18S 6326   1.544   0.324   8.436 -2.0041  1.9732  1.0740
   72SLPC  H18T 6327   1.471   0.163   8.471 -2.0178 -0.0690  2.3526
   72SLPC   C33 6328   2.091   0.392   9.975 -0.1894  0.3185  0.0332
   72SLPC   H3X 6329   2.109   0.285  10.001  0.9538  1.0899  2.7346
   72SLPC   H3Y 6330   2.183   0.442   9.941 -0.2458  1.0906  0.9773
   72SLPC   C34 6331   1.975   0.400   9.868 -0.1401 -0.3680  0.2794
   72SLPC   H4X 6332   1.975   0.501   9.822 -1.0492 -1.1393 -1.4653
   72SLPC   H4Y 6333   1.881   0.385   9.924  0.1176  0.0406  0.8384
   72SLPC   C35 6334   1.976   0.303   9.748 -0.3617 -0.1949  0.0412
   72SLPC   H5X 6335   2.069   0.305   9.689 -0.9988  1.3830 -0.9699
   72SLPC   H5Y 6336   1.895   0.342   9.683 -0.0769 -0.9059 -0.7495
   72SLPC   C36 6337   1.950   0.156   9.780 -0.3090  0.4237  0.4736
   72SLPC   H6X 6338   1.888   0.157   9.872 -0.7334 -1.3497  0.2498
   72SLPC   H6Y 6339   2.046   0.113   9.816  0.2537  2.0650  1.0151
   72SLPC   C37 6340   1.886   0.067   9.670  0.2550 -0.2447  0.2092
   72SLPC   H7X 6341   1.872  -0.034   9.715  0.5795 -1.0730 -1.4830
   72SLPC   H7Y 6342   1.951   0.063   9.580 -2.0195  2.5409 -1.7375
   72SLPC   C38 6343   1.747   0.110   9.610 -0.2527 -0.0560 -0.2260
   72SLPC   H8X 6344   1.728   0.219   9.610  0.6645  0.1494  2.0643
   72SLPC   H8Y 6345   1.669   0.067   9.676  0.6578 -0.8804  0.3344
   72SLPC   C39 6346   1.725   0.049   9.475  0.6160 -0.6138  0.2996
   72SLPC   H9X 6347   1.618   0.056   9.446  1.3480 -0.6614 -2.7808
   72SLPC   H9Y 6348   1.744  -0.059   9.494  0.5116 -1.0780 -1.9020
   72SLPC  C310 6349   1.811   0.094   9.360 -0.4069 -0.8491 -0.2204
   72SLPC  H10X 6350   1.811   0.022   9.274 -0.1277 -0.0776 -0.8756
   72SLPC  H10Y 6351   1.919   0.095   9.382 -0.1475 -1.0458 -1.3967
   72SLPC  C311 6352   1.765   0.227   9.297  0.2750 -0.4196  0.0021
   72SLPC  H11X 6353   1.744   0.300   9.378  1.4249 -0.0888  0.0120
   72SLPC  H11Y 6354   1.668   0.213   9.244  0.6985 -0.6558 -0.7225
   72SLPC  C312 6355   1.862   0.286   9.196  0.4952 -0.0386  0.1175
   72SLPC  H12X 6356   1.808   0.367   9.141 -4.6092 -2.2858  1.2499
   72SLPC  H12Y 6357   1.888   0.213   9.116 -1.6802 -1.0229  0.2389
   72SLPC  C313 6358   1.985   0.349   9.265 -0.1778  0.8569 -0.0112
   72SLPC  H13X 6359   2.042   0.395   9.181  0.4253 -2.0345 -1.3199
   72SLPC  H13Y 6360   2.041   0.265   9.311  3.2997  2.1835 -1.4412
   72SLPC  C314 6361   1.955   0.454   9.374  0.5138  0.1642  0.2921
   72SLPC  H14X 6362   1.896   0.399   9.450 -1.6558  0.6241 -0.9871
   72SLPC  H14Y 6363   1.889   0.529   9.324 -1.3561 -2.5696 -1.6698
   72SLPC  C315 6364   2.078   0.527   9.433 -0.3556  0.7586  0.4556
   72SLPC  H15X 6365   2.138   0.555   9.344 -0.7689 -1.1730 -0.4703
   72SLPC  H15Y 6366   2.135   0.453   9.493 -0.3473  2.0182  2.0782
   72SLPC  C316 6367   2.047   0.651   9.512 -0.3285  0.0293  0.2930
   72SLPC  H16X 6368   1.953   0.628   9.566 -2.1956 -0.3088 -2.8456
   72SLPC  H16Y 6369   2.037   0.740   9.447  1.0792 -1.4310 -2.1242
   72SLPC  C317 6370   2.163   0.681   9.608 -0.0733 -0.8558  0.5135
   72SLPC  H17X 6371   2.261   0.658   9.559  0.0270  1.0920 -0.2765
   72SLPC  H17Y 6372   2.161   0.613   9.696  1.4265 -1.1291  0.3632
   72SLPC  C318 6373   2.160   0.820   9.660 -0.5432 -0.0376  0.3952
   72SLPC  H18X 6374   2.081   0.820   9.738 -1.3744 -1.6600 -0.4014
   72SLPC  H18Y 6375   2.143   0.898   9.583 -0.3359 -1.1391 -0.7863
   72SLPC  H18Z 6376   2.246   0.847   9.726 -0.1306  0.6333 -0.3981
   73SLPC     N 6377   2.588   0.015  10.906 -0.1581 -0.0153  0.3967
   73SLPC   C13 6378   2.498   0.124  10.880 -0.3646 -0.0496  0.1874
   73SLPC  H13A 6379   2.556   0.214  10.896 -2.1967  1.2828 -0.2443
   73SLPC  H13B 6380   2.464   0.130  10.778  1.5287 -0.1668 -0.4914
   73SLPC  H13C 6381   2.409   0.133  10.941 -0.8522  1.3716 -0.6774
   73SLPC   C14 6382   2.632   0.026  11.055 -0.0816  0.3786  0.1299
   73SLPC  H14A 6383   2.543   0.011  11.115 -2.6048 -1.8184 -3.7286
   73SLPC  H14B 6384   2.710  -0.043  11.084 -1.7560 -1.2911  0.8366
   73SLPC  H14C 6385   2.674   0.124  11.068  1.9943 -0.2690 -1.1758
   73SLPC   C15 6386   2.704   0.023  10.819 -0.2118  0.2970  0.4700
   73SLPC  H15A 6387   2.762   0.113  10.831  0.5230 -0.0542 -0.3870
   73SLPC  H15B 6388   2.781  -0.046  10.849  0.3422  1.3169  1.4804
   73SLPC  H15C 6389   2.673  -0.003  10.719  1.2771  2.0346 -0.5029
   73SLPC   C12 6390   2.509  -0.115  10.888  0.0213 -0.3195 -0.9597
   73SLPC  H12A 6391   2.429  -0.106  10.960  0.4854  1.0875 -0.5803
   73SLPC  H12B 6392   2.576  -0.195  10.918 -0.4329 -0.3266  0.0906
   73SLPC   C11 6393   2.464  -0.161  10.747  0.6805  0.7844  0.9725
   73SLPC  H11A 6394   2.434  -0.266  10.767 -0.6585  0.3752 -2.5173
   73SLPC  H11B 6395   2.549  -0.175  10.678  0.4523 -0.9390  1.0124
   73SLPC     P 6396   2.217  -0.119  10.704  0.2872  0.1612  0.0358
   73SLPC   O13 6397   2.180  -0.151  10.849  0.2793  0.3317  0.5373
   73SLPC   O14 6398   2.120  -0.024  10.640  0.3219 -0.3079  0.2325
   73SLPC   O12 6399   2.370  -0.079  10.678  0.3823  0.2576  0.2032
   73SLPC   O11 6400   2.207  -0.256  10.628  0.3995 -0.0281  0.3286
   73SLPC    C1 6401   2.249  -0.269  10.497 -0.2599 -0.1025  0.4505
   73SLPC    HA 6402   2.334  -0.203  10.468  1.6622 -2.9241 -0.7055
   73SLPC    HB 6403   2.275  -0.375  10.478 -0.3254 -0.0499  0.0580
   73SLPC    C2 6404   2.127  -0.256  10.393 -0.2063 -0.0999 -0.2815
   73SLPC    HS 6405   2.060  -0.178  10.437  1.0030  0.3424  0.8622
   73SLPC   O21 6406   2.060  -0.382  10.392  0.3326  0.3699  0.6970
   73SLPC   C21 6407   1.924  -0.369  10.385  0.2990 -0.0584  0.5920
   73SLPC   O22 6408   1.861  -0.266  10.385 -0.2065 -0.2679 -0.0869
   73SLPC   C22 6409   1.863  -0.505  10.365 -0.1836  0.3527 -0.6468
   73SLPC   H2R 6410   1.888  -0.547  10.266  1.2397  1.3589 -0.7426
   73SLPC   H2S 6411   1.895  -0.572  10.447 -1.1331 -0.5092 -0.9553
   73SLPC    C3 6412   2.176  -0.222  10.252 -0.1192  0.2072  0.2856
   73SLPC    HX 6413   2.249  -0.302  10.225 -0.8378 -0.4174  0.1604
   73SLPC    HY 6414   2.228  -0.124  10.249 -0.2867  0.3350  1.2599
   73SLPC   O31 6415   2.066  -0.214  10.162  0.0108  0.6346  0.0702
   73SLPC   C31 6416   1.993  -0.109  10.161  0.1271 -0.9637 -0.1715
   73SLPC   O32 6417   2.014   0.003  10.214  0.1781 -0.3800 -0.7830
   73SLPC   C32 6418   1.864  -0.130  10.089  0.0729  0.3683  0.0683
   73SLPC   H2X 6419   1.858  -0.051  10.011  1.3916  1.4914  1.0657
   73SLPC   H2Y 6420   1.779  -0.108  10.157  1.8152  0.6378  2.2894
   73SLPC   C23 6421   1.708  -0.508  10.392  0.1598  0.0824 -0.0572
   73SLPC   H3R 6422   1.679  -0.450  10.482 -0.0734  2.6666 -1.6927
   73SLPC   H3S 6423   1.650  -0.602  10.399 -1.5487  0.9848 -1.2553
   73SLPC   C24 6424   1.633  -0.438  10.271 -0.7339 -0.1350  0.5225
   73SLPC   H4R 6425   1.660  -0.490  10.177 -0.7034  0.7473  0.0289
   73SLPC   H4S 6426   1.664  -0.331  10.259 -2.9035  0.6221  1.2442
   73SLPC   C25 6427   1.482  -0.424  10.287 -0.0026  0.5917  0.5931
   73SLPC   H5R 6428   1.465  -0.353  10.371  0.3957  3.8938 -1.9059
   73SLPC   H5S 6429   1.436  -0.522  10.312 -0.5238  0.9277  0.9892
   73SLPC   C26 6430   1.399  -0.363  10.170  0.0549 -0.0580 -0.3458
   73SLPC   H6R 6431   1.298  -0.409  10.177 -0.3233  0.4608 -2.0118
   73SLPC   H6S 6432   1.438  -0.395  10.071  0.2871 -0.9106  0.0138
   73SLPC   C27 6433   1.382  -0.210  10.170  0.8783 -0.1031  0.0929
   73SLPC   H7R 6434   1.475  -0.157  10.200 -0.2545  1.7058  0.5450
   73SLPC   H7S 6435   1.302  -0.183  10.242  0.6594 -0.1346 -0.1385
   73SLPC   C28 6436   1.353  -0.148  10.035 -0.1371  0.4101 -0.1837
   73SLPC   H8R 6437   1.265  -0.205   9.998  0.1713  0.3896 -0.8981
   73SLPC   H8S 6438   1.437  -0.178   9.969 -1.0060 -0.6294 -0.8323
   73SLPC   C29 6439   1.327  -0.002  10.046  0.5220  0.3103  0.0609
   73SLPC   H9R 6440   1.262   0.031  10.128 -0.0494 -2.3560  0.8031
   73SLPC  C210 6441   1.352   0.083   9.944  0.6868 -0.0060 -1.0214
   73SLPC  H10R 6442   1.330   0.190   9.959 -0.7503 -0.3333 -0.6385
   73SLPC  C211 6443   1.427   0.048   9.823 -0.3389 -0.5796 -0.6238
   73SLPC  H11R 6444   1.524   0.004   9.854 -0.6094 -0.4906  0.3823
   73SLPC  H11S 6445   1.447   0.142   9.767 -2.3954  0.7832  0.7733
   73SLPC  C212 6446   1.342  -0.037   9.732  0.0997 -0.3108 -0.1163
   73SLPC  H12R 6447   1.309  -0.126   9.788 -0.4112  1.3052  2.2724
   73SLPC  C213 6448   1.300  -0.010   9.606  0.5707  0.5582 -0.4375
   73SLPC  H13R 6449   1.238  -0.084   9.552  1.7819 -0.3103 -0.6738
   73SLPC  C214 6450   1.331   0.113   9.521  0.3707  0.4956 -0.0246
   73SLPC  H14R 6451   1.434   0.114   9.478 -0.5772 -0.7288 -2.5432
   73SLPC  H14S 6452   1.328   0.210   9.575 -0.3299  1.4508 -1.7072
   73SLPC  C215 6453   1.239   0.120   9.396  0.2469 -0.7321 -0.7302
   73SLPC  H15R 6454   1.248   0.223   9.355 -0.2203 -0.1916  0.4863
   73SLPC  H15S 6455   1.132   0.125   9.429  1.0754 -0.7175  2.2706
   73SLPC  C216 6456   1.260   0.024   9.279 -0.0647  0.5393 -0.7086
   73SLPC  H16R 6457   1.230  -0.079   9.307  2.2819  0.0733  0.3220
   73SLPC  H16S 6458   1.369   0.014   9.257 -0.2804 -4.4999 -0.6841
   73SLPC  C217 6459   1.186   0.079   9.158  0.0987 -0.1118  0.3639
   73SLPC  H17R 6460   1.233   0.176   9.129 -0.3102  0.4231  1.4662
   73SLPC  H17S 6461   1.081   0.095   9.189 -0.3223  3.1080 -2.1422
   73SLPC  C218 6462   1.205  -0.009   9.034 -0.3096 -0.3758 -0.0375
   73SLPC  H18R 6463   1.194  -0.115   9.063 -1.1009  0.4541  3.0875
   73SLPC  H18S 6464   1.309   0.001   8.995  0.1113 -3.5222  0.0533
   73SLPC  H18T 6465   1.148   0.022   8.944  1.7430  1.4675 -0.8058
   73SLPC   C33 6466   1.847  -0.269  10.021  0.3146 -0.1581  0.8596
   73SLPC   H3X 6467   1.837  -0.344  10.102  1.5792  0.4783  1.6361
   73SLPC   H3Y 6468   1.939  -0.307   9.971  0.0165 -0.3380  0.4425
   73SLPC   C34 6469   1.725  -0.282   9.931  0.6110  0.5977  0.3446
   73SLPC   H4X 6470   1.731  -0.193   9.865  1.9626 -0.1907 -0.6347
   73SLPC   H4Y 6471   1.630  -0.287   9.989  0.9455 -0.7622  0.8257
   73SLPC   C35 6472   1.744  -0.400   9.835 -0.5712 -0.3236 -0.0807
   73SLPC   H5X 6473   1.771  -0.490   9.893  2.8750 -0.4847 -1.6580
   73SLPC   H5Y 6474   1.835  -0.384   9.772 -0.8468  0.3387 -0.3242
   73SLPC   C36 6475   1.622  -0.414   9.744  0.7359  0.2333 -0.1356
   73SLPC   H6X 6476   1.533  -0.378   9.799 -0.3216 -1.1315 -0.9026
   73SLPC   H6Y 6477   1.613  -0.523   9.726  0.3345  0.2178  0.1595
   73SLPC   C37 6478   1.618  -0.330   9.612 -0.2799 -0.2221  0.0733
   73SLPC   H7X 6479   1.715  -0.352   9.561 -0.8403  3.3595 -3.0834
   73SLPC   H7Y 6480   1.604  -0.222   9.633 -0.3640 -0.4151  1.0341
   73SLPC   C38 6481   1.510  -0.367   9.509 -0.1112 -0.0552 -0.8232
   73SLPC   H8X 6482   1.411  -0.352   9.558 -0.5463 -1.4274 -1.2191
   73SLPC   H8Y 6483   1.514  -0.475   9.482  3.5604 -0.1692 -0.2236
   73SLPC   C39 6484   1.495  -0.292   9.374 -0.0548 -0.6529 -0.1752
   73SLPC   H9X 6485   1.544  -0.192   9.384  0.8586 -1.0694 -0.3715
   73SLPC   H9Y 6486   1.391  -0.279   9.339 -0.0174 -3.0113 -1.3875
   73SLPC  C310 6487   1.571  -0.361   9.260  0.2449  0.2183  0.3306
   73SLPC  H10X 6488   1.532  -0.461   9.231 -1.5048  0.8975  0.2347
   73SLPC  H10Y 6489   1.671  -0.379   9.305  0.7509  2.0215  0.0175
   73SLPC  C311 6490   1.598  -0.271   9.144  0.1557  0.4385  0.4046
   73SLPC  H11X 6491   1.684  -0.312   9.087 -0.2615  1.1787 -0.8002
   73SLPC  H11Y 6492   1.621  -0.167   9.173 -2.5133  1.0787  0.4997
   73SLPC  C312 6493   1.478  -0.276   9.051  0.4505 -0.5628  0.0727
   73SLPC  H12X 6494   1.378  -0.260   9.095 -0.4199 -1.8279 -1.3566
   73SLPC  H12Y 6495   1.465  -0.383   9.023 -0.6379 -0.9582  1.9078
   73SLPC  C313 6496   1.499  -0.187   8.921  0.3602 -0.1332 -0.0902
   73SLPC  H13X 6497   1.536  -0.086   8.951  1.9810 -0.8626  0.5323
   73SLPC  H13Y 6498   1.404  -0.186   8.864 -0.7999 -2.2267  1.6416
   73SLPC  C314 6499   1.602  -0.243   8.834 -0.0754 -0.1308  0.9938
   73SLPC  H14X 6500   1.589  -0.352   8.822 -0.0122  0.1097 -1.8900
   73SLPC  H14Y 6501   1.704  -0.242   8.878  0.2100  1.0579  0.3502
   73SLPC  C315 6502   1.607  -0.185   8.688  0.8302  0.2694 -0.3459
   73SLPC  H15X 6503   1.660  -0.087   8.693  0.1949  0.5675  2.8823
   73SLPC  H15Y 6504   1.506  -0.169   8.644  0.3390 -1.9842 -0.1636
   73SLPC  C316 6505   1.689  -0.287   8.597  0.2705 -0.1038  0.1101
   73SLPC  H16X 6506   1.631  -0.381   8.595 -1.9403  1.0932 -3.8974
   73SLPC  H16Y 6507   1.791  -0.300   8.638  0.0885 -0.9729  0.2992
   73SLPC  C317 6508   1.701  -0.248   8.448  0.1347  0.0647  0.2499
   73SLPC  H17X 6509   1.757  -0.156   8.420 -0.3132  0.3335  0.2217
   73SLPC  H17Y 6510   1.599  -0.228   8.410 -0.1056  0.4683  1.0797
   73SLPC  C318 6511   1.764  -0.359   8.359  0.2560  0.5176 -0.5048
   73SLPC  H18X 6512   1.746  -0.344   8.250 -0.2503  2.9967 -0.1416
   73SLPC  H18Y 6513   1.735  -0.464   8.383  4.4295  0.1914  5.3215
   73SLPC  H18Z 6514   1.873  -0.367   8.378 -0.3087 -3.0999  2.4722
   74SLPC     N 6515   3.601   0.470  10.970  1.0495  0.5022 -0.4270
   74SLPC   C13 6516   3.599   0.583  11.072  0.3690 -0.2690  0.1480
   74SLPC  H13A 6517   3.505   0.635  11.063  0.0578 -0.9884 -0.9965
   74SLPC  H13B 6518   3.615   0.556  11.176  2.9083  1.5360  0.3266
   74SLPC  H13C 6519   3.674   0.655  11.041  0.0508 -1.2876 -3.4258
   74SLPC   C14 6520   3.722   0.385  11.005 -0.2822  0.4733 -0.7513
   74SLPC  H14A 6521   3.708   0.330  11.097 -1.1626  1.6365 -0.1635
   74SLPC  H14B 6522   3.749   0.319  10.924 -0.5344 -0.1242 -0.3608
   74SLPC  H14C 6523   3.803   0.455  11.010  0.7449 -0.7961  1.4917
   74SLPC   C15 6524   3.624   0.535  10.835 -0.0454  0.0789 -0.1901
   74SLPC  H15A 6525   3.536   0.591  10.806  0.1174  0.5367  0.1961
   74SLPC  H15B 6526   3.711   0.598  10.828 -0.3065  0.4625 -0.0461
   74SLPC  H15C 6527   3.640   0.458  10.760 -2.0902 -1.7159  1.0952
   74SLPC   C12 6528   3.476   0.383  10.982  0.6100 -0.1098  1.7108
   74SLPC  H12A 6529   3.389   0.446  10.994  0.1489 -0.4027  0.0490
   74SLPC  H12B 6530   3.486   0.312  11.063 -0.5074 -2.7395 -0.3065
   74SLPC   C11 6531   3.449   0.298  10.853 -0.7770 -0.2443  0.5439
   74SLPC  H11A 6532   3.464   0.358  10.761 -2.8951 -0.5832 -0.0868
   74SLPC  H11B 6533   3.347   0.257  10.870  0.3604 -2.8088  1.7011
   74SLPC     P 6534   3.598   0.113  10.731 -0.0236  0.2531 -0.0955
   74SLPC   O13 6535   3.738   0.162  10.721  0.2118 -0.7918 -0.4341
   74SLPC   O14 6536   3.576  -0.031  10.736  0.1639 -0.0504 -0.4715
   74SLPC   O12 6537   3.540   0.188  10.849 -0.0107 -0.1661 -0.0330
   74SLPC   O11 6538   3.512   0.176  10.612  0.7799  0.2223  0.9746
   74SLPC    C1 6539   3.397   0.104  10.559  0.4193  0.4962  0.6242
   74SLPC    HA 6540   3.342   0.041  10.633  1.9019 -0.3265  1.0722
   74SLPC    HB 6541   3.327   0.184  10.528  1.6800  1.1384 -0.6642
   74SLPC    C2 6542   3.410   0.029  10.413  0.9435  0.1078  0.3392
   74SLPC    HS 6543   3.481  -0.056  10.406  0.7171  0.0358 -2.8144
   74SLPC   O21 6544   3.451   0.137  10.325  0.5964  0.8006 -0.4608
   74SLPC   C21 6545   3.503   0.091  10.209 -0.2255 -0.4497 -0.5565
   74SLPC   O22 6546   3.528  -0.025  10.180  0.6050 -0.9755 -0.4222
   74SLPC   C22 6547   3.523   0.213  10.117  0.7901 -0.4837 -0.0664
   74SLPC   H2R 6548   3.469   0.302  10.154  0.8337 -1.5332  2.7312
   74SLPC   H2S 6549   3.632   0.234  10.120  0.5987  0.4659  3.0365
   74SLPC    C3 6550   3.268  -0.024  10.367 -0.3968 -0.3104  0.2391
   74SLPC    HX 6551   3.204   0.066  10.357 -0.0459 -0.0363  0.4564
   74SLPC    HY 6552   3.224  -0.086  10.448 -1.9633 -0.4576 -0.6864
   74SLPC   O31 6553   3.281  -0.090  10.233  1.0556  0.2697  0.1857
   74SLPC   C31 6554   3.216  -0.211  10.240 -0.4247 -0.1735 -0.4442
   74SLPC   O32 6555   3.190  -0.270  10.340  0.0809 -0.1105  0.0833
   74SLPC   C32 6556   3.205  -0.254  10.094  0.3807 -0.2934 -0.0752
   74SLPC   H2X 6557   3.166  -0.170  10.033  1.1158 -0.8282 -1.3270
   74SLPC   H2Y 6558   3.146  -0.347  10.083 -0.9026  0.6744 -1.8588
   74SLPC   C23 6559   3.465   0.175   9.977 -0.3961 -0.5239  0.2583
   74SLPC   H3R 6560   3.510   0.082   9.935 -0.4583  0.2619 -1.6460
   74SLPC   H3S 6561   3.498   0.260   9.914 -0.6714  1.7565  2.9643
   74SLPC   C24 6562   3.309   0.182   9.978  0.2985  0.7053  0.1873
   74SLPC   H4R 6563   3.276   0.276  10.026 -0.3583  1.8519 -2.3291
   74SLPC   H4S 6564   3.271   0.094  10.035  0.6162  0.1447 -0.4549
   74SLPC   C25 6565   3.245   0.171   9.839  0.1062 -0.5458  1.1752
   74SLPC   H5R 6566   3.305   0.221   9.760 -3.0324  0.3985 -0.7755
   74SLPC   H5S 6567   3.154   0.233   9.839  2.5620  3.4371  0.0195
   74SLPC   C26 6568   3.218   0.026   9.794  0.1951 -0.1556  0.1273
   74SLPC   H6R 6569   3.158  -0.027   9.871  1.4858 -2.3915 -0.3392
   74SLPC   H6S 6570   3.308  -0.035   9.775  0.5023  0.3461 -0.0556
   74SLPC   C27 6571   3.140   0.016   9.660 -0.4395 -0.3151 -0.0643
   74SLPC   H7R 6572   3.048   0.075   9.680 -0.0837  0.7717 -1.5074
   74SLPC   H7S 6573   3.106  -0.089   9.642  0.5337 -0.9208  1.4087
   74SLPC   C28 6574   3.225   0.058   9.540 -0.3587  0.5389 -0.0774
   74SLPC   H8R 6575   3.313  -0.006   9.520  1.3115  2.8123 -0.3458
   74SLPC   H8S 6576   3.266   0.160   9.548 -1.0546  1.1117 -2.7286
   74SLPC   C29 6577   3.137   0.050   9.422  0.0248 -0.0524 -0.2362
   74SLPC   H9R 6578   3.058  -0.026   9.430  1.7565 -1.8157  1.1635
   74SLPC  C210 6579   3.170   0.106   9.302  0.5733 -0.1595 -0.0146
   74SLPC  H10R 6580   3.100   0.098   9.218  0.9565 -1.3666 -0.2331
   74SLPC  C211 6581   3.291   0.195   9.278  0.8118 -0.0596  0.0756
   74SLPC  H11R 6582   3.326   0.250   9.368  1.1251 -0.3464  0.1297
   74SLPC  H11S 6583   3.247   0.275   9.215  2.2780  0.7816  0.0729
   74SLPC  C212 6584   3.403   0.126   9.205  0.5856  0.9334  0.4497
   74SLPC  H12R 6585   3.454   0.045   9.260 -0.5299  0.8152  1.3618
   74SLPC  C213 6586   3.446   0.156   9.083 -0.7002  0.2617  0.1092
   74SLPC  H13R 6587   3.527   0.102   9.031 -0.6381  1.2117 -0.8173
   74SLPC  C214 6588   3.397   0.271   8.997 -0.1038  0.5328  0.1127
   74SLPC  H14R 6589   3.455   0.363   9.022  2.2045 -1.0345  0.8073
   74SLPC  H14S 6590   3.291   0.298   9.018  0.2165  3.3085 -1.2865
   74SLPC  C215 6591   3.385   0.237   8.844  0.8169 -0.0158 -0.5579
   74SLPC  H15R 6592   3.307   0.159   8.832  0.4860 -0.2258  2.2596
   74SLPC  H15S 6593   3.485   0.199   8.813  0.3610  1.0121 -3.6924
   74SLPC  C216 6594   3.361   0.351   8.748  0.5772 -0.4492  0.4924
   74SLPC  H16R 6595   3.402   0.316   8.651 -2.1769 -1.2978 -0.4572
   74SLPC  H16S 6596   3.417   0.438   8.789 -0.1945  0.0807  0.4426
   74SLPC  C217 6597   3.208   0.391   8.737 -0.8317 -0.4180 -0.9813
   74SLPC  H17R 6598   3.173   0.413   8.840 -0.6460  0.9317 -1.1909
   74SLPC  H17S 6599   3.158   0.296   8.707 -0.5982 -0.9138  0.1739
   74SLPC  C218 6600   3.179   0.501   8.640  0.0326 -0.5761 -0.3928
   74SLPC  H18R 6601   3.069   0.515   8.635  0.1634  0.1670 -2.0557
   74SLPC  H18S 6602   3.213   0.477   8.537 -1.5948  1.9036 -1.6167
   74SLPC  H18T 6603   3.231   0.593   8.675  2.1399 -1.2735 -1.4971
   74SLPC   C33 6604   3.343  -0.264  10.020 -0.0500 -0.3504  0.7473
   74SLPC   H3X 6605   3.408  -0.338  10.071  1.1705  0.3430  0.2421
   74SLPC   H3Y 6606   3.407  -0.173  10.023 -2.2815  1.3302  2.7215
   74SLPC   C34 6607   3.331  -0.328   9.881 -0.3764  0.1588  0.0734
   74SLPC   H4X 6608   3.260  -0.274   9.815 -0.5097  1.0990  0.9618
   74SLPC   H4Y 6609   3.284  -0.429   9.889  0.5012 -0.2135  0.6110
   74SLPC   C35 6610   3.473  -0.346   9.837 -0.3701  0.7908 -0.3343
   74SLPC   H5X 6611   3.527  -0.377   9.929  0.5379  1.5685 -0.5896
   74SLPC   H5Y 6612   3.517  -0.254   9.792  0.5460  1.2504  1.4205
   74SLPC   C36 6613   3.495  -0.458   9.729 -0.8530 -1.0948  0.1443
   74SLPC   H6X 6614   3.489  -0.556   9.782  2.3255 -0.9336  1.0248
   74SLPC   H6Y 6615   3.601  -0.441   9.703 -0.9989  0.5950  0.5259
   74SLPC   C37 6616   3.411  -0.428   9.603  0.3831  0.6838  0.3206
   74SLPC   H7X 6617   3.399  -0.322   9.571 -1.4593  0.3672 -0.0906
   74SLPC   H7Y 6618   3.305  -0.458   9.614  0.5455  0.3361  1.0440
   74SLPC   C38 6619   3.470  -0.511   9.491 -0.1092 -0.2770 -0.3477
   74SLPC   H8X 6620   3.468  -0.620   9.510 -2.6924 -0.4249 -1.0766
   74SLPC   H8Y 6621   3.575  -0.484   9.463 -0.1421 -0.1193 -0.3183
   74SLPC   C39 6622   3.380  -0.497   9.363 -1.0357 -0.1052 -0.1854
   74SLPC   H9X 6623   3.282  -0.539   9.393 -0.2887 -0.1373  2.4179
   74SLPC   H9Y 6624   3.427  -0.573   9.296  2.7133  1.5590  0.2885
   74SLPC  C310 6625   3.380  -0.367   9.293  0.2561 -0.1199  0.1681
   74SLPC  H10X 6626   3.483  -0.329   9.282  0.3310 -0.5699 -0.7266
   74SLPC  H10Y 6627   3.313  -0.300   9.352 -0.4977 -1.1627  0.5262
   74SLPC  C311 6628   3.320  -0.378   9.160 -0.2537 -1.1940  0.7975
   74SLPC  H11X 6629   3.221  -0.425   9.140  0.7916 -2.2569 -2.5984
   74SLPC  H11Y 6630   3.390  -0.441   9.100  0.2716 -0.6523  0.8362
   74SLPC  C312 6631   3.313  -0.241   9.091 -0.7552  1.0233  0.3296
   74SLPC  H12X 6632   3.386  -0.173   9.138  0.8921 -0.0039 -0.6518
   74SLPC  H12Y 6633   3.214  -0.193   9.110 -0.8986  0.0890  2.1724
   74SLPC  C313 6634   3.341  -0.244   8.941 -0.3857 -0.2419  0.2815
   74SLPC  H13X 6635   3.442  -0.287   8.929  0.3226  1.3355  0.3564
   74SLPC  H13Y 6636   3.357  -0.137   8.917  1.4654 -0.3987  0.7150
   74SLPC  C314 6637   3.233  -0.299   8.850  0.1375  0.2453  0.4440
   74SLPC  H14X 6638   3.131  -0.261   8.872  0.2089  1.5607 -1.2226
   74SLPC  H14Y 6639   3.230  -0.410   8.847  1.1183  0.2098 -1.2727
   74SLPC  C315 6640   3.270  -0.270   8.704 -0.4854  0.6564  0.5998
   74SLPC  H15X 6641   3.367  -0.319   8.680  1.3391  4.0027  0.5506
   74SLPC  H15Y 6642   3.284  -0.160   8.696 -0.1337  0.5997  0.4156
   74SLPC  C316 6643   3.160  -0.321   8.609 -0.1582 -0.0498 -0.5238
   74SLPC  H16X 6644   3.069  -0.258   8.620 -0.0700  0.0647 -0.4566
   74SLPC  H16Y 6645   3.127  -0.425   8.633  0.8835 -0.5473 -1.1517
   74SLPC  C317 6646   3.203  -0.317   8.463  0.2689  0.3791  0.0247
   74SLPC  H17X 6647   3.289  -0.387   8.455 -0.4037 -0.7050  1.7226
   74SLPC  H17Y 6648   3.226  -0.215   8.426  0.6354 -0.2669 -1.6213
   74SLPC  C318 6649   3.089  -0.372   8.375  0.1602 -0.0491  0.7065
   74SLPC  H18X 6650   2.993  -0.319   8.393 -0.2725 -0.0996 -1.2728
   74SLPC  H18Y 6651   3.066  -0.475   8.411  1.2400 -0.2729  0.7925
   74SLPC  H18Z 6652   3.100  -0.377   8.265 -0.8873 -0.4067  0.6071
   75SLPC     N 6653   1.362   3.521   6.374  0.3974 -0.0602 -0.0341
   75SLPC   C13 6654   1.450   3.579   6.264 -0.5918 -0.0312  0.4208
   75SLPC  H13A 6655   1.389   3.613   6.181  0.2639 -0.7160 -0.5262
   75SLPC  H13B 6656   1.500   3.668   6.299 -1.7227  0.3227  1.1950
   75SLPC  H13C 6657   1.521   3.506   6.227  0.3492  1.3641 -0.6001
   75SLPC   C14 6658   1.362   3.616   6.482  0.2317 -0.2498 -0.6990
   75SLPC  H14A 6659   1.309   3.574   6.566 -1.0768  3.4761  0.5754
   75SLPC  H14B 6660   1.460   3.636   6.522 -0.3635 -0.7543  1.1086
   75SLPC  H14C 6661   1.306   3.704   6.452 -1.9114 -1.2103  0.2413
   75SLPC   C15 6662   1.432   3.387   6.414 -0.6847 -0.5401  0.3424
   75SLPC  H15A 6663   1.487   3.347   6.329 -0.7967  2.8588 -1.4806
   75SLPC  H15B 6664   1.507   3.412   6.487  0.6807 -1.0168 -0.8396
   75SLPC  H15C 6665   1.359   3.319   6.455 -2.1647 -0.5454 -2.0972
   75SLPC   C12 6666   1.216   3.486   6.319  0.1374 -0.1127 -0.1765
   75SLPC  H12A 6667   1.165   3.422   6.390  0.6687  1.9440  2.2234
   75SLPC  H12B 6668   1.231   3.425   6.232  2.4329  1.4463 -0.9749
   75SLPC   C11 6669   1.131   3.604   6.268 -0.6698 -1.2587  0.4729
   75SLPC  H11A 6670   1.045   3.574   6.204 -0.8710 -0.8852  0.5630
   75SLPC  H11B 6671   1.190   3.661   6.193 -0.4796  0.4209  1.8439
   75SLPC     P 6672   0.979   3.661   6.476  0.1548  0.1927 -0.5976
   75SLPC   O13 6673   0.952   3.784   6.556  0.2836 -0.1249 -0.0474
   75SLPC   O14 6674   0.880   3.601   6.384  0.2176  0.1325  0.1599
   75SLPC   O12 6675   1.097   3.692   6.379  0.1597  0.3505 -0.4987
   75SLPC   O11 6676   1.058   3.553   6.557  0.3420 -0.2574  0.3005
   75SLPC    C1 6677   1.099   3.564   6.687 -0.3218 -0.6449 -0.1683
   75SLPC    HA 6678   1.185   3.635   6.691 -1.7528  1.1472  0.6073
   75SLPC    HB 6679   1.007   3.590   6.744 -0.6773 -0.5631 -0.7730
   75SLPC    C2 6680   1.141   3.408   6.718  0.0161 -0.4313  0.3100
   75SLPC    HS 6681   1.126   3.348   6.626 -2.6235  0.2516  0.2140
   75SLPC   O21 6682   1.041   3.355   6.810 -0.2391 -0.1406 -0.7120
   75SLPC   C21 6683   1.046   3.235   6.844 -0.4794  0.2025 -0.2024
   75SLPC   O22 6684   1.132   3.156   6.800 -0.4244 -0.1208  1.0538
   75SLPC   C22 6685   0.944   3.212   6.956 -0.3351  0.2262  0.5212
   75SLPC   H2R 6686   0.849   3.268   6.940 -0.9270 -1.1898 -1.3465
   75SLPC   H2S 6687   0.916   3.105   6.959  1.2517 -0.2327 -0.1895
   75SLPC    C3 6688   1.292   3.399   6.768  0.6177 -0.5522  0.1539
   75SLPC    HX 6689   1.368   3.417   6.689  0.2785 -0.7425 -0.2176
   75SLPC    HY 6690   1.308   3.301   6.817  0.4448 -1.4976 -1.5816
   75SLPC   O31 6691   1.314   3.496   6.867  0.0862 -0.7333 -0.2096
   75SLPC   C31 6692   1.431   3.491   6.935 -0.3447 -1.2962 -0.6355
   75SLPC   O32 6693   1.529   3.431   6.902  0.3788 -0.1181 -0.4604
   75SLPC   C32 6694   1.411   3.564   7.064 -0.0991  0.0349  0.0160
   75SLPC   H2X 6695   1.304   3.567   7.091 -0.3175 -2.9153 -0.2200
   75SLPC   H2Y 6696   1.445   3.668   7.046 -1.7217  0.1082 -3.5148
   75SLPC   C23 6697   0.996   3.262   7.093  0.2133 -0.6398  0.1584
   75SLPC   H3R 6698   0.917   3.244   7.169  0.3672 -1.0684  0.2220
   75SLPC   H3S 6699   1.004   3.373   7.092 -1.1293 -0.5213  0.6207
   75SLPC   C24 6700   1.130   3.206   7.134  0.0437 -0.1333 -0.1036
   75SLPC   H4R 6701   1.211   3.209   7.058 -0.4433  1.2129 -0.5996
   75SLPC   H4S 6702   1.112   3.098   7.152 -2.1830 -0.0118 -1.2329
   75SLPC   C25 6703   1.181   3.287   7.248 -0.2840 -0.3757 -0.0385
   75SLPC   H5R 6704   1.160   3.395   7.237  1.2293  0.0183  0.6608
   75SLPC   H5S 6705   1.292   3.286   7.252 -0.1083  2.2821 -1.7753
   75SLPC   C26 6706   1.119   3.222   7.382 -0.3242 -0.2014  0.5566
   75SLPC   H6R 6707   1.165   3.122   7.391 -2.1793 -1.0493  1.0934
   75SLPC   H6S 6708   1.013   3.197   7.357 -0.4995  0.1160  0.9748
   75SLPC   C27 6709   1.139   3.295   7.509 -0.9463 -0.7792  1.1654
   75SLPC   H7R 6710   1.127   3.403   7.487 -0.2505 -0.9896 -0.3791
   75SLPC   H7S 6711   1.247   3.285   7.528 -0.6958 -1.8826 -0.5425
   75SLPC   C28 6712   1.040   3.248   7.610 -0.3137  0.2811  0.3575
   75SLPC   H8R 6713   0.941   3.216   7.570 -0.2056 -1.9988  1.7822
   75SLPC   H8S 6714   1.008   3.335   7.671 -0.3667  1.5256 -1.3668
   75SLPC   C29 6715   1.109   3.139   7.683 -0.3367  0.6019  0.6772
   75SLPC   H9R 6716   1.133   3.051   7.622  1.9981  1.7204 -0.1510
   75SLPC  C210 6717   1.150   3.137   7.814 -0.4691 -0.1424 -0.5973
   75SLPC  H10R 6718   1.213   3.051   7.843 -1.0920 -0.1196  0.8974
   75SLPC  C211 6719   1.132   3.244   7.915 -0.6250  0.3287 -0.0639
   75SLPC  H11R 6720   1.038   3.301   7.897  0.0984  1.3070 -0.8295
   75SLPC  H11S 6721   1.205   3.323   7.887 -0.7864  0.6832  0.4917
   75SLPC  C212 6722   1.130   3.207   8.058  0.0790  0.1678 -0.0807
   75SLPC  H12R 6723   1.094   3.107   8.087 -1.8567  1.1379  1.0860
   75SLPC  C213 6724   1.168   3.279   8.165  0.6661 -0.2701 -0.0369
   75SLPC  H13R 6725   1.145   3.239   8.265 -2.6337 -0.7129 -0.8543
   75SLPC  C214 6726   1.213   3.422   8.157 -0.4154 -0.9175  0.1151
   75SLPC  H14R 6727   1.203   3.466   8.055  0.9124 -1.2301 -0.1604
   75SLPC  H14S 6728   1.322   3.427   8.177 -0.4153 -3.0867  0.9387
   75SLPC  C215 6729   1.133   3.523   8.250 -1.2826  0.3033 -0.0692
   75SLPC  H15R 6730   1.025   3.515   8.228 -1.8220  2.9499  1.1996
   75SLPC  H15S 6731   1.169   3.625   8.223 -1.6260  1.6604  3.9085
   75SLPC  C216 6732   1.154   3.512   8.403 -0.2717  0.2077  0.2735
   75SLPC  H16R 6733   1.258   3.525   8.441  0.6460 -3.3310 -0.6748
   75SLPC  H16S 6734   1.119   3.411   8.433 -2.4054  0.1713 -2.0314
   75SLPC  C217 6735   1.056   3.609   8.474  0.1048  0.0288 -0.2525
   75SLPC  H17R 6736   1.053   3.590   8.583 -0.7072 -0.8193 -0.4135
   75SLPC  H17S 6737   0.959   3.588   8.423 -0.5895 -2.5503  1.9033
   75SLPC  C218 6738   1.094   3.755   8.458 -0.2103 -0.3386  0.7667
   75SLPC  H18R 6739   1.103   3.778   8.350 -1.3708 -0.5973  0.6080
   75SLPC  H18S 6740   1.200   3.769   8.491 -0.4541  1.7097  0.7629
   75SLPC  H18T 6741   1.014   3.814   8.507  1.0386 -0.4766  3.1323
   75SLPC   C33 6742   1.493   3.506   7.175  0.3676  1.1435 -0.2474
   75SLPC   H3X 6743   1.484   3.395   7.181 -2.1446  1.2509 -0.8605
   75SLPC   H3Y 6744   1.596   3.531   7.142  0.9311  0.0290  0.5806
   75SLPC   C34 6745   1.468   3.577   7.303 -0.5307 -0.2094 -0.4043
   75SLPC   H4X 6746   1.369   3.543   7.341 -0.8207  0.2867 -0.7089
   75SLPC   H4Y 6747   1.454   3.686   7.288 -2.6882 -0.5050 -0.9916
   75SLPC   C35 6748   1.588   3.551   7.401 -0.3991 -0.1276  0.1388
   75SLPC   H5X 6749   1.676   3.606   7.360 -1.5078  1.7737  0.1919
   75SLPC   H5Y 6750   1.615   3.445   7.386 -0.6545 -0.2154  0.2908
   75SLPC   C36 6751   1.560   3.579   7.549  0.6149  1.4234 -0.4099
   75SLPC   H6X 6752   1.533   3.684   7.572  0.5449  1.2735  0.2081
   75SLPC   H6Y 6753   1.653   3.564   7.609  0.4667 -2.8608 -0.9660
   75SLPC   C37 6754   1.447   3.495   7.610  0.6432  0.4225 -0.4164
   75SLPC   H7X 6755   1.482   3.390   7.620  0.5165  0.4415  0.2906
   75SLPC   H7Y 6756   1.355   3.500   7.548 -0.0576  0.9125  0.6310
   75SLPC   C38 6757   1.408   3.554   7.740 -0.0053  0.0112  0.1514
   75SLPC   H8X 6758   1.300   3.532   7.752 -0.2834  1.3458  0.2131
   75SLPC   H8Y 6759   1.414   3.664   7.748  0.6646 -0.0429  0.5263
   75SLPC   C39 6760   1.482   3.493   7.871  0.5272 -0.5697 -0.4729
   75SLPC   H9X 6761   1.449   3.387   7.871 -1.4078 -0.0038  0.2218
   75SLPC   H9Y 6762   1.430   3.529   7.962  0.2736 -1.4800 -0.2422
   75SLPC  C310 6763   1.631   3.504   7.871  0.3829  0.4715  0.3697
   75SLPC  H10X 6764   1.651   3.613   7.862  0.1598  0.4440 -0.5148
   75SLPC  H10Y 6765   1.677   3.464   7.778 -1.6515  0.9920 -0.9227
   75SLPC  C311 6766   1.718   3.458   7.993 -0.2994 -0.2029  0.5353
   75SLPC  H11X 6767   1.823   3.492   7.976 -0.4888 -0.0046 -0.3154
   75SLPC  H11Y 6768   1.709   3.347   8.001  1.5919 -0.3948  0.5502
   75SLPC  C312 6769   1.659   3.526   8.122  0.1073  0.4755  0.1227
   75SLPC  H12X 6770   1.557   3.487   8.139 -0.0119  0.5770 -0.3362
   75SLPC  H12Y 6771   1.651   3.636   8.111 -1.7050  0.2542 -1.1856
   75SLPC  C313 6772   1.737   3.472   8.247  0.4794  0.3658  0.2376
   75SLPC  H13X 6773   1.841   3.505   8.226  1.6607 -3.7382 -1.3730
   75SLPC  H13Y 6774   1.749   3.361   8.255 -0.8271 -0.0523 -2.5060
   75SLPC  C314 6775   1.668   3.522   8.378 -0.6058  0.2194  0.2242
   75SLPC  H14X 6776   1.574   3.581   8.372 -0.6016  0.0957 -1.4388
   75SLPC  H14Y 6777   1.734   3.593   8.433 -0.5962 -0.8008  1.6101
   75SLPC  C315 6778   1.641   3.424   8.489 -1.0031  0.0562  0.2934
   75SLPC  H15X 6779   1.732   3.361   8.500 -2.3875 -2.2599 -0.7362
   75SLPC  H15Y 6780   1.562   3.356   8.450 -1.1734 -0.2018  1.0694
   75SLPC  C316 6781   1.618   3.497   8.627  0.5242 -0.0873  0.3347
   75SLPC  H16X 6782   1.655   3.602   8.622  1.0898 -0.3174 -3.5451
   75SLPC  H16Y 6783   1.663   3.436   8.708  2.2030 -0.8368 -1.0909
   75SLPC  C317 6784   1.472   3.510   8.671 -0.3316  0.2763  0.9130
   75SLPC  H17X 6785   1.435   3.406   8.661 -0.2457  0.2316  1.0589
   75SLPC  H17Y 6786   1.411   3.573   8.601  1.3789 -0.3048 -1.2160
   75SLPC  C318 6787   1.459   3.560   8.816 -0.2642  0.5961  0.6830
   75SLPC  H18X 6788   1.486   3.667   8.826 -0.8197  0.8888 -0.6829
   75SLPC  H18Y 6789   1.515   3.498   8.888 -0.0063  0.6165  0.5032
   75SLPC  H18Z 6790   1.352   3.563   8.846 -0.6709  0.9598 -0.7139
   76SLPC     N 6791   3.351   2.232   6.635  0.4900 -0.1152  0.7553
   76SLPC   C13 6792   3.312   2.375   6.671  0.6038  0.0440 -0.1909
   76SLPC  H13A 6793   3.388   2.441   6.633  1.9762 -0.4977  1.4542
   76SLPC  H13B 6794   3.216   2.389   6.623  0.9717  0.3109 -0.8637
   76SLPC  H13C 6795   3.300   2.383   6.779  0.3415 -1.3823 -0.0923
   76SLPC   C14 6796   3.230   2.141   6.656 -0.2171  0.8507 -0.8046
   76SLPC  H14A 6797   3.210   2.135   6.762  3.4867 -0.6706 -0.0273
   76SLPC  H14B 6798   3.140   2.172   6.605 -1.1215  1.2762  0.9852
   76SLPC  H14C 6799   3.246   2.040   6.621 -0.6129 -0.4277  2.3728
   76SLPC   C15 6800   3.448   2.191   6.731 -0.3737  0.2640  0.2142
   76SLPC  H15A 6801   3.464   2.084   6.723  0.8844  0.5857 -3.5774
   76SLPC  H15B 6802   3.540   2.243   6.709 -1.1988  2.0323  0.8102
   76SLPC  H15C 6803   3.419   2.205   6.834  1.1885 -1.4695  0.9484
   76SLPC   C12 6804   3.407   2.234   6.495 -0.1864 -0.5936 -0.4746
   76SLPC  H12A 6805   3.329   2.266   6.428 -0.7862 -1.2411 -0.1133
   76SLPC  H12B 6806   3.440   2.135   6.464  1.0300 -0.2135 -0.4456
   76SLPC   C11 6807   3.527   2.336   6.468 -0.3198 -0.3294 -0.0596
   76SLPC  H11A 6808   3.482   2.436   6.480 -0.2989  0.0450 -2.6656
   76SLPC  H11B 6809   3.551   2.327   6.360  1.1376 -1.4777  0.3284
   76SLPC     P 6810   3.740   2.185   6.488 -0.0212 -0.2716 -0.2433
   76SLPC   O13 6811   3.646   2.071   6.465  0.0661 -0.4818  0.2335
   76SLPC   O14 6812   3.825   2.223   6.379 -0.3132 -0.0326  0.5036
   76SLPC   O12 6813   3.652   2.312   6.537  0.4428  0.3424  0.6566
   76SLPC   O11 6814   3.824   2.151   6.616 -0.1907  0.1845  0.3963
   76SLPC    C1 6815   3.929   2.248   6.645 -0.0961  0.3951  0.6337
   76SLPC    HA 6816   3.997   2.244   6.556 -0.9773  3.2410 -0.2525
   76SLPC    HB 6817   3.892   2.351   6.658 -0.3132  0.3843  0.1334
   76SLPC    C2 6818   4.006   2.212   6.776  0.4528  0.3689  0.6431
   76SLPC    HS 6819   4.103   2.266   6.789  0.8313 -0.1820  0.1654
   76SLPC   O21 6820   4.037   2.075   6.796 -0.4762  0.2369 -0.1501
   76SLPC   C21 6821   4.118   2.028   6.699  0.6874  0.0806 -0.3017
   76SLPC   O22 6822   4.179   2.095   6.621 -0.2588  0.2351  0.5292
   76SLPC   C22 6823   4.115   1.873   6.707 -0.3594  0.2816  0.2504
   76SLPC   H2R 6824   4.015   1.850   6.749 -0.4435  0.5192  0.1790
   76SLPC   H2S 6825   4.108   1.840   6.601  1.7431  1.3497 -0.2784
   76SLPC    C3 6826   3.914   2.264   6.892 -0.1141 -0.6891  0.2637
   76SLPC    HX 6827   3.805   2.258   6.873 -0.5914 -0.0050  2.4856
   76SLPC    HY 6828   3.920   2.374   6.876  2.5831 -1.1920 -3.6134
   76SLPC   O31 6829   3.951   2.220   7.024  0.1705  0.0513 -0.0060
   76SLPC   C31 6830   3.891   2.117   7.081 -0.5619 -0.0449 -0.4517
   76SLPC   O32 6831   3.801   2.047   7.038 -0.0420 -0.3733 -0.3250
   76SLPC   C32 6832   3.955   2.106   7.219  0.6561 -0.7667 -0.6147
   76SLPC   H2X 6833   3.919   2.189   7.283  2.0978 -1.0301  0.6000
   76SLPC   H2Y 6834   4.065   2.111   7.227  0.5302  1.5690  0.5171
   76SLPC   C23 6835   4.210   1.799   6.806 -0.1916  0.3719 -0.1818
   76SLPC   H3R 6836   4.313   1.819   6.770 -1.0483  2.9655 -1.3525
   76SLPC   H3S 6837   4.190   1.690   6.795  1.6774  0.1221 -1.7079
   76SLPC   C24 6838   4.183   1.847   6.955 -0.4578  0.7911  1.2026
   76SLPC   H4R 6839   4.074   1.860   6.973  0.0743  2.0815  3.9209
   76SLPC   H4S 6840   4.227   1.949   6.964 -0.1490  0.7944 -0.0818
   76SLPC   C25 6841   4.246   1.758   7.064 -0.5145  0.0301 -0.3654
   76SLPC   H5R 6842   4.357   1.753   7.056 -0.6505 -2.3018 -1.5774
   76SLPC   H5S 6843   4.198   1.659   7.055  2.3944 -1.4383 -0.8059
   76SLPC   C26 6844   4.210   1.808   7.211  0.4208 -0.0719 -0.1441
   76SLPC   H6R 6845   4.103   1.788   7.235  0.3462  3.5003  3.6450
   76SLPC   H6S 6846   4.233   1.916   7.219  1.2736 -0.3184  1.0152
   76SLPC   C27 6847   4.296   1.726   7.314  0.1291 -0.2587  0.3918
   76SLPC   H7R 6848   4.398   1.766   7.296  0.2381 -0.5734  0.3034
   76SLPC   H7S 6849   4.298   1.617   7.290  2.2339 -0.4641  1.2562
   76SLPC   C28 6850   4.229   1.733   7.450 -0.0675 -0.4135  0.0760
   76SLPC   H8R 6851   4.218   1.842   7.467 -1.1910 -0.3034 -1.2174
   76SLPC   H8S 6852   4.133   1.677   7.458 -0.6469  0.5297 -0.1092
   76SLPC   C29 6853   4.319   1.679   7.558  0.1366 -0.4617  0.5330
   76SLPC   H9R 6854   4.417   1.643   7.525  0.2672  1.7503 -1.7402
   76SLPC  C210 6855   4.297   1.680   7.690 -0.0210  1.0254 -0.2568
   76SLPC  H10R 6856   4.373   1.637   7.757 -0.0444  0.2918 -0.6950
   76SLPC  C211 6857   4.172   1.729   7.759  1.1458 -0.1943  0.4151
   76SLPC  H11R 6858   4.145   1.644   7.825  0.3408 -0.6906 -0.5338
   76SLPC  H11S 6859   4.095   1.749   7.682  1.7968 -2.7591 -1.0044
   76SLPC  C212 6860   4.204   1.859   7.833  0.0270 -0.1730 -0.1604
   76SLPC  H12R 6861   4.213   1.948   7.769  1.8660 -0.9031 -0.9663
   76SLPC  C213 6862   4.200   1.890   7.964 -0.2655  0.3127 -0.1103
   76SLPC  H13R 6863   4.222   1.992   7.996 -0.7329  1.1154 -2.1764
   76SLPC  C214 6864   4.177   1.801   8.081 -0.4035 -0.0466  0.2217
   76SLPC  H14R 6865   4.274   1.789   8.134 -0.1598 -1.2655 -0.4623
   76SLPC  H14S 6866   4.157   1.695   8.053 -2.1817  0.8774 -2.3160
   76SLPC  C215 6867   4.074   1.834   8.195 -0.1653  0.0551 -0.4282
   76SLPC  H15R 6868   4.082   1.752   8.270  0.0966  0.4650  0.0030
   76SLPC  H15S 6869   3.967   1.838   8.167 -0.6521 -0.1035  1.2933
   76SLPC  C216 6870   4.099   1.967   8.274  0.0184 -0.2981 -0.2295
   76SLPC  H16R 6871   4.143   2.045   8.208 -0.5560  1.5412  1.4622
   76SLPC  H16S 6872   4.186   1.945   8.339 -0.7067  0.8684  1.2082
   76SLPC  C217 6873   3.979   2.003   8.356  0.3502 -0.8845 -0.8993
   76SLPC  H17R 6874   3.946   1.926   8.428  2.6356 -0.1726  1.0293
   76SLPC  H17S 6875   3.900   2.010   8.278 -0.9614 -0.0390  0.4678
   76SLPC  C218 6876   4.009   2.128   8.435 -0.3082 -0.5589  0.5013
   76SLPC  H18R 6877   4.009   2.201   8.351 -3.1684  0.5685  1.3441
   76SLPC  H18S 6878   4.112   2.131   8.475  0.9637  0.8903 -2.5159
   76SLPC  H18T 6879   3.931   2.156   8.509 -1.4695 -1.5887 -0.2872
   76SLPC   C33 6880   3.913   1.974   7.285  0.1571  0.3431 -0.1981
   76SLPC   H3X 6881   3.998   1.931   7.343  0.0297  0.1864 -0.1259
   76SLPC   H3Y 6882   3.891   1.890   7.216  0.8134 -0.5964  0.7001
   76SLPC   C34 6883   3.800   1.989   7.383 -0.7456 -0.0500  0.3806
   76SLPC   H4X 6884   3.759   1.893   7.422 -0.7522 -0.2455 -0.1016
   76SLPC   H4Y 6885   3.719   2.036   7.323  1.1730  0.0726 -2.2751
   76SLPC   C35 6886   3.830   2.074   7.514 -0.0043 -0.0249 -0.6637
   76SLPC   H5X 6887   3.737   2.111   7.562  0.1689 -1.3575  0.7957
   76SLPC   H5Y 6888   3.897   2.160   7.491 -0.3064  0.5725  0.6236
   76SLPC   C36 6889   3.904   1.984   7.620 -0.2447 -0.4704 -0.2810
   76SLPC   H6X 6890   4.011   1.988   7.591 -0.3397  0.4524 -0.5481
   76SLPC   H6Y 6891   3.857   1.889   7.652 -2.3985  0.4588 -0.4974
   76SLPC   C37 6892   3.913   2.074   7.749 -1.1026  0.8607 -0.5185
   76SLPC   H7X 6893   3.974   2.164   7.728  0.1595 -0.1771 -1.4458
   76SLPC   H7Y 6894   3.981   2.029   7.825 -0.7738  1.4381 -0.4640
   76SLPC   C38 6895   3.780   2.105   7.813  0.0010  0.0127 -0.3290
   76SLPC   H8X 6896   3.718   2.013   7.819 -1.2431  0.4694 -3.8636
   76SLPC   H8Y 6897   3.737   2.192   7.758  1.2027  1.1764  0.5152
   76SLPC   C39 6898   3.794   2.149   7.962  0.2915 -0.1834 -0.2086
   76SLPC   H9X 6899   3.860   2.238   7.966 -0.7972  0.8382 -3.1038
   76SLPC   H9Y 6900   3.842   2.064   8.016 -0.8115 -0.9889 -0.4533
   76SLPC  C310 6901   3.661   2.201   8.015 -0.2101  0.3425 -0.4522
   76SLPC  H10X 6902   3.587   2.119   8.005 -1.3983  0.8728  2.8889
   76SLPC  H10Y 6903   3.624   2.295   7.968 -1.1014  0.9759  1.4397
   76SLPC  C311 6904   3.666   2.244   8.162  0.1980 -0.1999  1.0198
   76SLPC  H11X 6905   3.686   2.156   8.227 -0.7837 -0.1792  1.3772
   76SLPC  H11Y 6906   3.568   2.286   8.195  1.1556  2.3413  0.8041
   76SLPC  C312 6907   3.771   2.354   8.194 -0.1133 -0.0346  0.1437
   76SLPC  H12X 6908   3.764   2.438   8.121 -0.5275 -1.3678 -1.4176
   76SLPC  H12Y 6909   3.869   2.304   8.183  0.3892  1.1953 -1.3585
   76SLPC  C313 6910   3.752   2.425   8.323  0.6927 -0.3249  0.2097
   76SLPC  H13X 6911   3.740   2.348   8.403 -2.3437 -0.0845  0.1116
   76SLPC  H13Y 6912   3.659   2.485   8.311  0.7638  0.0365  1.3176
   76SLPC  C314 6913   3.858   2.529   8.353  0.4324  0.3059  0.5654
   76SLPC  H14X 6914   3.842   2.625   8.300  1.2831  0.4906  0.6298
   76SLPC  H14Y 6915   3.954   2.493   8.312 -0.5155 -1.3964 -0.2643
   76SLPC  C315 6916   3.883   2.564   8.503 -0.5503  0.1246  0.2075
   76SLPC  H15X 6917   3.980   2.618   8.493 -0.3223 -0.1138  1.0351
   76SLPC  H15Y 6918   3.909   2.469   8.555 -0.7981 -0.0659 -0.0175
   76SLPC  C316 6919   3.774   2.645   8.575 -0.2250 -0.3095  0.0789
   76SLPC  H16X 6920   3.813   2.678   8.674  2.3425  3.0335 -1.8351
   76SLPC  H16Y 6921   3.680   2.587   8.583 -1.0264  1.1625  2.5409
   76SLPC  C317 6922   3.755   2.781   8.504 -0.2512 -0.1859 -0.2038
   76SLPC  H17X 6923   3.761   2.781   8.393 -1.3162  0.0651 -0.2751
   76SLPC  H17Y 6924   3.840   2.849   8.529 -1.4380  1.1158  0.4519
   76SLPC  C318 6925   3.626   2.845   8.551 -0.7194  0.2783 -0.5155
   76SLPC  H18X 6926   3.548   2.768   8.570  2.4802 -2.8932  0.7355
   76SLPC  H18Y 6927   3.595   2.929   8.485  0.8423  1.9270  0.7363
   76SLPC  H18Z 6928   3.645   2.892   8.650  1.7407 -0.5079 -0.5618
   77SLPC     N 6929   5.568   1.306   6.336 -0.7690  0.0174 -0.6518
   77SLPC   C13 6930   5.662   1.399   6.265  0.3980 -0.9220  0.0374
   77SLPC  H13A 6931   5.614   1.450   6.183 -0.9347 -1.2072  0.6125
   77SLPC  H13B 6932   5.706   1.474   6.330  1.8541 -0.6090 -1.2494
   77SLPC  H13C 6933   5.747   1.340   6.235  0.7996 -0.5993  0.5101
   77SLPC   C14 6934   5.527   1.198   6.243  0.1706  0.7146 -0.3924
   77SLPC  H14A 6935   5.464   1.240   6.166  0.9116  0.0893 -1.3436
   77SLPC  H14B 6936   5.605   1.139   6.198 -1.1425 -0.6643 -0.9495
   77SLPC  H14C 6937   5.459   1.126   6.288  0.4799  0.7891  0.2112
   77SLPC   C15 6938   5.453   1.385   6.371  0.1963  0.8650  0.0575
   77SLPC  H15A 6939   5.383   1.335   6.436  0.2726  0.5013 -0.1386
   77SLPC  H15B 6940   5.481   1.480   6.414 -0.9653  1.7752 -1.1223
   77SLPC  H15C 6941   5.395   1.406   6.283 -0.5059  1.5645  0.6714
   77SLPC   C12 6942   5.640   1.249   6.463  1.0036  0.4161 -0.0357
   77SLPC  H12A 6943   5.676   1.338   6.512 -0.5746  1.2953 -0.4335
   77SLPC  H12B 6944   5.728   1.193   6.434  2.3984  1.7532  1.4307
   77SLPC   C11 6945   5.550   1.160   6.558  0.2370  0.1709 -0.7999
   77SLPC  H11A 6946   5.461   1.216   6.595 -1.4034 -2.9029  0.2749
   77SLPC  H11B 6947   5.605   1.143   6.653 -1.9119 -0.3756  0.4129
   77SLPC     P 6948   5.618   0.927   6.463 -0.0467  0.1841 -0.0525
   77SLPC   O13 6949   5.564   0.862   6.344  0.5073 -0.5800 -0.2826
   77SLPC   O14 6950   5.758   0.977   6.463  0.0628  0.0386 -0.0667
   77SLPC   O12 6951   5.517   1.039   6.500 -0.0569 -0.3459  0.3416
   77SLPC   O11 6952   5.616   0.833   6.587  0.3129  0.2598  0.3932
   77SLPC    C1 6953   5.498   0.810   6.656  0.2570  0.5710 -0.2631
   77SLPC    HA 6954   5.406   0.865   6.625 -0.3614 -0.2093  0.1593
   77SLPC    HB 6955   5.472   0.705   6.630  1.6316  0.1031  0.1610
   77SLPC    C2 6956   5.533   0.801   6.811 -0.5271  0.0638 -0.9199
   77SLPC    HS 6957   5.456   0.744   6.867  0.4301  0.1073  0.4939
   77SLPC   O21 6958   5.536   0.938   6.860 -0.3543 -0.3369 -0.2620
   77SLPC   C21 6959   5.425   1.016   6.872 -0.8394 -0.3244  0.1880
   77SLPC   O22 6960   5.313   0.976   6.842  0.1247  0.2303 -0.1919
   77SLPC   C22 6961   5.459   1.160   6.916 -0.3872 -0.5795 -0.1745
   77SLPC   H2R 6962   5.560   1.158   6.962 -0.3599 -4.3939 -0.1298
   77SLPC   H2S 6963   5.448   1.234   6.833 -1.7272 -0.0177  0.4902
   77SLPC    C3 6964   5.669   0.731   6.834  0.2325  0.4714  0.0942
   77SLPC    HX 6965   5.747   0.809   6.820  0.1685  0.1747 -2.5079
   77SLPC    HY 6966   5.668   0.649   6.759 -0.5119  0.9258 -0.4069
   77SLPC   O31 6967   5.661   0.668   6.959 -0.0751 -0.0935  0.3752
   77SLPC   C31 6968   5.783   0.640   7.012  0.5099  0.8816 -0.0558
   77SLPC   O32 6969   5.889   0.646   6.956 -0.1281  0.3804 -0.0978
   77SLPC   C32 6970   5.757   0.606   7.157 -0.0017 -0.5948 -0.0120
   77SLPC   H2X 6971   5.847   0.572   7.212  0.3123  1.9860  1.2361
   77SLPC   H2Y 6972   5.684   0.522   7.156 -1.1204  0.2864  1.6045
   77SLPC   C23 6973   5.360   1.188   7.030 -0.2562  0.2502  0.4290
   77SLPC   H3R 6974   5.256   1.187   6.991 -1.0374  1.6336  2.3361
   77SLPC   H3S 6975   5.378   1.288   7.074 -1.8989  1.2289 -0.9964
   77SLPC   C24 6976   5.382   1.092   7.154  0.4945 -0.0532  0.1867
   77SLPC   H4R 6977   5.492   1.108   7.163  1.0850 -2.1922 -2.1201
   77SLPC   H4S 6978   5.368   0.985   7.125  0.2546  0.1603 -0.5107
   77SLPC   C25 6979   5.298   1.132   7.280  0.1751  0.6836  0.1774
   77SLPC   H5R 6980   5.193   1.105   7.258 -0.1155  0.1622  2.0561
   77SLPC   H5S 6981   5.301   1.241   7.298  1.7206  0.5827  0.6492
   77SLPC   C26 6982   5.348   1.066   7.409 -0.7504 -0.3638 -0.7402
   77SLPC   H6R 6983   5.450   1.102   7.434 -1.2224  1.4433 -1.2933
   77SLPC   H6S 6984   5.353   0.958   7.383  0.2590  0.2576 -3.4563
   77SLPC   C27 6985   5.250   1.109   7.531 -0.9185 -0.3135 -0.2977
   77SLPC   H7R 6986   5.148   1.067   7.519 -2.5153  2.7615  1.3556
   77SLPC   H7S 6987   5.248   1.218   7.508 -3.1580 -0.1894  0.2468
   77SLPC   C28 6988   5.307   1.086   7.665  0.0222  0.3397 -0.1701
   77SLPC   H8R 6989   5.273   1.174   7.723 -0.7643  0.9560 -1.5202
   77SLPC   H8S 6990   5.418   1.097   7.665 -0.1166  1.9811  0.0659
   77SLPC   C29 6991   5.268   0.952   7.730 -0.5222  0.4583  0.3049
   77SLPC   H9R 6992   5.266   0.862   7.666 -1.8309 -0.4758  1.6031
   77SLPC  C210 6993   5.236   0.939   7.858  0.8618  0.1946 -0.3679
   77SLPC  H10R 6994   5.221   0.836   7.892  3.1900 -1.1577 -2.9737
   77SLPC  C211 6995   5.233   1.044   7.962  0.4482  0.0033  0.0187
   77SLPC  H11R 6996   5.142   1.039   8.025 -0.8453  0.6401 -1.7314
   77SLPC  H11S 6997   5.228   1.146   7.918  1.6684 -0.0625 -0.3220
   77SLPC  C212 6998   5.361   1.049   8.042  0.0011  0.4569  0.0072
   77SLPC  H12R 6999   5.449   1.026   7.981  1.2954 -2.4173  2.6926
   77SLPC  C213 7000   5.374   1.065   8.173 -0.2658  0.5411 -0.9075
   77SLPC  H13R 7001   5.474   1.069   8.220 -0.3921 -1.8796 -0.3042
   77SLPC  C214 7002   5.269   1.067   8.280  0.4255  0.0564  0.1393
   77SLPC  H14R 7003   5.174   1.020   8.247 -1.0599  2.8115  0.1890
   77SLPC  H14S 7004   5.232   1.172   8.282  0.4727  0.1168 -1.1210
   77SLPC  C215 7005   5.312   1.020   8.420 -0.9143  0.6591 -0.2936
   77SLPC  H15R 7006   5.406   1.066   8.455 -0.4971 -0.4655  0.1159
   77SLPC  H15S 7007   5.345   0.914   8.412 -1.3429  0.6302 -2.1966
   77SLPC  C216 7008   5.193   1.024   8.513 -0.9501  1.4044  0.3240
   77SLPC  H16R 7009   5.222   0.958   8.598 -0.5214  1.6785  0.3951
   77SLPC  H16S 7010   5.114   0.974   8.452  2.6031 -0.7833 -2.9503
   77SLPC  C217 7011   5.157   1.163   8.553  0.0061  0.1710 -0.2287
   77SLPC  H17R 7012   5.092   1.198   8.470 -0.7279 -1.8032 -0.5400
   77SLPC  H17S 7013   5.246   1.228   8.568 -1.6109  2.8500 -1.4617
   77SLPC  C218 7014   5.086   1.170   8.693 -0.2961  0.1464  0.3792
   77SLPC  H18R 7015   4.987   1.123   8.674 -0.2472 -0.1320  0.8097
   77SLPC  H18S 7016   5.081   1.277   8.721  0.7390 -0.0715  1.4628
   77SLPC  H18T 7017   5.141   1.125   8.778 -0.4453  1.7570  1.3695
   77SLPC   C33 7018   5.693   0.722   7.236 -0.4144 -0.4717  0.3185
   77SLPC   H3X 7019   5.616   0.771   7.173  0.5273 -0.4378 -0.8345
   77SLPC   H3Y 7020   5.765   0.803   7.261 -2.3911  1.0053  1.6568
   77SLPC   C34 7021   5.628   0.683   7.370  0.4011 -0.4512 -0.2174
   77SLPC   H4X 7022   5.635   0.574   7.392 -1.5952 -0.1827  2.2043
   77SLPC   H4Y 7023   5.521   0.706   7.350  0.8961  0.8971 -1.4181
   77SLPC   C35 7024   5.677   0.770   7.487  0.5779 -0.9958  0.1659
   77SLPC   H5X 7025   5.656   0.874   7.452  0.9035 -0.8907  0.2782
   77SLPC   H5Y 7026   5.787   0.764   7.501  0.4767 -1.2148  0.8742
   77SLPC   C36 7027   5.604   0.742   7.615  0.2053  1.3151 -0.0738
   77SLPC   H6X 7028   5.622   0.633   7.631 -1.5461  0.8115 -1.3443
   77SLPC   H6Y 7029   5.496   0.764   7.609  0.3618  3.0509  2.0626
   77SLPC   C37 7030   5.645   0.833   7.736  0.1930  0.1081 -0.1019
   77SLPC   H7X 7031   5.599   0.933   7.723 -0.0655 -0.0553 -0.4812
   77SLPC   H7Y 7032   5.755   0.836   7.745  0.2192  2.6310 -0.5743
   77SLPC   C38 7033   5.584   0.778   7.871 -0.0720  0.4510  0.7871
   77SLPC   H8X 7034   5.595   0.669   7.886  0.2374 -0.0585 -2.4699
   77SLPC   H8Y 7035   5.476   0.802   7.860 -0.9137 -2.8327  0.9982
   77SLPC   C39 7036   5.639   0.835   8.000 -0.2161  0.0937  0.2627
   77SLPC   H9X 7037   5.613   0.940   8.021 -0.6589  0.5185 -2.1335
   77SLPC   H9Y 7038   5.750   0.844   7.993 -0.1431 -1.6191 -3.2353
   77SLPC  C310 7039   5.608   0.750   8.124 -0.4010 -0.4951  0.4350
   77SLPC  H10X 7040   5.656   0.651   8.112  1.8279  0.5196  0.5044
   77SLPC  H10Y 7041   5.497   0.738   8.120 -0.4464 -0.2043  0.7934
   77SLPC  C311 7042   5.656   0.808   8.261 -0.8629  0.6405  0.6753
   77SLPC  H11X 7043   5.614   0.747   8.343 -2.0006  0.5507  0.0512
   77SLPC  H11Y 7044   5.631   0.916   8.271 -1.8218  0.9313 -3.3032
   77SLPC  C312 7045   5.814   0.797   8.267  0.4422  0.0754 -0.3563
   77SLPC  H12X 7046   5.852   0.860   8.183 -0.3084 -1.7960 -2.1749
   77SLPC  H12Y 7047   5.866   0.699   8.254  2.8513  0.9740  1.6760
   77SLPC  C313 7048   5.871   0.865   8.401 -0.0688  0.1951 -0.2838
   77SLPC  H13X 7049   5.795   0.854   8.481  0.7829  1.1637  0.6743
   77SLPC  H13Y 7050   5.885   0.974   8.386  2.5246 -0.1180 -0.4773
   77SLPC  C314 7051   6.009   0.803   8.443  0.5489 -0.2038  0.3010
   77SLPC  H14X 7052   6.058   0.761   8.353 -0.3236 -1.3285  0.3266
   77SLPC  H14Y 7053   5.996   0.718   8.514 -0.8669 -0.7543 -0.5666
   77SLPC  C315 7054   6.109   0.904   8.494 -0.0349 -0.1139  0.0996
   77SLPC  H15X 7055   6.070   0.938   8.593 -3.0777  1.0130 -1.3696
   77SLPC  H15Y 7056   6.109   0.985   8.418  2.5806  0.9609  1.1123
   77SLPC  C316 7057   6.252   0.861   8.506 -0.6308 -0.0825  0.0553
   77SLPC  H16X 7058   6.299   0.810   8.419  2.4736  0.7786  1.0910
   77SLPC  H16Y 7059   6.260   0.791   8.591 -0.9621  1.9851  1.8763
   77SLPC  C317 7060   6.356   0.972   8.536 -0.5535  0.0162 -0.3020
   77SLPC  H17X 7061   6.328   1.026   8.629  0.4187  0.3647 -0.1949
   77SLPC  H17Y 7062   6.360   1.047   8.454 -2.8586 -0.6057 -1.0707
   77SLPC  C318 7063   6.501   0.920   8.558  0.0666  0.8901 -0.0030
   77SLPC  H18X 7064   6.545   0.865   8.472  1.3845  1.5274  0.2464
   77SLPC  H18Y 7065   6.515   0.856   8.647  1.3338  1.1241 -0.0135
   77SLPC  H18Z 7066   6.574   1.003   8.572  2.7624 -1.1944 -0.8098
   78SLPC     N 7067   2.277   3.790   6.115 -0.1792  0.4544  0.0063
   78SLPC   C13 7068   2.412   3.855   6.065  0.3626  0.3797 -0.6901
   78SLPC  H13A 7069   2.491   3.838   6.137 -0.1027  1.1188  0.0157
   78SLPC  H13B 7070   2.426   3.791   5.979 -2.0874  1.5275 -2.0351
   78SLPC  H13C 7071   2.391   3.958   6.040  0.4132  0.4873 -0.3020
   78SLPC   C14 7072   2.286   3.642   6.114  0.0179  0.1282  0.3636
   78SLPC  H14A 7073   2.285   3.625   6.007  1.5629  1.0719  0.1656
   78SLPC  H14B 7074   2.378   3.606   6.158 -1.0314  0.4795  3.0729
   78SLPC  H14C 7075   2.201   3.595   6.162 -0.1182 -1.2802 -1.1506
   78SLPC   C15 7076   2.173   3.826   6.020  0.1187  0.4851 -0.1491
   78SLPC  H15A 7077   2.078   3.787   6.053  0.2860 -0.2143 -0.4852
   78SLPC  H15B 7078   2.153   3.933   6.013 -0.3980  0.4182  0.2392
   78SLPC  H15C 7079   2.197   3.800   5.918 -0.6865 -1.8151  0.1819
   78SLPC   C12 7080   2.250   3.835   6.250  0.0708  0.0110 -0.3184
   78SLPC  H12A 7081   2.240   3.942   6.242  1.0386  0.1687  0.4094
   78SLPC  H12B 7082   2.336   3.825   6.314  0.6665 -0.5599 -1.1835
   78SLPC   C11 7083   2.120   3.780   6.317  0.2226 -0.6461 -0.3125
   78SLPC  H11A 7084   2.100   3.842   6.408  1.4065 -0.7753  0.0536
   78SLPC  H11B 7085   2.138   3.677   6.356  0.1821 -0.4478  0.2525
   78SLPC     P 7086   1.907   3.673   6.214  0.0670 -0.1979 -0.1941
   78SLPC   O13 7087   1.782   3.716   6.147 -0.1289  0.4975 -0.4470
   78SLPC   O14 7088   1.978   3.551   6.158 -0.3270 -0.3062  0.4964
   78SLPC   O12 7089   2.001   3.798   6.229 -0.1172  0.0058 -0.4645
   78SLPC   O11 7090   1.873   3.640   6.366 -0.0285  0.2239 -0.4385
   78SLPC    C1 7091   1.785   3.734   6.432  0.0100  0.0491  0.6493
   78SLPC    HA 7092   1.781   3.833   6.381 -0.3629 -0.9848 -1.4333
   78SLPC    HB 7093   1.683   3.689   6.430 -0.0364  0.1160 -2.3651
   78SLPC    C2 7094   1.826   3.745   6.579  0.8741 -1.0607  0.3064
   78SLPC    HS 7095   1.919   3.806   6.575 -0.5368  1.1753 -0.4586
   78SLPC   O21 7096   1.831   3.618   6.640  0.4387 -0.3021 -0.5429
   78SLPC   C21 7097   1.961   3.577   6.667  0.3950 -0.2444  0.0618
   78SLPC   O22 7098   2.061   3.632   6.625 -0.0388  0.4295  0.1543
   78SLPC   C22 7099   1.959   3.437   6.731 -0.6467 -0.4330  0.5392
   78SLPC   H2R 7100   1.922   3.376   6.646  1.3760  1.0976 -1.5672
   78SLPC   H2S 7101   2.066   3.411   6.745 -0.6546 -0.1663  1.1441
   78SLPC    C3 7102   1.714   3.829   6.657 -0.3045 -0.4837 -0.4434
   78SLPC    HX 7103   1.625   3.765   6.672  0.1676 -0.7648  1.5081
   78SLPC    HY 7104   1.691   3.917   6.592  1.7334 -0.1774 -0.8110
   78SLPC   O31 7105   1.772   3.885   6.771  0.5879 -0.1333  0.6168
   78SLPC   C31 7106   1.734   3.836   6.892 -1.0033  0.0445  0.4344
   78SLPC   O32 7107   1.660   3.739   6.911  0.2433 -0.0599 -0.1821
   78SLPC   C32 7108   1.787   3.924   7.003 -0.3046  0.1188  0.0449
   78SLPC   H2X 7109   1.706   3.992   7.039 -0.6480 -0.7019  0.8745
   78SLPC   H2Y 7110   1.866   3.989   6.959 -0.0079  0.0620  0.4877
   78SLPC   C23 7111   1.881   3.419   6.861 -0.1631 -0.0503 -0.0774
   78SLPC   H3R 7112   1.821   3.326   6.849 -0.1017 -0.6805  3.4982
   78SLPC   H3S 7113   1.801   3.495   6.869  0.6514  0.8837 -0.5160
   78SLPC   C24 7114   1.978   3.417   6.984  0.2900 -0.1753 -0.4585
   78SLPC   H4R 7115   2.037   3.509   6.965  1.0802 -0.7525 -0.8655
   78SLPC   H4S 7116   2.051   3.334   6.978  0.9054  0.3154  0.0877
   78SLPC   C25 7117   1.904   3.415   7.118  0.3410 -0.4233  0.0179
   78SLPC   H5R 7118   1.850   3.318   7.115  0.4179 -0.5001  0.8488
   78SLPC   H5S 7119   1.836   3.501   7.135 -1.6388 -1.5956 -1.4892
   78SLPC   C26 7120   2.002   3.406   7.236 -0.3198 -1.2549  0.7368
   78SLPC   H6R 7121   2.037   3.511   7.244 -1.1615 -0.8043 -1.0397
   78SLPC   H6S 7122   2.090   3.341   7.217 -0.1358 -0.3718 -1.8408
   78SLPC   C27 7123   1.943   3.357   7.366  0.1672  0.5610 -0.3536
   78SLPC   H7R 7124   1.892   3.259   7.350  0.3440  0.2331  0.9308
   78SLPC   H7S 7125   1.871   3.427   7.413  0.8428  1.4571 -0.6415
   78SLPC   C28 7126   2.042   3.324   7.485 -0.7555  0.4096  0.4152
   78SLPC   H8R 7127   2.104   3.414   7.506  1.1380 -0.9166  0.7882
   78SLPC   H8S 7128   2.108   3.245   7.443 -0.5065  1.9835 -2.3517
   78SLPC   C29 7129   1.988   3.279   7.618 -0.6638  0.7489  0.1665
   78SLPC   H9R 7130   1.889   3.234   7.603 -1.3897  2.3579  0.0141
   78SLPC  C210 7131   2.043   3.281   7.742 -0.9941  0.1191  0.3511
   78SLPC  H10R 7132   1.980   3.247   7.826 -1.6612 -0.5373 -0.4048
   78SLPC  C211 7133   2.183   3.330   7.787  0.2508  0.2477 -0.2300
   78SLPC  H11R 7134   2.235   3.371   7.698 -0.3436 -0.9179 -1.1425
   78SLPC  H11S 7135   2.251   3.251   7.826 -0.0121 -0.5251 -1.2925
   78SLPC  C212 7136   2.163   3.432   7.891  0.4278 -0.7182  0.8670
   78SLPC  H12R 7137   2.175   3.539   7.869 -1.8021  0.2921  3.9574
   78SLPC  C213 7138   2.156   3.408   8.020  0.1985 -0.6389  0.0836
   78SLPC  H13R 7139   2.147   3.491   8.092  1.6548  0.2812 -0.7543
   78SLPC  C214 7140   2.155   3.274   8.091 -0.6543 -0.7670 -0.3486
   78SLPC  H14R 7141   2.230   3.272   8.173  0.2718  1.3413 -1.0633
   78SLPC  H14S 7142   2.167   3.189   8.021 -0.6474 -1.0377 -0.0210
   78SLPC  C215 7143   2.016   3.249   8.146  0.4162  0.3855 -0.1469
   78SLPC  H15R 7144   1.934   3.258   8.072  0.7614 -0.5190 -0.6523
   78SLPC  H15S 7145   2.006   3.315   8.235  2.2519  1.1742 -0.4768
   78SLPC  C216 7146   2.011   3.097   8.195 -0.1753 -0.1247 -0.3523
   78SLPC  H16R 7147   2.113   3.076   8.232  0.6087  1.0922 -1.7193
   78SLPC  H16S 7148   1.995   3.036   8.104 -1.3554 -3.4801  1.9100
   78SLPC  C217 7149   1.900   3.063   8.300 -0.2180  0.7654 -0.0105
   78SLPC  H17R 7150   1.803   3.074   8.247 -0.3249  1.0098  0.2307
   78SLPC  H17S 7151   1.897   3.132   8.388 -1.1888 -1.2575  1.6281
   78SLPC  C218 7152   1.905   2.923   8.351  0.6335  0.6270  0.5039
   78SLPC  H18R 7153   1.811   2.897   8.403 -0.9395  1.9748 -1.5341
   78SLPC  H18S 7154   1.993   2.915   8.420  1.6567  0.7594 -0.7473
   78SLPC  H18T 7155   1.922   2.846   8.272  2.7497 -1.2831  2.6321
   78SLPC   C33 7156   1.839   3.840   7.130 -0.3496 -0.1712  0.4885
   78SLPC   H3X 7157   1.909   3.758   7.102  0.3943  0.3351  0.8180
   78SLPC   H3Y 7158   1.753   3.792   7.181  0.3946  0.9145  2.9056
   78SLPC   C34 7159   1.901   3.938   7.227 -0.3695  0.1432  0.6544
   78SLPC   H4X 7160   1.821   3.993   7.282 -1.6885  0.3641 -1.3942
   78SLPC   H4Y 7161   1.960   4.018   7.177 -0.0444  0.4988  1.5748
   78SLPC   C35 7162   1.980   3.878   7.338 -0.3683 -0.0829 -0.0300
   78SLPC   H5X 7163   2.039   3.960   7.385 -1.3947  1.9531 -2.1281
   78SLPC   H5Y 7164   2.054   3.814   7.286  0.3191  0.7270 -0.0828
   78SLPC   C36 7165   1.907   3.806   7.454  0.5979 -0.5641 -0.2539
   78SLPC   H6X 7166   1.859   3.711   7.421  0.2479 -1.0957  1.6930
   78SLPC   H6Y 7167   1.826   3.878   7.478  1.3755 -0.0296  0.8152
   78SLPC   C37 7168   1.998   3.776   7.573 -0.3660 -0.5210 -0.3825
   78SLPC   H7X 7169   2.083   3.847   7.576 -1.1754  0.4263  1.8082
   78SLPC   H7Y 7170   2.048   3.679   7.549  2.8665 -0.0064  3.3617
   78SLPC   C38 7171   1.922   3.765   7.710 -0.0533  0.0945  0.2556
   78SLPC   H8X 7172   1.984   3.709   7.783  0.3857  1.3076  0.8408
   78SLPC   H8Y 7173   1.837   3.697   7.687  0.3492 -0.4081  0.2559
   78SLPC   C39 7174   1.855   3.886   7.768  0.0154 -0.1316 -0.6181
   78SLPC   H9X 7175   1.798   3.849   7.856 -0.8750  1.1792 -0.6234
   78SLPC   H9Y 7176   1.800   3.944   7.691  1.1580  0.8801 -0.7063
   78SLPC  C310 7177   1.966   3.983   7.826 -0.1865  0.0702 -0.4856
   78SLPC  H10X 7178   1.917   4.074   7.865 -0.4598 -0.8817  1.5028
   78SLPC  H10Y 7179   2.038   4.004   7.744  0.1272 -0.1669 -0.2756
   78SLPC  C311 7180   2.055   3.920   7.932 -0.1165 -0.1047 -0.0139
   78SLPC  H11X 7181   2.119   4.000   7.974 -0.3105  0.1155 -0.1375
   78SLPC  H11Y 7182   2.115   3.852   7.867  1.3613 -0.4149  1.6168
   78SLPC  C312 7183   1.985   3.852   8.050 -0.1662 -0.2283  0.0140
   78SLPC  H12X 7184   2.064   3.805   8.114 -0.9329 -0.8993  0.4858
   78SLPC  H12Y 7185   1.933   3.761   8.015 -0.9956 -0.1803  1.0706
   78SLPC  C313 7186   1.900   3.942   8.120  0.3382  0.0978  0.1125
   78SLPC  H13X 7187   1.820   3.878   8.163 -2.2726  3.2141  0.2934
   78SLPC  H13Y 7188   1.856   4.011   8.045 -0.1828  0.6311  0.8923
   78SLPC  C314 7189   1.967   4.020   8.232  0.2053  0.3818 -0.5000
   78SLPC  H14X 7190   2.009   4.113   8.189  1.2515 -0.1949 -0.7501
   78SLPC  H14Y 7191   2.047   3.964   8.285  0.8814  2.6302  1.0113
   78SLPC  C315 7192   1.866   4.080   8.337 -0.3010  0.5000  0.3913
   78SLPC  H15X 7193   1.806   4.157   8.284  1.4252  1.7838  0.2115
   78SLPC  H15Y 7194   1.925   4.139   8.409 -0.3562  0.3836  0.5328
   78SLPC  C316 7195   1.770   3.983   8.411  0.4321  0.1254  0.1217
   78SLPC  H16X 7196   1.829   3.892   8.437  0.6688  0.5892  1.2755
   78SLPC  H16Y 7197   1.696   3.945   8.338  0.7666  1.3803 -0.9190
   78SLPC  C317 7198   1.692   4.035   8.535  0.1047  0.0887 -0.0566
   78SLPC  H17X 7199   1.640   4.129   8.508 -0.5951  0.0616  1.1183
   78SLPC  H17Y 7200   1.774   4.068   8.603  1.8853  1.2005 -2.6119
   78SLPC  C318 7201   1.585   3.941   8.584 -0.0326 -0.8580  0.1779
   78SLPC  H18X 7202   1.573   3.951   8.694  0.1167  1.0289  0.0465
   78SLPC  H18Y 7203   1.604   3.832   8.567 -3.3566 -1.7523  1.4093
   78SLPC  H18Z 7204   1.492   3.947   8.523  0.3541  0.8481 -0.2989
   79SLPC     N 7205   6.546   4.640   6.105  0.0602 -0.9468 -0.2223
   79SLPC   C13 7206   6.680   4.678   6.052 -0.8036  0.4074 -0.2462
   79SLPC  H13A 7207   6.752   4.599   6.062  0.1863  1.1199 -1.4703
   79SLPC  H13B 7208   6.668   4.684   5.945  0.2177  0.0416 -0.3893
   79SLPC  H13C 7209   6.714   4.774   6.088 -0.0863  1.2096 -2.8025
   79SLPC   C14 7210   6.520   4.496   6.081  0.0458 -0.3696 -0.1391
   79SLPC  H14A 7211   6.589   4.438   6.141  0.8915  2.5542  1.9610
   79SLPC  H14B 7212   6.420   4.467   6.105  0.2575 -0.8809  0.1283
   79SLPC  H14C 7213   6.534   4.472   5.977 -0.0945 -1.2447  0.0377
   79SLPC   C15 7214   6.447   4.706   6.026  0.0854 -0.3371  0.1197
   79SLPC  H15A 7215   6.345   4.675   6.042 -0.8601  0.5794 -3.3390
   79SLPC  H15B 7216   6.448   4.814   6.030  1.5029 -0.3301  0.0011
   79SLPC  H15C 7217   6.455   4.692   5.919 -1.6922 -1.6922  0.1052
   79SLPC   C12 7218   6.536   4.673   6.250  0.3788 -0.2554 -1.3544
   79SLPC  H12A 7219   6.624   4.641   6.304 -0.1992  1.4286  0.7245
   79SLPC  H12B 7220   6.457   4.620   6.300 -0.6184  1.3513 -1.1445
   79SLPC   C11 7221   6.520   4.826   6.284  0.2934 -0.4099  0.0498
   79SLPC  H11A 7222   6.516   4.822   6.395 -0.2208 -0.1083  0.0459
   79SLPC  H11B 7223   6.426   4.875   6.252  1.3224  0.5963 -1.6116
   79SLPC     P 7224   6.768   4.926   6.296 -0.2379  0.5522 -0.3221
   79SLPC   O13 7225   6.871   4.915   6.186 -0.1150  0.3764 -0.3859
   79SLPC   O14 7226   6.766   5.047   6.383 -0.3202  0.0291 -0.4739
   79SLPC   O12 7227   6.628   4.916   6.229  0.2145  0.6714  0.1277
   79SLPC   O11 7228   6.768   4.789   6.374 -0.3128 -0.3380  0.2951
   79SLPC    C1 7229   6.893   4.736   6.430 -0.1598 -1.0739 -0.5992
   79SLPC    HA 7230   6.900   4.631   6.395  1.5958 -0.8328 -1.0884
   79SLPC    HB 7231   6.981   4.785   6.383 -0.4032  0.1731  0.2083
   79SLPC    C2 7232   6.890   4.751   6.585 -0.0073  0.2415  0.6832
   79SLPC    HS 7233   6.801   4.697   6.626 -1.6425 -1.8193 -4.7230
   79SLPC   O21 7234   6.889   4.887   6.625  0.5728 -0.5457 -0.0404
   79SLPC   C21 7235   6.808   4.920   6.721 -0.0147  0.1659 -0.0423
   79SLPC   O22 7236   6.741   4.841   6.786 -0.1240  0.2546  0.2465
   79SLPC   C22 7237   6.828   5.064   6.755 -0.3876  0.1517  0.6676
   79SLPC   H2R 7238   6.924   5.110   6.722 -0.2322  0.3851  1.4147
   79SLPC   H2S 7239   6.747   5.121   6.705 -0.6201  0.5061  1.4369
   79SLPC    C3 7240   7.006   4.681   6.666  0.4570 -0.1625  0.3300
   79SLPC    HX 7241   7.105   4.719   6.632  0.2994  0.5395  0.6330
   79SLPC    HY 7242   6.991   4.574   6.642 -0.9675 -0.0925  0.8034
   79SLPC   O31 7243   7.003   4.711   6.807 -0.4171  0.1881 -0.1551
   79SLPC   C31 7244   6.968   4.620   6.893 -0.0898  0.3184 -0.3183
   79SLPC   O32 7245   6.923   4.513   6.870 -0.2978  0.3676 -0.1162
   79SLPC   C32 7246   6.981   4.671   7.031  0.5217 -0.1556 -0.2358
   79SLPC   H2X 7247   6.929   4.769   7.029  1.7100  0.4706 -1.8929
   79SLPC   H2Y 7248   7.085   4.673   7.069  0.2910 -1.3117  0.5392
   79SLPC   C23 7249   6.823   5.086   6.907 -0.3263 -0.1190 -0.2851
   79SLPC   H3R 7250   6.772   5.004   6.961 -1.6054  0.7844 -0.0618
   79SLPC   H3S 7251   6.767   5.181   6.925  3.4691  2.2324  0.2399
   79SLPC   C24 7252   6.960   5.119   6.973  1.3119  1.0248  0.9209
   79SLPC   H4R 7253   7.018   5.194   6.915  4.4462 -0.5452  1.7601
   79SLPC   H4S 7254   7.027   5.030   6.971  0.0601  0.0759  0.0606
   79SLPC   C25 7255   6.938   5.175   7.113 -0.0890  0.0852  0.2244
   79SLPC   H5R 7256   6.844   5.232   7.126  0.5249  0.8071  1.9276
   79SLPC   H5S 7257   7.025   5.241   7.135  2.2662 -1.8294 -2.6176
   79SLPC   C26 7258   6.926   5.070   7.220  0.0170 -0.7659  0.6655
   79SLPC   H6R 7259   7.022   5.016   7.236  0.2729 -0.3297  0.6222
   79SLPC   H6S 7260   6.852   4.996   7.183 -1.6675  1.1699 -0.0164
   79SLPC   C27 7261   6.864   5.124   7.356 -0.3135  0.1648 -0.3505
   79SLPC   H7R 7262   6.755   5.142   7.348 -0.4522 -0.7600 -0.6154
   79SLPC   H7S 7263   6.912   5.223   7.374 -1.9316  1.4782 -2.6643
   79SLPC   C28 7264   6.897   5.028   7.473  0.6686 -1.0702 -0.1689
   79SLPC   H8R 7265   6.987   5.064   7.526 -0.2791 -0.9688  1.4415
   79SLPC   H8S 7266   6.931   4.927   7.439 -0.1916 -1.7444  0.9039
   79SLPC   C29 7267   6.770   5.020   7.555  0.0159 -0.4230 -0.3358
   79SLPC   H9R 7268   6.678   5.007   7.496 -0.0052  0.0510 -0.4130
   79SLPC  C210 7269   6.767   5.049   7.687  0.2153  0.6725 -0.1685
   79SLPC  H10R 7270   6.667   5.059   7.733 -0.4074 -1.1447 -0.9944
   79SLPC  C211 7271   6.884   5.091   7.769  0.0784  0.1104 -0.3707
   79SLPC  H11R 7272   6.976   5.116   7.714  0.8439  0.5756  1.0598
   79SLPC  H11S 7273   6.910   5.000   7.827  1.2455 -0.2266 -1.3872
   79SLPC  C212 7274   6.858   5.205   7.861 -0.0372 -0.1258  0.4645
   79SLPC  H12R 7275   6.863   5.303   7.810  1.2537 -0.4658 -0.1056
   79SLPC  C213 7276   6.843   5.201   7.995  0.2505  0.3182 -0.2278
   79SLPC  H13R 7277   6.818   5.292   8.050  2.3790  0.7778  0.0596
   79SLPC  C214 7278   6.840   5.071   8.076 -0.7015 -0.1277 -0.0589
   79SLPC  H14R 7279   6.941   5.042   8.113 -1.1067  1.1170  2.2533
   79SLPC  H14S 7280   6.791   4.994   8.012 -0.0099 -0.4869 -0.1676
   79SLPC  C215 7281   6.758   5.074   8.208  1.1035  0.1389 -0.0716
   79SLPC  H15R 7282   6.812   5.122   8.293  0.4817  0.4023  0.1800
   79SLPC  H15S 7283   6.756   4.966   8.234 -0.7725  0.1737  0.0178
   79SLPC  C216 7284   6.609   5.106   8.185  0.0300  0.2011 -0.1614
   79SLPC  H16R 7285   6.561   5.043   8.108  4.2888 -2.2568 -1.1050
   79SLPC  H16S 7286   6.604   5.213   8.154 -1.6462  0.3184  0.4359
   79SLPC  C217 7287   6.539   5.097   8.324  0.6689  0.6920  0.1016
   79SLPC  H17R 7288   6.599   5.151   8.400  0.9911 -2.1825  2.0720
   79SLPC  H17S 7289   6.536   4.994   8.365 -2.7546  0.6479 -0.0141
   79SLPC  C218 7290   6.396   5.145   8.311  0.0197 -0.6367  0.9515
   79SLPC  H18R 7291   6.390   5.253   8.286  2.5392 -0.7817 -0.7011
   79SLPC  H18S 7292   6.351   5.145   8.412  1.1006 -0.2888  1.4559
   79SLPC  H18T 7293   6.339   5.082   8.240 -2.2495  0.6920  1.5073
   79SLPC   C33 7294   6.891   4.598   7.138  0.1898  0.0034 -0.1586
   79SLPC   H3X 7295   6.902   4.487   7.136 -0.6201 -0.2017  2.7415
   79SLPC   H3Y 7296   6.786   4.610   7.103  0.2242  0.6075 -0.0622
   79SLPC   C34 7297   6.897   4.664   7.278 -0.0088  0.2407  0.8635
   79SLPC   H4X 7298   6.842   4.760   7.269  0.7875  0.5147 -1.9924
   79SLPC   H4Y 7299   7.004   4.685   7.296  0.4979 -2.0515  0.7789
   79SLPC   C35 7300   6.849   4.577   7.394  0.0048  0.0570  0.3695
   79SLPC   H5X 7301   6.915   4.488   7.404 -1.3941 -0.9118  1.3618
   79SLPC   H5Y 7302   6.744   4.549   7.367  0.2532 -0.0413 -0.5192
   79SLPC   C36 7303   6.839   4.659   7.530 -0.1728 -0.9503 -0.3192
   79SLPC   H6X 7304   6.737   4.632   7.563 -0.1863 -1.9467 -1.1198
   79SLPC   H6Y 7305   6.846   4.770   7.532  1.8470 -1.0237 -0.7268
   79SLPC   C37 7306   6.922   4.585   7.641  0.2440 -0.1842  0.2264
   79SLPC   H7X 7307   7.030   4.577   7.617 -0.4715 -1.1495 -3.1637
   79SLPC   H7Y 7308   6.885   4.481   7.642  3.2905 -1.3995 -1.0505
   79SLPC   C38 7309   6.905   4.637   7.782 -0.3985 -0.3633 -0.7475
   79SLPC   H8X 7310   6.910   4.547   7.847 -3.5118  0.7974  1.3308
   79SLPC   H8Y 7311   6.802   4.679   7.789 -1.2394 -2.0845 -1.9814
   79SLPC   C39 7312   7.013   4.726   7.830 -0.0862  0.6381  0.4046
   79SLPC   H9X 7313   7.004   4.824   7.778 -0.0277  0.6227  0.3656
   79SLPC   H9Y 7314   7.110   4.685   7.794 -1.1900 -0.1481 -1.8247
   79SLPC  C310 7315   7.016   4.741   7.984 -0.9290  0.2151  0.8432
   79SLPC  H10X 7316   6.974   4.646   8.024  0.6324 -0.9635 -0.2235
   79SLPC  H10Y 7317   6.946   4.823   8.010 -1.1402  0.7015 -1.1376
   79SLPC  C311 7318   7.149   4.778   8.043 -0.0268  0.1502 -0.4494
   79SLPC  H11X 7319   7.179   4.876   8.001 -0.4559 -0.2338 -1.7000
   79SLPC  H11Y 7320   7.234   4.711   8.016  1.3811  2.4713 -2.1805
   79SLPC  C312 7321   7.145   4.789   8.189  0.4700 -0.3327  0.9650
   79SLPC  H12X 7322   7.146   4.688   8.236  0.0742 -0.0136  1.6862
   79SLPC  H12Y 7323   7.049   4.837   8.218  0.8227  2.6129 -2.0722
   79SLPC  C313 7324   7.250   4.880   8.249 -0.3034  0.0915 -0.5108
   79SLPC  H13X 7325   7.289   4.939   8.164 -2.9727  0.2878 -1.6875
   79SLPC  H13Y 7326   7.338   4.814   8.267 -0.1900  0.5012  0.5253
   79SLPC  C314 7327   7.225   4.958   8.378  0.1033 -0.0066 -0.3610
   79SLPC  H14X 7328   7.324   4.979   8.425  0.2633  0.8651 -1.0677
   79SLPC  H14Y 7329   7.173   4.892   8.451  2.5768 -1.9533 -0.2301
   79SLPC  C315 7330   7.149   5.096   8.361 -0.3995  0.0120 -0.4500
   79SLPC  H15X 7331   7.043   5.068   8.344 -0.3085 -1.8939  1.5664
   79SLPC  H15Y 7332   7.190   5.126   8.262  1.2922 -1.1848 -0.1635
   79SLPC  C316 7333   7.164   5.189   8.485  0.2897  0.5604  0.2944
   79SLPC  H16X 7334   7.271   5.220   8.485  0.8872 -1.3570  1.1512
   79SLPC  H16Y 7335   7.150   5.131   8.579  2.4484 -0.9852 -0.2691
   79SLPC  C317 7336   7.077   5.310   8.487  0.2300 -0.0575  0.1162
   79SLPC  H17X 7337   6.972   5.284   8.512  0.0045  1.8359  1.3351
   79SLPC  H17Y 7338   7.078   5.357   8.386 -1.3790  1.2377  0.6622
   79SLPC  C318 7339   7.129   5.416   8.591 -0.3752  0.0243  0.0439
   79SLPC  H18X 7340   7.239   5.428   8.591 -0.3869  0.3520 -1.4348
   79SLPC  H18Y 7341   7.092   5.388   8.692 -1.1870  0.1134 -0.2189
   79SLPC  H18Z 7342   7.084   5.515   8.568 -0.3082 -0.1566 -0.8868
   80SLPC     N 7343   0.051   1.672   6.082  0.9601 -0.6466  0.2956
   80SLPC   C13 7344   0.051   1.815   6.034  0.3421 -0.2310  1.4433
   80SLPC  H13A 7345   0.053   1.823   5.926 -2.8611  0.5862  1.3372
   80SLPC  H13B 7346  -0.026   1.882   6.069  1.0137 -0.2242  2.9902
   80SLPC  H13C 7347   0.141   1.855   6.078  0.2743  1.2184  0.3192
   80SLPC   C14 7348   0.007   1.660   6.226 -0.9943 -0.1816 -0.0530
   80SLPC  H14A 7349  -0.099   1.680   6.225 -1.2735 -1.5362 -0.0382
   80SLPC  H14B 7350   0.042   1.565   6.266 -0.5622 -0.4312 -0.9986
   80SLPC  H14C 7351   0.050   1.737   6.288  0.6177 -0.7562 -0.3840
   80SLPC   C15 7352   0.196   1.637   6.070  0.1484  0.2163  0.6117
   80SLPC  H15A 7353   0.233   1.657   5.970  1.4204 -2.6424  0.4009
   80SLPC  H15B 7354   0.265   1.694   6.129 -0.0567  1.5650 -0.3941
   80SLPC  H15C 7355   0.210   1.530   6.075  1.0757  0.3876  2.0089
   80SLPC   C12 7356  -0.040   1.582   6.000  0.7078 -0.2775  0.3513
   80SLPC  H12A 7357  -0.037   1.613   5.897 -2.1298  0.4896  0.4180
   80SLPC  H12B 7358  -0.143   1.605   6.018  0.4133  0.9650 -2.4943
   80SLPC   C11 7359  -0.029   1.429   6.026  0.0955 -0.0822  0.5188
   80SLPC  H11A 7360   0.074   1.392   6.008  0.9775  1.4464  2.0718
   80SLPC  H11B 7361  -0.091   1.382   5.947 -0.9552  1.0111  0.6569
   80SLPC     P 7362  -0.076   1.254   6.218 -0.0707  0.2793 -0.5089
   80SLPC   O13 7363  -0.209   1.200   6.185 -0.1580 -0.1832  0.7365
   80SLPC   O14 7364   0.038   1.173   6.172  0.3582 -0.2861 -0.3708
   80SLPC   O12 7365  -0.075   1.393   6.157  0.0896  0.5624  0.0828
   80SLPC   O11 7366  -0.058   1.278   6.372 -0.2585  0.0627  0.2741
   80SLPC    C1 7367  -0.164   1.318   6.450 -0.2114  0.1137 -0.8733
   80SLPC    HA 7368  -0.262   1.306   6.398  1.1352 -1.1371 -3.3101
   80SLPC    HB 7369  -0.168   1.250   6.538 -1.3712  0.4346 -0.6544
   80SLPC    C2 7370  -0.164   1.468   6.505  0.7693  0.3894  0.4248
   80SLPC    HS 7371  -0.134   1.548   6.434  2.1861  0.6107  1.2504
   80SLPC   O21 7372  -0.072   1.466   6.613  0.1862 -0.4752  0.0662
   80SLPC   C21 7373   0.047   1.505   6.588  0.0291 -0.9055  0.3528
   80SLPC   O22 7374   0.084   1.561   6.487  0.0359 -0.3045  0.2881
   80SLPC   C22 7375   0.139   1.488   6.710 -0.1514 -0.6573 -0.7846
   80SLPC   H2R 7376   0.082   1.426   6.781 -0.9295  0.7827 -0.1024
   80SLPC   H2S 7377   0.234   1.439   6.678 -0.1078  0.9959 -3.5473
   80SLPC    C3 7378  -0.307   1.499   6.560 -0.0553  0.5946 -0.2644
   80SLPC    HX 7379  -0.365   1.409   6.588 -0.1416  0.7066 -0.0863
   80SLPC    HY 7380  -0.358   1.540   6.470  1.3095  0.0550 -1.3237
   80SLPC   O31 7381  -0.307   1.593   6.671 -0.2133  0.0213  0.2624
   80SLPC   C31 7382  -0.278   1.716   6.645 -0.8087  0.2624 -0.0294
   80SLPC   O32 7383  -0.255   1.765   6.538  0.1197  0.6290  0.3983
   80SLPC   C32 7384  -0.292   1.792   6.776  0.1926  0.6297 -0.1174
   80SLPC   H2X 7385  -0.390   1.844   6.781 -0.4087 -0.1523 -2.4421
   80SLPC   H2Y 7386  -0.219   1.877   6.775  0.2350  0.6188  0.8531
   80SLPC   C23 7387   0.183   1.616   6.782 -0.2790 -0.0069  0.4381
   80SLPC   H3R 7388   0.099   1.678   6.819 -1.6414 -2.2109  1.2593
   80SLPC   H3S 7389   0.242   1.674   6.709  0.3339 -0.2124  0.7669
   80SLPC   C24 7390   0.284   1.597   6.902  0.2206 -0.3492 -0.4034
   80SLPC   H4R 7391   0.338   1.693   6.918  0.5613 -0.4259 -1.0576
   80SLPC   H4S 7392   0.371   1.531   6.882  0.0894 -1.1073  1.3336
   80SLPC   C25 7393   0.203   1.537   7.014  0.9215 -0.0673  0.3138
   80SLPC   H5R 7394   0.165   1.440   6.973  1.8470  0.9466 -3.3360
   80SLPC   H5S 7395   0.122   1.610   7.034  1.3343  0.6299 -0.5053
   80SLPC   C26 7396   0.273   1.521   7.142 -0.0043  0.1092 -0.4400
   80SLPC   H6R 7397   0.311   1.617   7.183  2.1199 -0.8117 -0.1072
   80SLPC   H6S 7398   0.353   1.447   7.118 -1.4149 -0.5458 -3.7851
   80SLPC   C27 7399   0.179   1.450   7.245 -0.1763 -0.3792 -0.0154
   80SLPC   H7R 7400   0.176   1.345   7.211  1.1863 -0.7075  0.7679
   80SLPC   H7S 7401   0.077   1.493   7.239  0.1742  0.6396  0.8441
   80SLPC   C28 7402   0.243   1.457   7.386  0.7171  0.2355  0.6313
   80SLPC   H8R 7403   0.342   1.407   7.383  2.1888  2.9625  0.7440
   80SLPC   H8S 7404   0.181   1.398   7.457 -0.5793 -0.8875 -1.3347
   80SLPC   C29 7405   0.257   1.599   7.443  0.6298  0.1157 -0.1110
   80SLPC   H9R 7406   0.346   1.650   7.403  0.8385  0.1574  0.4026
   80SLPC  C210 7407   0.180   1.654   7.537  0.3799  0.1931 -0.1123
   80SLPC  H10R 7408   0.188   1.762   7.557 -1.0917  0.4338 -0.7396
   80SLPC  C211 7409   0.054   1.609   7.598 -0.5033  0.0328 -0.1675
   80SLPC  H11R 7410   0.045   1.659   7.697  1.0774 -0.4706  0.2607
   80SLPC  H11S 7411   0.053   1.498   7.609  0.3422  0.0266 -0.1049
   80SLPC  C212 7412  -0.061   1.648   7.514 -0.3013  0.7919  0.4283
   80SLPC  H12R 7413  -0.074   1.577   7.431  1.5439 -0.6232  1.2700
   80SLPC  C213 7414  -0.149   1.748   7.528 -0.0308  0.8783  0.3319
   80SLPC  H13R 7415  -0.229   1.749   7.452  2.8006 -0.6420 -2.9602
   80SLPC  C214 7416  -0.151   1.844   7.638  0.5745  0.2698  0.1094
   80SLPC  H14R 7417  -0.131   1.948   7.602 -2.2795  1.4510  1.6125
   80SLPC  H14S 7418  -0.065   1.830   7.706  1.7811  2.5827 -0.7981
   80SLPC  C215 7419  -0.280   1.841   7.718  0.0175  0.4303  0.7906
   80SLPC  H15R 7420  -0.320   1.737   7.719 -0.6430  0.6778  0.7768
   80SLPC  H15S 7421  -0.346   1.905   7.656  1.6353  0.1608 -1.3112
   80SLPC  C216 7422  -0.262   1.896   7.861  0.2712 -0.3622  0.6061
   80SLPC  H16R 7423  -0.220   1.999   7.857 -0.2982 -0.1310  0.4516
   80SLPC  H16S 7424  -0.192   1.827   7.912 -0.5100 -0.1754  1.9594
   80SLPC  C217 7425  -0.396   1.895   7.935  0.8792  0.7850 -0.2710
   80SLPC  H17R 7426  -0.447   1.800   7.906  1.7401  0.3320 -0.3435
   80SLPC  H17S 7427  -0.468   1.969   7.893 -0.7929 -0.4710  0.2633
   80SLPC  C218 7428  -0.382   1.887   8.084 -0.5804 -0.5621 -0.1207
   80SLPC  H18R 7429  -0.334   1.792   8.112  1.6110  0.4833 -0.1386
   80SLPC  H18S 7430  -0.481   1.881   8.133 -0.0763 -0.4150  0.9383
   80SLPC  H18T 7431  -0.313   1.956   8.136  0.4072 -0.8668 -0.9944
   80SLPC   C33 7432  -0.262   1.700   6.897 -0.1463  0.4133 -0.4247
   80SLPC   H3X 7433  -0.180   1.626   6.882  0.2777  0.5538  1.0589
   80SLPC   H3Y 7434  -0.355   1.642   6.916  0.9509 -1.3871 -0.2456
   80SLPC   C34 7435  -0.233   1.787   7.020 -0.6425  0.1637  0.2107
   80SLPC   H4X 7436  -0.234   1.733   7.117  1.1577  1.6683  1.1297
   80SLPC   H4Y 7437  -0.314   1.863   7.014 -1.6184 -0.7245  1.6005
   80SLPC   C35 7438  -0.098   1.858   7.015 -0.0818 -0.1222 -0.1452
   80SLPC   H5X 7439  -0.085   1.923   6.926  2.9771  0.2353  0.4726
   80SLPC   H5Y 7440  -0.019   1.780   7.014  1.4992  1.4166  1.1002
   80SLPC   C36 7441  -0.062   1.946   7.138  0.1076 -0.6023 -0.8108
   80SLPC   H6X 7442  -0.051   1.878   7.225  1.9112 -0.2206 -0.6885
   80SLPC   H6Y 7443  -0.151   2.012   7.148  0.1799 -0.5158 -0.7323
   80SLPC   C37 7444   0.058   2.039   7.119 -0.5172  0.3517  0.6216
   80SLPC   H7X 7445   0.033   2.110   7.038  1.4558  3.2037  2.3542
   80SLPC   H7Y 7446   0.144   1.981   7.080 -0.0158  0.3242  1.7397
   80SLPC   C38 7447   0.103   2.125   7.241 -1.1338 -0.4060 -0.0273
   80SLPC   H8X 7448   0.013   2.183   7.269 -1.0798 -0.6165  0.5817
   80SLPC   H8Y 7449   0.178   2.200   7.210 -0.8911 -0.3926  0.5949
   80SLPC   C39 7450   0.138   2.036   7.364  0.4042  0.0997  0.3426
   80SLPC   H9X 7451   0.209   1.953   7.342  3.0948  2.3356  0.1226
   80SLPC   H9Y 7452   0.039   1.997   7.399 -0.1052  2.1228  1.3102
   80SLPC  C310 7453   0.195   2.123   7.479 -0.2143 -0.8220  0.1057
   80SLPC  H10X 7454   0.263   2.198   7.432  1.1120 -3.1240 -1.8544
   80SLPC  H10Y 7455   0.250   2.058   7.550  0.6060  0.4413  0.6641
   80SLPC  C311 7456   0.084   2.209   7.546 -0.2748 -0.3566 -0.2555
   80SLPC  H11X 7457  -0.006   2.147   7.570  0.2890 -1.2054 -0.3148
   80SLPC  H11Y 7458   0.074   2.290   7.470  0.9912  0.0639  0.0010
   80SLPC  C312 7459   0.126   2.272   7.685  0.1209 -0.7274 -0.0055
   80SLPC  H12X 7460   0.232   2.303   7.694  0.5815 -2.0882 -0.5254
   80SLPC  H12Y 7461   0.119   2.193   7.763  0.6109  1.4336  2.3549
   80SLPC  C313 7462   0.030   2.383   7.717  0.5944  0.1827 -0.4261
   80SLPC  H13X 7463  -0.073   2.345   7.701  0.4534  0.4519 -0.1627
   80SLPC  H13Y 7464   0.051   2.461   7.641 -0.6338 -1.5860 -2.7096
   80SLPC  C314 7465   0.029   2.446   7.856 -0.3816 -0.1990  0.2871
   80SLPC  H14X 7466  -0.009   2.551   7.850  0.0418 -0.0144  0.7517
   80SLPC  H14Y 7467   0.134   2.452   7.892 -0.8715  0.8121  1.6122
   80SLPC  C315 7468  -0.047   2.366   7.964 -0.2402  0.1270 -0.0485
   80SLPC  H15X 7469  -0.071   2.268   7.917 -1.1232  0.8947 -1.2775
   80SLPC  H15Y 7470  -0.144   2.416   7.989  0.8313  2.5002 -0.3774
   80SLPC  C316 7471   0.019   2.366   8.100 -0.7689 -0.3452  0.5103
   80SLPC  H16X 7472   0.114   2.312   8.077 -1.1451 -0.9121  0.2771
   80SLPC  H16Y 7473  -0.036   2.298   8.168  0.3564  0.4174  2.2789
   80SLPC  C317 7474   0.048   2.497   8.166  0.4833  0.4499 -0.3549
   80SLPC  H17X 7475  -0.042   2.563   8.167  1.0833  1.3265 -1.6268
   80SLPC  H17Y 7476   0.140   2.544   8.124  2.6593 -3.5764 -0.5535
   80SLPC  C318 7477   0.097   2.491   8.314  0.0044  0.5629  0.0005
   80SLPC  H18X 7478   0.019   2.434   8.368 -0.7953  0.6466 -1.0337
   80SLPC  H18Y 7479   0.100   2.594   8.356 -0.0700  0.7135 -0.3567
   80SLPC  H18Z 7480   0.195   2.439   8.323 -0.1750  0.3142  0.5300
   81SAPS     N 7481   2.709   4.256  10.935 -0.1769  0.2240  0.1629
   81SAPS   HN1 7482   2.626   4.316  10.921  0.6351  0.9210 -2.1756
   81SAPS   HN2 7483   2.787   4.320  10.960 -0.2327  0.5438 -0.4579
   81SAPS   HN3 7484   2.722   4.204  10.846  0.7929 -0.1914  0.5223
   81SAPS   C12 7485   2.693   4.162  11.057 -0.5412  0.1261  0.0104
   81SAPS  H12A 7486   2.760   4.077  11.050 -1.8990 -0.9919  0.1069
   81SAPS   C13 7487   2.709   4.241  11.186 -0.9226  0.4498  0.1982
   81SAPS  O13A 7488   2.741   4.362  11.190 -0.0459 -0.0335 -0.2211
   81SAPS  O13B 7489   2.737   4.176  11.293 -0.7020 -0.3674 -0.4325
   81SAPS   C11 7490   2.556   4.091  11.063 -0.6989 -0.2100 -0.1087
   81SAPS  H11A 7491   2.480   4.170  11.083 -0.5641 -0.4517  1.4196
   81SAPS  H11B 7492   2.549   4.024  11.151 -0.3671 -1.2067 -0.8215
   81SAPS     P 7493   2.395   3.958  10.897  0.0768 -0.0471 -0.5534
   81SAPS   O13 7494   2.296   4.007  10.995 -0.3593  0.3685  0.4050
   81SAPS   O14 7495   2.370   3.982  10.753  0.1885 -0.4007 -0.1230
   81SAPS   O12 7496   2.537   4.018  10.943 -0.0435  0.6195  0.0649
   81SAPS   O11 7497   2.420   3.805  10.915  0.3847 -0.3411 -0.4019
   81SAPS    C1 7498   2.526   3.731  10.862  0.4854 -0.2534  0.2158
   81SAPS    HA 7499   2.624   3.781  10.880  0.8513 -0.4662 -1.0596
   81SAPS    HB 7500   2.516   3.630  10.908 -1.9217 -0.4537 -0.6078
   81SAPS    C2 7501   2.528   3.721  10.703 -0.4183 -0.1371 -0.4880
   81SAPS    HS 7502   2.559   3.823  10.672 -0.7043 -0.4553 -1.8624
   81SAPS   O21 7503   2.394   3.682  10.667  0.3653  0.0179 -0.5561
   81SAPS   C21 7504   2.360   3.732  10.549 -0.2744 -0.9051  0.4051
   81SAPS   O22 7505   2.434   3.778  10.464 -0.5983 -0.2003  0.6035
   81SAPS   C22 7506   2.212   3.737  10.523 -0.4731  0.2329 -0.2261
   81SAPS   H2R 7507   2.189   3.645  10.465  0.4464  1.0463 -1.9609
   81SAPS   H2S 7508   2.156   3.728  10.618 -2.6220 -0.5662 -1.5089
   81SAPS    C3 7509   2.630   3.619  10.659 -0.2376  0.8039 -0.2109
   81SAPS    HX 7510   2.614   3.528  10.720  0.5723  1.1801  0.5926
   81SAPS    HY 7511   2.725   3.661  10.698 -0.9284  1.3670  0.8933
   81SAPS   O31 7512   2.661   3.604  10.518  0.4065  0.1372  0.6866
   81SAPS   C31 7513   2.583   3.507  10.460 -1.1765 -0.1168 -0.9178
   81SAPS   O32 7514   2.497   3.446  10.513  0.4617 -0.1980 -0.0050
   81SAPS   C32 7515   2.617   3.493  10.312 -0.7725 -0.0856 -0.4835
   81SAPS   H2X 7516   2.672   3.399  10.295 -0.4205  0.2257 -1.0880
   81SAPS   H2Y 7517   2.688   3.575  10.289  0.2582 -0.5408  0.9107
   81SAPS   C23 7518   2.173   3.862  10.439  0.3061 -0.0280 -0.6176
   81SAPS   H3R 7519   2.141   3.824  10.340 -1.2413 -0.7814  0.1331
   81SAPS   H3S 7520   2.254   3.937  10.436  0.3743  0.0679  1.5994
   81SAPS   C24 7521   2.052   3.947  10.502  0.2973 -0.6733  0.4512
   81SAPS   H4R 7522   2.041   4.043  10.447  2.0672 -1.4433 -1.3368
   81SAPS   H4S 7523   2.069   3.981  10.607 -1.1503 -0.9638  0.8055
   81SAPS   C25 7524   1.927   3.869  10.497 -0.2375 -0.6182  0.1167
   81SAPS   H5R 7525   1.899   3.806  10.583  2.1022  0.8549  2.0955
   81SAPS   C26 7526   1.853   3.862  10.384 -1.0122 -0.0825 -0.4853
   81SAPS   H6R 7527   1.756   3.811  10.396 -1.1453  0.6419  2.1740
   81SAPS   C27 7528   1.869   3.933  10.244  0.2812 -0.1575  0.0907
   81SAPS   H7R 7529   1.974   3.954  10.215 -0.2432  2.0630 -0.4132
   81SAPS   H7S 7530   1.815   4.030  10.236  0.8488  0.0587 -1.2951
   81SAPS   C28 7531   1.803   3.841  10.140  0.3631 -0.6919 -0.3126
   81SAPS   H8R 7532   1.749   3.759  10.188  2.0643 -0.7145  1.6770
   81SAPS   C29 7533   1.819   3.848  10.004  0.1902 -0.0152 -0.6602
   81SAPS   H9R 7534   1.760   3.775   9.946 -1.8673  1.4116 -0.4672
   81SAPS  C210 7535   1.904   3.939   9.927 -0.5221 -0.0541  0.1336
   81SAPS  H10R 7536   1.921   4.036   9.978 -0.0418 -0.3433  0.5332
   81SAPS  H10S 7537   1.847   3.960   9.834  0.1427  0.4577 -0.1667
   81SAPS  C211 7538   2.039   3.884   9.900 -0.1778  0.5122  0.0411
   81SAPS  H11R 7539   2.105   3.867   9.986  2.2384 -0.0422 -1.8142
   81SAPS  C212 7540   2.100   3.849   9.783 -0.1600  0.2098  0.5826
   81SAPS  H12R 7541   2.207   3.828   9.793 -0.1194  0.7114  1.2284
   81SAPS  C213 7542   2.041   3.861   9.642  0.1801 -0.2550 -0.9841
   81SAPS  H13R 7543   2.123   3.866   9.567 -0.0046 -0.3865 -1.1956
   81SAPS  H13S 7544   1.975   3.950   9.645  0.4009 -0.0731  2.3563
   81SAPS  C214 7545   1.955   3.743   9.597 -0.1921 -0.8433 -0.0240
   81SAPS  H14R 7546   1.998   3.647   9.629  2.9449  0.5090  0.1749
   81SAPS  C215 7547   1.867   3.746   9.502 -0.5749  0.1847  0.0493
   81SAPS  H15R 7548   1.817   3.652   9.476 -0.9277 -0.3552  2.4142
   81SAPS  C216 7549   1.820   3.871   9.433 -0.2440 -1.2485  0.1275
   81SAPS  H16R 7550   1.910   3.934   9.417  0.4161 -2.7609 -2.8079
   81SAPS  H16S 7551   1.753   3.930   9.499  3.6682  2.3197  1.3013
   81SAPS  C217 7552   1.750   3.846   9.298  0.2893 -0.2484  0.2472
   81SAPS  H17R 7553   1.654   3.794   9.317  0.8882 -1.6231 -0.3383
   81SAPS  H17S 7554   1.811   3.777   9.236  1.4465  2.0917 -1.3774
   81SAPS  C218 7555   1.720   3.971   9.205  0.3066 -0.0291  0.7202
   81SAPS  H18R 7556   1.802   4.047   9.207 -0.0870  0.4656 -0.7736
   81SAPS  H18S 7557   1.630   4.025   9.240 -1.1573 -1.7470 -0.2567
   81SAPS  C219 7558   1.693   3.937   9.058 -0.4115  0.8891 -0.7913
   81SAPS  H19R 7559   1.608   3.866   9.054  0.7913 -0.6584 -0.0332
   81SAPS  H19S 7560   1.790   3.892   9.025 -2.1264 -2.0798 -2.1778
   81SAPS  C220 7561   1.664   4.069   8.970 -0.2992  0.5463 -0.4694
   81SAPS  H20R 7562   1.567   4.114   9.000 -1.7160 -2.6341  0.0248
   81SAPS  H20S 7563   1.660   4.036   8.864 -0.7944  2.1859 -0.9975
   81SAPS  H20T 7564   1.746   4.144   8.982  2.4346 -2.4601  1.4743
   81SAPS   C33 7565   2.493   3.502  10.220 -0.5339 -0.1281 -0.5153
   81SAPS   H3X 7566   2.424   3.586  10.244 -0.0790  0.1266 -0.0878
   81SAPS   H3Y 7567   2.435   3.408  10.234 -0.9357 -0.0118 -1.3241
   81SAPS   C34 7568   2.547   3.525  10.077 -0.7964  0.7021 -0.4202
   81SAPS   H4X 7569   2.631   3.454  10.064 -0.5207  0.4688  2.1327
   81SAPS   H4Y 7570   2.595   3.625  10.087  1.3063 -0.1877 -0.9644
   81SAPS   C35 7571   2.448   3.516   9.965 -0.1462  0.4100  0.3680
   81SAPS   H5X 7572   2.380   3.604   9.972  1.6442  1.7919  1.0115
   81SAPS   H5Y 7573   2.396   3.420   9.984  2.2271 -0.7998  1.1397
   81SAPS   C36 7574   2.501   3.495   9.824  0.2240 -0.2006 -0.1773
   81SAPS   H6X 7575   2.572   3.410   9.821  2.5813  1.6722 -1.0176
   81SAPS   H6Y 7576   2.554   3.591   9.805  0.6985 -0.2605  0.8151
   81SAPS   C37 7577   2.391   3.479   9.721 -0.5965  0.2512  0.1763
   81SAPS   H7X 7578   2.316   3.560   9.724 -1.2453 -0.3245 -0.2692
   81SAPS   H7Y 7579   2.337   3.385   9.745  0.5076 -0.3228  0.5343
   81SAPS   C38 7580   2.446   3.455   9.577  1.3662 -0.6022 -0.5746
   81SAPS   H8X 7581   2.531   3.383   9.579  0.4297 -1.7411 -0.6126
   81SAPS   H8Y 7582   2.487   3.554   9.547 -0.4340  0.2172 -0.4256
   81SAPS   C39 7583   2.342   3.413   9.474  0.1339 -0.0827 -0.1016
   81SAPS   H9X 7584   2.286   3.321   9.503 -0.2454  0.7174  1.8469
   81SAPS   H9Y 7585   2.406   3.378   9.390 -0.1380 -1.7280  0.3489
   81SAPS  C310 7586   2.226   3.506   9.428 -0.5602 -0.0257 -0.2743
   81SAPS  H10X 7587   2.161   3.547   9.509 -0.7567  1.2604 -1.0389
   81SAPS  H10Y 7588   2.161   3.450   9.359 -1.9583  0.8644  0.2735
   81SAPS  C311 7589   2.279   3.636   9.357  0.9698  0.4268 -0.1167
   81SAPS  H11X 7590   2.374   3.619   9.302  1.4294  2.2309  0.0518
   81SAPS  H11Y 7591   2.294   3.710   9.439  0.4534 -0.4815  0.8245
   81SAPS  C312 7592   2.173   3.691   9.260 -0.1150  0.2662  0.8232
   81SAPS  H12X 7593   2.072   3.682   9.305 -0.1459 -0.0906  0.6861
   81SAPS  H12Y 7594   2.167   3.634   9.164 -0.2563  0.2107  0.8650
   81SAPS  C313 7595   2.196   3.840   9.239  0.1629  0.5014 -0.2189
   81SAPS  H13X 7596   2.306   3.849   9.235  0.2930 -0.8773 -0.1366
   81SAPS  H13Y 7597   2.164   3.883   9.336 -0.5774 -4.1169  1.8014
   81SAPS  C314 7598   2.108   3.900   9.126  0.1247  0.2429 -0.1004
   81SAPS  H14X 7599   2.094   4.007   9.152 -0.1074  0.1250  0.2651
   81SAPS  H14Y 7600   2.005   3.857   9.122  0.6209 -1.1823  1.5682
   81SAPS  C315 7601   2.165   3.886   8.986  0.0632 -0.3132  0.0393
   81SAPS  H15X 7602   2.167   3.780   8.954 -1.7830  0.2604 -2.2630
   81SAPS  H15Y 7603   2.266   3.933   8.982 -0.6645  1.2788 -0.3728
   81SAPS  C316 7604   2.084   3.970   8.881 -0.4890 -0.3036  0.1970
   81SAPS  H16X 7605   2.077   4.075   8.916  3.9026  1.6233 -3.6517
   81SAPS  H16Y 7606   1.981   3.932   8.862 -0.8436  1.6771 -2.3623
   81SAPS  C317 7607   2.147   3.977   8.741  0.1969 -0.0961 -0.4608
   81SAPS  H17X 7608   2.139   3.874   8.700 -1.4738 -0.2652  0.2045
   81SAPS  H17Y 7609   2.254   3.986   8.766 -0.1205  1.4233  0.5243
   81SAPS  C318 7610   2.100   4.088   8.651 -0.2561 -0.1022  0.0990
   81SAPS  H18X 7611   1.990   4.071   8.642 -0.7078  0.5116  3.3624
   81SAPS  H18Y 7612   2.153   4.087   8.553 -0.3372  2.9465 -0.0736
   81SAPS  H18Z 7613   2.121   4.181   8.708  0.4989 -0.4114  0.3257
   82SAPS     N 7614   5.798   2.953  11.012 -0.4675  0.3156  0.3430
   82SAPS   HN1 7615   5.719   2.894  11.045  1.3985 -0.6049  3.7153
   82SAPS   HN2 7616   5.780   3.051  11.043 -0.9403  0.6050 -0.8257
   82SAPS   HN3 7617   5.783   2.945  10.910 -0.5367  1.6121  0.2357
   82SAPS   C12 7618   5.932   2.891  11.038  0.0393  0.1631  0.2217
   82SAPS  H12A 7619   6.013   2.952  11.001  0.5767 -1.8662 -2.2699
   82SAPS   C13 7620   5.961   2.860  11.189  0.4525 -0.5588  0.2984
   82SAPS  O13A 7621   5.870   2.872  11.277 -0.0725 -0.1084 -1.1781
   82SAPS  O13B 7622   6.075   2.808  11.219  0.2653 -0.3275  0.0944
   82SAPS   C11 7623   5.927   2.747  10.973 -0.2283 -0.0346 -0.4868
   82SAPS  H11A 7624   5.834   2.701  11.014 -0.8160 -0.4355 -2.1484
   82SAPS  H11B 7625   6.008   2.682  11.012  0.9784  1.1439 -0.9650
   82SAPS     P 7626   6.046   2.747  10.736 -0.0403  0.3714 -0.3065
   82SAPS   O13 7627   6.086   2.878  10.691  0.6979 -0.1624  0.7168
   82SAPS   O14 7628   6.152   2.655  10.792 -0.1142  0.2732  0.3262
   82SAPS   O12 7629   5.921   2.759  10.826 -0.3321  0.2956 -0.5986
   82SAPS   O11 7630   5.972   2.681  10.612 -0.3222 -0.0992 -0.0943
   82SAPS    C1 7631   5.902   2.556  10.631  0.7267  0.6717  0.0563
   82SAPS    HA 7632   5.960   2.478  10.577  2.7710  1.2908  1.2169
   82SAPS    HB 7633   5.893   2.519  10.735  3.0566  0.3524  0.1968
   82SAPS    C2 7634   5.758   2.559  10.561 -0.1102  0.1572 -0.2786
   82SAPS    HS 7635   5.737   2.454  10.531  1.8457  0.3956 -2.8969
   82SAPS   O21 7636   5.768   2.636  10.434  0.0474  0.1928  0.3310
   82SAPS   C21 7637   5.834   2.582  10.335 -0.0631 -0.5164  0.4604
   82SAPS   O22 7638   5.842   2.462  10.315 -0.3562  0.8134  0.5040
   82SAPS   C22 7639   5.903   2.694  10.261 -0.4070  0.3181  0.9504
   82SAPS   H2R 7640   5.859   2.796  10.262 -1.5888 -0.1796  0.8113
   82SAPS   H2S 7641   6.001   2.707  10.311  0.1628  2.5723 -0.5859
   82SAPS    C3 7642   5.639   2.615  10.650  0.3632 -0.3298  0.9196
   82SAPS    HX 7643   5.691   2.711  10.673  0.3694  0.0749 -0.6590
   82SAPS    HY 7644   5.615   2.564  10.746  0.4685 -1.2351  0.4668
   82SAPS   O31 7645   5.519   2.646  10.573 -0.2830 -0.2678 -0.2043
   82SAPS   C31 7646   5.508   2.757  10.512  0.3409  0.1767  0.0345
   82SAPS   O32 7647   5.590   2.848  10.509  0.3573  0.1192  0.0679
   82SAPS   C32 7648   5.367   2.763  10.457 -0.0972 -0.9168  0.6508
   82SAPS   H2X 7649   5.299   2.807  10.533 -0.4528 -1.5498  0.7092
   82SAPS   H2Y 7650   5.343   2.664  10.413  1.1812 -1.7227  1.6658
   82SAPS   C23 7651   5.929   2.656  10.114 -0.2278  0.1662  0.1156
   82SAPS   H3R 7652   5.982   2.558  10.107 -1.7568 -0.7867  1.2561
   82SAPS   H3S 7653   6.005   2.730  10.082  0.5170 -0.4365  0.4501
   82SAPS   C24 7654   5.813   2.673  10.016  0.2181 -0.2381 -0.5222
   82SAPS   H4R 7655   5.831   2.772   9.969 -1.2606  0.0017 -0.6350
   82SAPS   H4S 7656   5.725   2.681  10.082 -0.5121 -2.2812 -1.1785
   82SAPS   C25 7657   5.819   2.562   9.918 -0.3707  0.5218 -0.2540
   82SAPS   H5R 7658   5.818   2.460   9.959  1.5243 -0.3291 -2.0984
   82SAPS   C26 7659   5.823   2.558   9.784 -0.1556  0.6929  0.2328
   82SAPS   H6R 7660   5.834   2.458   9.739  0.2816  0.7649  0.1748
   82SAPS   C27 7661   5.831   2.670   9.691  0.1661 -0.0973  0.5824
   82SAPS   H7R 7662   5.826   2.769   9.741  3.4809 -0.2236  1.3922
   82SAPS   H7S 7663   5.751   2.671   9.614 -0.2946  0.8293  1.0592
   82SAPS   C28 7664   5.967   2.687   9.622  0.1008 -0.4691 -0.2678
   82SAPS   H8R 7665   6.052   2.636   9.670  0.6577  3.0142  2.9702
   82SAPS   C29 7666   5.988   2.772   9.517 -0.8929  0.3672  0.4229
   82SAPS   H9R 7667   6.091   2.778   9.479 -1.0222  1.6496  0.2310
   82SAPS  C210 7668   5.889   2.868   9.462  0.3327  0.1503 -0.0511
   82SAPS  H10R 7669   5.925   2.970   9.489  0.2498 -0.4013  2.4553
   82SAPS  H10S 7670   5.801   2.853   9.528  0.6114 -3.2473 -0.3117
   82SAPS  C211 7671   5.847   2.844   9.321  0.0580 -0.5119 -0.0997
   82SAPS  H11R 7672   5.748   2.799   9.305 -1.0355  1.2014  1.3629
   82SAPS  C212 7673   5.906   2.887   9.211 -0.3255 -0.1484 -0.3833
   82SAPS  H12R 7674   5.869   2.838   9.120  1.7300 -0.3514 -1.1506
   82SAPS  C213 7675   6.030   2.975   9.202  0.5797 -0.2030  0.9542
   82SAPS  H13R 7676   6.050   3.020   9.302 -0.7703  3.6730 -0.3304
   82SAPS  H13S 7677   6.007   3.061   9.136  0.6495 -0.9759 -0.0975
   82SAPS  C214 7678   6.158   2.900   9.148  0.8270  1.0529 -0.3337
   82SAPS  H14R 7679   6.195   2.818   9.212  1.6532  0.7499 -1.1660
   82SAPS  C215 7680   6.227   2.912   9.031  0.4561  0.5541 -0.6997
   82SAPS  H15R 7681   6.310   2.840   9.024 -1.2350 -1.4758 -0.7418
   82SAPS  C216 7682   6.202   3.010   8.928 -0.0302  0.2608  0.6800
   82SAPS  H16R 7683   6.269   3.097   8.940  0.3308 -0.0559  0.9877
   82SAPS  H16S 7684   6.099   3.051   8.920 -0.0440 -0.0799 -2.3576
   82SAPS  C217 7685   6.222   2.947   8.790  0.4292 -0.0255  0.1030
   82SAPS  H17R 7686   6.330   2.941   8.766  0.6068 -0.1034  0.9142
   82SAPS  H17S 7687   6.166   3.017   8.724  2.0538  1.8344  0.5985
   82SAPS  C218 7688   6.148   2.818   8.769 -0.7319 -0.4187 -0.0837
   82SAPS  H18R 7689   6.045   2.831   8.807 -0.4160 -1.4663  1.2244
   82SAPS  H18S 7690   6.192   2.734   8.828  1.5384  1.6711  1.3791
   82SAPS  C219 7691   6.136   2.756   8.625 -0.2183  0.0357  0.4446
   82SAPS  H19R 7692   6.065   2.671   8.639 -0.2395  0.2863  2.0693
   82SAPS  H19S 7693   6.233   2.712   8.595 -1.3078 -1.0819 -1.6866
   82SAPS  C220 7694   6.085   2.841   8.510 -0.5256 -0.4125  0.2197
   82SAPS  H20R 7695   6.110   2.769   8.428  1.2220  0.3534  0.0348
   82SAPS  H20S 7696   6.146   2.929   8.480  0.9142 -1.2448  0.5761
   82SAPS  H20T 7697   5.978   2.868   8.505 -0.1368  1.0138 -1.6216
   82SAPS   C33 7698   5.360   2.870  10.338 -0.3753  0.5232 -0.4158
   82SAPS   H3X 7699   5.387   2.972  10.373  0.8321 -0.2876  1.1175
   82SAPS   H3Y 7700   5.253   2.879  10.310 -0.7855  1.5388  1.3659
   82SAPS   C34 7701   5.444   2.830  10.214  0.2565  0.3567  0.3991
   82SAPS   H4X 7702   5.465   2.721  10.216  0.6651  0.4294  0.2509
   82SAPS   H4Y 7703   5.541   2.885  10.219  0.6754 -0.2812 -0.5111
   82SAPS   C35 7704   5.374   2.856  10.084  0.5832  0.3761 -0.1468
   82SAPS   H5X 7705   5.313   2.949  10.095  1.9193  1.0556  2.6826
   82SAPS   H5Y 7706   5.293   2.780  10.080 -0.2941  1.1950  1.1333
   82SAPS   C36 7707   5.464   2.824   9.967 -0.4158  0.0422  0.5882
   82SAPS   H6X 7708   5.514   2.727   9.982  1.3539  1.0577  1.5644
   82SAPS   H6Y 7709   5.548   2.896   9.963  0.8871 -1.1807  3.6450
   82SAPS   C37 7710   5.384   2.814   9.828 -0.3202 -0.4189  0.3056
   82SAPS   H7X 7711   5.320   2.900   9.799  0.3282 -0.6677 -2.1528
   82SAPS   H7Y 7712   5.319   2.724   9.836 -4.0854  2.0055 -0.4060
   82SAPS   C38 7713   5.475   2.777   9.711 -0.3668 -0.6143  0.6298
   82SAPS   H8X 7714   5.533   2.685   9.732  0.2795 -0.4824 -0.5343
   82SAPS   H8Y 7715   5.555   2.853   9.702  2.0197 -3.0943 -0.2495
   82SAPS   C39 7716   5.397   2.752   9.578 -0.5291  0.7159 -0.7189
   82SAPS   H9X 7717   5.331   2.836   9.547 -0.2950  0.9440 -0.6054
   82SAPS   H9Y 7718   5.346   2.654   9.584  0.2444  0.3523  0.2168
   82SAPS  C310 7719   5.499   2.735   9.459  0.2305 -1.1012 -0.2958
   82SAPS  H10X 7720   5.563   2.649   9.487 -0.4744 -1.8261 -0.8346
   82SAPS  H10Y 7721   5.570   2.818   9.439 -0.7155 -0.4772 -1.1513
   82SAPS  C311 7722   5.421   2.687   9.334 -0.9793  0.9303 -0.2122
   82SAPS  H11X 7723   5.364   2.779   9.308  0.7173  2.5938  1.6355
   82SAPS  H11Y 7724   5.343   2.615   9.367  0.2188  0.2122  1.1480
   82SAPS  C312 7725   5.509   2.632   9.225  0.1414 -0.5617  0.4477
   82SAPS  H12X 7726   5.554   2.538   9.261 -1.4468 -0.9320  1.5715
   82SAPS  H12Y 7727   5.593   2.705   9.218  1.0353 -1.4469  1.6863
   82SAPS  C313 7728   5.432   2.629   9.085  0.3526  0.7536  0.4529
   82SAPS  H13X 7729   5.334   2.582   9.111  1.1375  0.2093  2.6694
   82SAPS  H13Y 7730   5.498   2.565   9.024 -0.9235 -0.2152  0.0244
   82SAPS  C314 7731   5.408   2.778   9.036 -0.3528  0.0682  0.2583
   82SAPS  H14X 7732   5.504   2.829   9.014  0.7441 -1.5037  1.1836
   82SAPS  H14Y 7733   5.352   2.843   9.106  0.3704  2.7347 -1.4923
   82SAPS  C315 7734   5.329   2.774   8.903  0.3239  0.3998 -0.7071
   82SAPS  H15X 7735   5.225   2.738   8.920  0.3492  0.7787  0.3512
   82SAPS  H15Y 7736   5.380   2.700   8.838  3.2402  0.9634  0.7818
   82SAPS  C316 7737   5.323   2.904   8.825 -0.5106 -0.0006 -0.4094
   82SAPS  H16X 7738   5.431   2.917   8.801  0.1414 -0.5640  1.9501
   82SAPS  H16Y 7739   5.299   2.994   8.886  1.9336  0.1199  0.4942
   82SAPS  C317 7740   5.241   2.896   8.692  0.0873 -0.4937  0.2989
   82SAPS  H17X 7741   5.255   2.994   8.643  0.5216  0.3863  2.0836
   82SAPS  H17Y 7742   5.134   2.901   8.724 -0.2898 -0.6501 -0.8876
   82SAPS  C318 7743   5.264   2.787   8.591  0.1460  0.0108 -0.4112
   82SAPS  H18X 7744   5.369   2.783   8.557  0.4744 -0.2123  0.6053
   82SAPS  H18Y 7745   5.196   2.802   8.504  0.9827 -1.3497 -1.3418
   82SAPS  H18Z 7746   5.244   2.685   8.629 -2.6071 -0.3211 -2.4293
   83SAPS     N 7747   2.607   4.510  11.379  0.2143 -0.6239 -0.4574
   83SAPS   HN1 7748   2.654   4.544  11.465 -1.0437  0.4606 -0.1704
   83SAPS   HN2 7749   2.554   4.424  11.403  0.6052 -0.7195  0.0715
   83SAPS   HN3 7750   2.678   4.469  11.314  0.8116  2.9242 -2.2762
   83SAPS   C12 7751   2.521   4.617  11.310  0.6434  0.3373  0.4105
   83SAPS  H12A 7752   2.485   4.588  11.212 -1.2450  0.2705  1.0788
   83SAPS   C13 7753   2.386   4.644  11.379 -0.3288 -0.2259  0.7123
   83SAPS  O13A 7754   2.341   4.565  11.464  0.2441 -0.0162 -0.6933
   83SAPS  O13B 7755   2.314   4.737  11.338 -0.0527  0.6691 -0.1640
   83SAPS   C11 7756   2.608   4.747  11.295 -0.6704 -0.1060  0.5947
   83SAPS  H11A 7757   2.618   4.790  11.397 -0.9483  2.3144 -0.3248
   83SAPS  H11B 7758   2.536   4.808  11.237  0.1081  0.6052  0.3595
   83SAPS     P 7759   2.796   4.844  11.142  0.3740  0.0254 -0.2034
   83SAPS   O13 7760   2.828   4.945  11.241  0.9479 -0.4105 -0.0233
   83SAPS   O14 7761   2.908   4.792  11.065  0.2510 -0.1928 -0.4681
   83SAPS   O12 7762   2.724   4.730  11.223 -0.5993 -0.3235 -0.2806
   83SAPS   O11 7763   2.686   4.889  11.052  1.0371 -0.5360  0.5742
   83SAPS    C1 7764   2.605   4.809  10.963 -0.1174  0.0478  1.2956
   83SAPS    HA 7765   2.604   4.704  10.998 -0.6995 -0.4824 -0.2185
   83SAPS    HB 7766   2.503   4.852  10.965 -0.3812 -0.3727 -0.8019
   83SAPS    C2 7767   2.666   4.789  10.814 -0.2023 -0.5658 -0.1230
   83SAPS    HS 7768   2.771   4.758  10.832  1.3649  2.3054 -3.1992
   83SAPS   O21 7769   2.660   4.913  10.742  0.5837 -0.2052 -0.0708
   83SAPS   C21 7770   2.760   4.938  10.664  0.0822 -0.4671 -0.3794
   83SAPS   O22 7771   2.856   4.865  10.644  0.5928  0.1174 -0.3044
   83SAPS   C22 7772   2.731   5.053  10.573  0.2646 -1.0185 -0.3086
   83SAPS   H2R 7773   2.706   5.135  10.643 -1.3454 -0.6197 -1.2929
   83SAPS   H2S 7774   2.816   5.078  10.506 -0.0657  0.2430 -0.2732
   83SAPS    C3 7775   2.581   4.679  10.741 -0.1849 -0.3673  0.1811
   83SAPS    HX 7776   2.483   4.730  10.740  0.7661  1.5831 -0.6594
   83SAPS    HY 7777   2.584   4.594  10.812  1.6552 -0.5406 -0.0363
   83SAPS   O31 7778   2.624   4.651  10.605  0.1484 -0.4289 -0.0390
   83SAPS   C31 7779   2.700   4.546  10.579 -1.3540 -0.0776  0.0062
   83SAPS   O32 7780   2.750   4.481  10.668 -0.1835  0.0315 -0.2202
   83SAPS   C32 7781   2.713   4.525  10.429  0.1203 -0.4122 -0.3966
   83SAPS   H2X 7782   2.618   4.482  10.390 -0.5706 -0.9374  1.7382
   83SAPS   H2Y 7783   2.780   4.439  10.408 -1.0565 -0.6316 -4.1006
   83SAPS   C23 7784   2.601   5.023  10.493 -0.3931 -0.0080 -0.1336
   83SAPS   H3R 7785   2.524   4.994  10.567  0.7574  1.0146  1.5289
   83SAPS   H3S 7786   2.619   4.936  10.427  1.1473  0.2170 -0.0627
   83SAPS   C24 7787   2.551   5.149  10.428 -0.1991 -1.1457  0.2067
   83SAPS   H4R 7788   2.538   5.223  10.509  1.2895 -0.6546  0.0163
   83SAPS   H4S 7789   2.451   5.133  10.381  0.4452 -0.5189 -1.4368
   83SAPS   C25 7790   2.641   5.194  10.315 -0.6643  1.1516 -0.5239
   83SAPS   H5R 7791   2.726   5.242  10.365 -1.9598  1.8325  1.1381
   83SAPS   C26 7792   2.633   5.163  10.186  0.2196 -0.1742 -0.0301
   83SAPS   H6R 7793   2.708   5.203  10.116  2.3170  0.2358  2.3249
   83SAPS   C27 7794   2.528   5.083  10.114  0.1808 -0.0528 -0.1828
   83SAPS   H7R 7795   2.441   5.150  10.097  0.6219  0.7879  0.7196
   83SAPS   H7S 7796   2.493   5.001  10.179 -1.6429  2.5188  2.3509
   83SAPS   C28 7797   2.579   5.035   9.981  0.1111  0.0710  0.4696
   83SAPS   H8R 7798   2.660   4.963  10.001  0.2702  0.5083  1.4533
   83SAPS   C29 7799   2.543   5.062   9.853 -0.0466  0.1721  0.3126
   83SAPS   H9R 7800   2.589   5.018   9.763 -1.5398 -0.6329 -0.0873
   83SAPS  C210 7801   2.432   5.162   9.826 -0.2307 -0.2849  0.3786
   83SAPS  H10R 7802   2.482   5.261   9.836 -2.3397  0.7816  0.7603
   83SAPS  H10S 7803   2.361   5.174   9.910  0.1770  3.3345  0.3747
   83SAPS  C211 7804   2.360   5.139   9.698  0.6157 -0.1676  0.2802
   83SAPS  H11R 7805   2.262   5.089   9.705 -0.6636  1.3020 -3.8512
   83SAPS  C212 7806   2.405   5.163   9.575  0.1104  0.3784  0.4241
   83SAPS  H12R 7807   2.328   5.150   9.497  1.4880 -0.1640 -0.8898
   83SAPS  C213 7808   2.539   5.219   9.530 -0.0905  0.1045 -0.5095
   83SAPS  H13R 7809   2.609   5.218   9.616  0.8947 -2.2039 -1.2613
   83SAPS  H13S 7810   2.515   5.323   9.498 -2.1053 -0.5284 -1.1997
   83SAPS  C214 7811   2.600   5.145   9.423 -0.5216  0.1372 -0.1623
   83SAPS  H14R 7812   2.643   5.047   9.450 -1.9578 -0.4967 -0.0532
   83SAPS  C215 7813   2.592   5.165   9.294 -0.3359 -0.3773 -0.2328
   83SAPS  H15R 7814   2.625   5.091   9.220 -1.9089  0.5617 -1.9598
   83SAPS  C216 7815   2.512   5.282   9.245 -0.2842  0.1142  0.0927
   83SAPS  H16R 7816   2.553   5.377   9.284 -0.7486  2.0486 -3.6605
   83SAPS  H16S 7817   2.408   5.264   9.278 -0.3442 -0.9534 -0.6203
   83SAPS  C217 7818   2.506   5.287   9.094  0.1749  0.3529 -0.7014
   83SAPS  H17R 7819   2.474   5.389   9.063 -1.3593  0.7625  1.9132
   83SAPS  H17S 7820   2.435   5.209   9.059  0.5552 -0.0864 -0.5052
   83SAPS  C218 7821   2.638   5.262   9.018 -0.1512  1.0245 -0.0280
   83SAPS  H18R 7822   2.670   5.157   9.038 -0.5688  0.6547 -1.2407
   83SAPS  H18S 7823   2.726   5.329   9.029  2.0023 -1.1162 -2.7689
   83SAPS  C219 7824   2.603   5.242   8.868  0.5491 -0.5992 -0.2522
   83SAPS  H19R 7825   2.549   5.333   8.834  2.0782  0.4830  0.1121
   83SAPS  H19S 7826   2.527   5.161   8.857 -1.2823  1.1182 -0.8417
   83SAPS  C220 7827   2.721   5.221   8.770  0.4563  0.1452 -1.0300
   83SAPS  H20R 7828   2.769   5.127   8.802 -1.5569 -0.3604  0.7682
   83SAPS  H20S 7829   2.799   5.297   8.792 -1.6909  1.8554  1.3709
   83SAPS  H20T 7830   2.695   5.223   8.662 -1.3444 -2.4679 -0.7406
   83SAPS   C33 7831   2.761   4.647  10.341 -0.2628 -0.2497 -0.3696
   83SAPS   H3X 7832   2.817   4.723  10.401  0.6555 -0.5840 -0.7833
   83SAPS   H3Y 7833   2.672   4.706  10.312  1.2754  2.9529  0.8371
   83SAPS   C34 7834   2.836   4.597  10.221 -0.4835 -0.2539  0.1460
   83SAPS   H4X 7835   2.916   4.526  10.249  1.2120  0.8359 -1.7171
   83SAPS   H4Y 7836   2.892   4.681  10.174  0.1096 -0.5618  0.3100
   83SAPS   C35 7837   2.747   4.552  10.104  0.3122 -0.4778  0.5797
   83SAPS   H5X 7838   2.641   4.582  10.120  0.4815  0.9328 -0.6958
   83SAPS   H5Y 7839   2.759   4.447  10.070 -0.5323  0.1911 -1.9861
   83SAPS   C36 7840   2.793   4.629   9.976 -0.4505  0.4239  0.3362
   83SAPS   H6X 7841   2.902   4.609   9.970 -1.0074 -2.9189 -0.3010
   83SAPS   H6Y 7842   2.765   4.736   9.992 -1.1018  0.0891  1.5249
   83SAPS   C37 7843   2.725   4.579   9.855  0.1027  0.4184 -0.9697
   83SAPS   H7X 7844   2.614   4.583   9.856 -0.0284 -1.4894 -2.2976
   83SAPS   H7Y 7845   2.753   4.473   9.839  2.2544  0.5366  1.3426
   83SAPS   C38 7846   2.772   4.659   9.728 -0.2469  0.4961  0.3495
   83SAPS   H8X 7847   2.882   4.643   9.725 -0.1786  0.7091  1.2907
   83SAPS   H8Y 7848   2.754   4.768   9.726  2.5957  1.0358  0.8116
   83SAPS   C39 7849   2.713   4.608   9.592 -0.0889 -0.0684 -0.4360
   83SAPS   H9X 7850   2.633   4.669   9.544  0.3580 -0.6621 -2.0123
   83SAPS   H9Y 7851   2.682   4.502   9.608 -1.7204  0.5634  0.8908
   83SAPS  C310 7852   2.827   4.608   9.489  0.1125 -0.4292 -0.4264
   83SAPS  H10X 7853   2.913   4.547   9.523  0.7958 -0.7124 -2.5467
   83SAPS  H10Y 7854   2.863   4.710   9.463 -0.4902 -0.4485 -1.3596
   83SAPS  C311 7855   2.784   4.545   9.355 -0.4167  0.4894 -0.1854
   83SAPS  H11X 7856   2.697   4.600   9.314 -0.5009  0.6366  0.1871
   83SAPS  H11Y 7857   2.739   4.445   9.377  0.8974 -0.5140 -1.8534
   83SAPS  C312 7858   2.894   4.532   9.251 -0.2584 -0.0253  0.3920
   83SAPS  H12X 7859   2.982   4.472   9.282 -0.2543  0.7362  1.9725
   83SAPS  H12Y 7860   2.944   4.630   9.235  0.8496 -0.4784  0.9420
   83SAPS  C313 7861   2.848   4.491   9.113 -0.3354  0.1086 -0.2596
   83SAPS  H13X 7862   2.768   4.556   9.071 -0.4792 -1.7776 -3.2064
   83SAPS  H13Y 7863   2.791   4.396   9.110 -0.3930  0.1574 -2.2731
   83SAPS  C314 7864   2.962   4.478   9.012  0.4964 -0.2126  0.5178
   83SAPS  H14X 7865   3.040   4.405   9.044 -0.2208 -1.1832  0.0892
   83SAPS  H14Y 7866   3.010   4.578   9.020  1.4940 -0.5897 -0.4695
   83SAPS  C315 7867   2.912   4.455   8.872 -0.3670 -0.2857  0.3770
   83SAPS  H15X 7868   2.873   4.549   8.826 -0.0104 -1.1290 -1.7680
   83SAPS  H15Y 7869   2.834   4.376   8.868 -0.4608 -0.2123 -3.6358
   83SAPS  C316 7870   3.023   4.421   8.772  0.8869  0.4844 -0.1902
   83SAPS  H16X 7871   3.065   4.327   8.813  0.6411  0.8654  0.9718
   83SAPS  H16Y 7872   3.107   4.493   8.779  1.2821  0.1455 -1.3078
   83SAPS  C317 7873   2.984   4.398   8.627 -0.2833  0.1759 -0.3413
   83SAPS  H17X 7874   2.900   4.327   8.608 -0.4964  0.8249 -1.9887
   83SAPS  H17Y 7875   3.074   4.351   8.581  0.0263 -0.8856  1.2624
   83SAPS  C318 7876   2.946   4.539   8.563 -0.0447 -0.3918  0.1465
   83SAPS  H18X 7877   2.836   4.548   8.576 -0.1976 -1.8237 -0.0137
   83SAPS  H18Y 7878   2.957   4.537   8.452 -0.7511  4.0776 -0.1715
   83SAPS  H18Z 7879   3.004   4.623   8.608 -1.4947  0.0254  1.2914
   84SAPS     N 7880   1.750   1.934  10.865  0.1143  0.4024 -0.5685
   84SAPS   HN1 7881   1.849   1.904  10.852 -0.5381 -2.0517 -0.4088
   84SAPS   HN2 7882   1.691   1.888  10.792  0.2277  0.1678 -0.5131
   84SAPS   HN3 7883   1.745   2.037  10.856  0.4869  0.5632  0.8827
   84SAPS   C12 7884   1.695   1.897  10.998 -0.2639 -0.5748 -0.4698
   84SAPS  H12A 7885   1.676   1.790  10.993 -2.5461 -0.2199 -0.3203
   84SAPS   C13 7886   1.799   1.919  11.110 -0.3187  0.3930 -0.0276
   84SAPS  O13A 7887   1.913   1.971  11.080  0.4247 -0.4501  0.6484
   84SAPS  O13B 7888   1.771   1.885  11.230 -0.2747  0.2357  1.1018
   84SAPS   C11 7889   1.566   1.976  11.033 -0.0370 -0.2257  0.5764
   84SAPS  H11A 7890   1.585   2.085  11.050  0.1994 -0.0034 -0.9461
   84SAPS  H11B 7891   1.530   1.933  11.129  2.5963 -0.3987  1.5600
   84SAPS     P 7892   1.337   2.021  10.928 -0.3398 -0.5966 -0.1335
   84SAPS   O13 7893   1.262   1.910  10.996  0.1314  0.1712  0.0840
   84SAPS   O14 7894   1.336   2.153  10.995 -0.2654 -0.6433  0.4696
   84SAPS   O12 7895   1.482   1.967  10.918  0.4710  0.1161  0.1723
   84SAPS   O11 7896   1.305   2.042  10.769  0.0943 -0.1973 -0.1209
   84SAPS    C1 7897   1.379   1.976  10.666 -0.1140 -0.4405  0.7487
   84SAPS    HA 7898   1.471   2.037  10.654  0.0642 -1.0503 -1.3365
   84SAPS    HB 7899   1.404   1.870  10.690  1.5020  0.0829  1.5204
   84SAPS    C2 7900   1.312   1.993  10.528 -0.0248 -0.1211 -0.2250
   84SAPS    HS 7901   1.374   1.942  10.451 -0.0891 -1.5021  0.6133
   84SAPS   O21 7902   1.281   2.130  10.502 -0.4268 -0.7082  0.2617
   84SAPS   C21 7903   1.288   2.164  10.375 -0.1544 -0.1563 -0.7017
   84SAPS   O22 7904   1.325   2.097  10.279  0.2751 -0.7897  0.0768
   84SAPS   C22 7905   1.252   2.309  10.357  0.8311 -0.5826  0.4075
   84SAPS   H2R 7906   1.157   2.334  10.409 -0.8065 -3.2766 -1.0589
   84SAPS   H2S 7907   1.341   2.370  10.385 -0.4814  1.0662  1.2450
   84SAPS    C3 7908   1.176   1.917  10.530 -0.2115  0.5478 -0.3487
   84SAPS    HX 7909   1.104   1.978  10.589  0.7865  0.1737  1.3083
   84SAPS    HY 7910   1.189   1.816  10.574 -0.9501  0.4453 -0.3382
   84SAPS   O31 7911   1.130   1.904  10.399 -0.1741 -0.0311  0.1832
   84SAPS   C31 7912   1.189   1.808  10.324  0.0303  0.2408  0.2831
   84SAPS   O32 7913   1.271   1.729  10.367  0.0498  0.2453 -0.3062
   84SAPS   C32 7914   1.131   1.816  10.176 -0.4860  0.3969 -0.3591
   84SAPS   H2X 7915   1.064   1.904  10.166 -0.2059  0.6573  0.0070
   84SAPS   H2Y 7916   1.059   1.732  10.171  0.3485 -0.4207  0.7917
   84SAPS   C23 7917   1.216   2.336  10.207  0.3422  0.6184 -0.8532
   84SAPS   H3R 7918   1.294   2.302  10.135  0.9195 -0.9254  0.4269
   84SAPS   H3S 7919   1.192   2.443  10.190 -1.6480  0.7184  1.9292
   84SAPS   C24 7920   1.089   2.257  10.164 -0.4484  0.5518  0.6176
   84SAPS   H4R 7921   1.089   2.154  10.205 -0.7800  0.0598 -0.5786
   84SAPS   H4S 7922   1.093   2.258  10.053  0.0568 -0.8874  0.5978
   84SAPS   C25 7923   0.957   2.327  10.209 -0.1267 -0.0093 -0.0931
   84SAPS   H5R 7924   0.913   2.286  10.301  0.5568  0.3577  0.4023
   84SAPS   C26 7925   0.890   2.424  10.136 -0.6753 -0.1789 -0.5495
   84SAPS   H6R 7926   0.800   2.464  10.186  0.6318  1.1097  0.8732
   84SAPS   C27 7927   0.932   2.474  10.000  0.5273  0.5395  0.0152
   84SAPS   H7R 7928   1.008   2.405   9.958 -0.0962  0.0516 -0.3317
   84SAPS   H7S 7929   0.978   2.573  10.020  0.9475  0.3652 -0.0778
   84SAPS   C28 7930   0.810   2.479   9.913  0.6778 -0.1990 -0.2399
   84SAPS   H8R 7931   0.712   2.477   9.962  1.2779 -1.5440  0.9836
   84SAPS   C29 7932   0.821   2.480   9.780  0.5824 -0.6205 -0.4732
   84SAPS   H9R 7933   0.727   2.487   9.724  0.1154 -0.8014  0.2853
   84SAPS  C210 7934   0.954   2.480   9.698  0.4875  0.2465  0.2969
   84SAPS  H10R 7935   1.007   2.382   9.704  0.0916  0.0150  0.0231
   84SAPS  H10S 7936   1.027   2.550   9.745  0.6752  1.1088 -1.2041
   84SAPS  C211 7937   0.935   2.517   9.549 -0.7569  0.2676  0.9590
   84SAPS  H11R 7938   0.885   2.445   9.483  0.3076  0.4234 -0.0512
   84SAPS  C212 7939   0.951   2.638   9.487  0.4494 -0.3272 -0.3600
   84SAPS  H12R 7940   0.922   2.645   9.381 -0.5910  0.4507 -0.0298
   84SAPS  C213 7941   0.982   2.763   9.553 -0.7519 -0.2094  0.6419
   84SAPS  H13R 7942   1.072   2.802   9.501  1.0291  0.2770  3.7749
   84SAPS  H13S 7943   1.023   2.743   9.655  0.7457 -1.4947 -0.1661
   84SAPS  C214 7944   0.876   2.865   9.557  0.3488  0.4286 -0.1768
   84SAPS  H14R 7945   0.782   2.836   9.507  1.0490 -0.2261 -1.1338
   84SAPS  C215 7946   0.881   2.971   9.637 -0.0676 -0.4716 -0.2093
   84SAPS  H15R 7947   0.798   3.044   9.632 -1.2854 -1.8781 -2.1989
   84SAPS  C216 7948   0.998   3.004   9.721 -0.6395 -0.7256 -0.8079
   84SAPS  H16R 7949   1.033   3.107   9.698 -0.9041 -0.5686 -0.5158
   84SAPS  H16S 7950   1.084   2.933   9.719 -1.1185 -1.3105 -0.8202
   84SAPS  C217 7951   0.959   3.005   9.869  1.0405 -0.2317 -0.9431
   84SAPS  H17R 7952   0.905   3.100   9.887 -0.8779 -1.0574 -2.0312
   84SAPS  H17S 7953   1.051   3.012   9.932 -0.2517  0.4401  0.9667
   84SAPS  C218 7954   0.872   2.894   9.932  0.9320  0.7110  0.3138
   84SAPS  H18R 7955   0.912   2.798   9.893  0.9240  0.9658 -0.3458
   84SAPS  H18S 7956   0.763   2.899   9.907  1.4363  1.4794 -2.0152
   84SAPS  C219 7957   0.867   2.893  10.085  0.1567  0.5064  0.1761
   84SAPS  H19R 7958   0.965   2.856  10.123 -0.4412 -0.1860  1.0941
   84SAPS  H19S 7959   0.796   2.815  10.119 -1.9294  1.2485 -2.1629
   84SAPS  C220 7960   0.835   3.027  10.155 -0.2658  0.3821  0.3686
   84SAPS  H20R 7961   0.824   2.997  10.261 -0.5210 -1.7618 -0.2061
   84SAPS  H20S 7962   0.738   3.056  10.109 -0.4969  0.3673  0.8476
   84SAPS  H20T 7963   0.916   3.101  10.137  0.1555 -0.4398 -1.4536
   84SAPS   C33 7964   1.246   1.821  10.076 -0.4960  0.1202 -0.6970
   84SAPS   H3X 7965   1.310   1.731  10.089 -1.5230 -0.3527  1.5294
   84SAPS   H3Y 7966   1.315   1.908  10.084 -1.7465  1.1426 -0.7774
   84SAPS   C34 7967   1.191   1.819   9.937 -0.0229  0.1664  0.6383
   84SAPS   H4X 7968   1.141   1.917   9.918 -3.4317 -1.6511 -0.6635
   84SAPS   H4Y 7969   1.116   1.739   9.917  0.2269 -0.9832  3.7716
   84SAPS   C35 7970   1.295   1.810   9.825  0.3174  0.3066 -0.1518
   84SAPS   H5X 7971   1.250   1.774   9.731 -0.4876 -1.0951  0.7312
   84SAPS   H5Y 7972   1.367   1.732   9.857 -0.3359 -0.0303  0.5175
   84SAPS   C36 7973   1.376   1.939   9.793 -0.1167 -0.1998 -0.4923
   84SAPS   H6X 7974   1.465   1.934   9.860 -2.0310  0.0054  2.2143
   84SAPS   H6Y 7975   1.319   2.034   9.801 -0.0157  0.1115 -2.8313
   84SAPS   C37 7976   1.411   1.927   9.640  0.2624 -0.6002  0.5013
   84SAPS   H7X 7977   1.445   1.828   9.605 -1.9511 -1.5745  0.9524
   84SAPS   H7Y 7978   1.485   2.009   9.622  0.6203 -1.6402 -3.7244
   84SAPS   C38 7979   1.305   1.964   9.529 -0.0512  0.2303 -0.2817
   84SAPS   H8X 7980   1.274   2.067   9.555 -2.5552  0.1375 -2.4682
   84SAPS   H8Y 7981   1.223   1.889   9.544 -0.3318  0.8578  1.6381
   84SAPS   C39 7982   1.361   1.952   9.384  0.0211  0.4041  0.0618
   84SAPS   H9X 7983   1.375   1.845   9.355 -3.8656 -0.1194 -0.4487
   84SAPS   H9Y 7984   1.450   2.017   9.371  0.7346 -0.8280 -1.7055
   84SAPS  C310 7985   1.272   2.024   9.279  0.1687  0.9216 -0.3441
   84SAPS  H10X 7986   1.238   2.123   9.317 -1.1057  0.5930 -0.6102
   84SAPS  H10Y 7987   1.182   1.960   9.272  0.7424  0.0916 -0.3339
   84SAPS  C311 7988   1.338   2.044   9.141  0.8238  0.0196 -0.5298
   84SAPS  H11X 7989   1.419   2.118   9.156 -0.3444  1.3500 -0.6212
   84SAPS  H11Y 7990   1.257   2.087   9.079  0.0339  0.5994  0.8628
   84SAPS  C312 7991   1.398   1.913   9.083 -0.4542  0.2656  0.1532
   84SAPS  H12X 7992   1.471   1.864   9.151 -0.4604 -0.3003 -0.2368
   84SAPS  H12Y 7993   1.456   1.927   8.989  0.1122  1.7931  0.6957
   84SAPS  C313 7994   1.285   1.809   9.060 -0.2789 -0.9571 -0.1003
   84SAPS  H13X 7995   1.199   1.865   9.018 -0.9684 -0.9468  1.2678
   84SAPS  H13Y 7996   1.259   1.775   9.163 -2.9229 -0.6899 -0.6014
   84SAPS  C314 7997   1.314   1.691   8.962  0.4523 -0.5664 -0.0792
   84SAPS  H14X 7998   1.220   1.636   8.940  0.2253 -0.4679  0.6141
   84SAPS  H14Y 7999   1.397   1.632   9.007  0.2286  0.4605  1.7744
   84SAPS  C315 8000   1.367   1.748   8.828 -0.0440  0.5235  0.0727
   84SAPS  H15X 8001   1.478   1.752   8.824  0.0767 -0.6210  1.4231
   84SAPS  H15Y 8002   1.313   1.844   8.812 -0.8887 -0.1104 -0.9585
   84SAPS  C316 8003   1.321   1.659   8.708  0.8172 -0.0005 -0.0046
   84SAPS  H16X 8004   1.210   1.662   8.705  0.7806 -1.1395 -0.7174
   84SAPS  H16Y 8005   1.349   1.554   8.732  0.6122 -0.1844 -0.5612
   84SAPS  C317 8006   1.375   1.705   8.571  0.0660 -0.3250  0.1597
   84SAPS  H17X 8007   1.384   1.816   8.572  0.6813 -0.2657  4.1694
   84SAPS  H17Y 8008   1.294   1.681   8.499  0.6096 -0.3516 -0.4500
   84SAPS  C318 8009   1.511   1.639   8.538  0.8538 -0.1806  0.2849
   84SAPS  H18X 8010   1.511   1.528   8.536  1.6037 -0.1896  0.4235
   84SAPS  H18Y 8011   1.584   1.672   8.616 -0.3636  2.3541  0.4526
   84SAPS  H18Z 8012   1.539   1.679   8.438 -3.3424 -0.1054 -1.0401
   85SAPS     N 8013   5.825   3.438  11.262 -0.0466  0.1771  0.3074
   85SAPS   HN1 8014   5.873   3.475  11.346 -0.8078  1.2314  0.2977
   85SAPS   HN2 8015   5.839   3.335  11.272  0.2388  0.0831 -0.8836
   85SAPS   HN3 8016   5.870   3.463  11.172  3.4917 -1.4458  1.4444
   85SAPS   C12 8017   5.677   3.477  11.284  0.5471  0.3325  0.2506
   85SAPS  H12A 8018   5.625   3.388  11.316  0.3817 -1.2897 -3.8824
   85SAPS   C13 8019   5.665   3.582  11.394  0.4224 -1.3003  0.6190
   85SAPS  O13A 8020   5.774   3.628  11.443 -0.1438 -0.5342  0.0305
   85SAPS  O13B 8021   5.554   3.641  11.410  0.4892 -0.7469  1.2253
   85SAPS   C11 8022   5.612   3.526  11.152 -0.0767 -0.3185  0.3795
   85SAPS  H11A 8023   5.658   3.622  11.119 -2.5419  0.9210  0.3703
   85SAPS  H11B 8024   5.504   3.546  11.166 -0.3820 -1.8827  0.3725
   85SAPS     P 8025   5.554   3.288  11.064 -0.0500 -0.2765  0.0566
   85SAPS   O13 8026   5.653   3.178  11.065  0.3107 -0.0698  0.3070
   85SAPS   O14 8027   5.457   3.290  11.174  0.1904 -0.0335 -0.0487
   85SAPS   O12 8028   5.626   3.428  11.054 -0.2489  0.2686  0.2887
   85SAPS   O11 8029   5.475   3.297  10.930  0.3982 -0.0404  0.1226
   85SAPS    C1 8030   5.390   3.415  10.908 -0.0754  0.1819 -0.5724
   85SAPS    HA 8031   5.308   3.420  10.984 -1.4297  0.1161 -1.9732
   85SAPS    HB 8032   5.450   3.507  10.924  1.1862 -0.7964  0.5921
   85SAPS    C2 8033   5.331   3.430  10.766 -0.6846 -0.7733 -1.0029
   85SAPS    HS 8034   5.267   3.521  10.766 -2.7308 -2.1395 -1.6206
   85SAPS   O21 8035   5.242   3.321  10.746  0.2956  0.8320  0.6079
   85SAPS   C21 8036   5.157   3.322  10.655 -0.2559  0.1299  0.8299
   85SAPS   O22 8037   5.132   3.419  10.581  0.0901  0.7866  0.0895
   85SAPS   C22 8038   5.066   3.200  10.639 -0.3013  0.2999  0.3706
   85SAPS   H2R 8039   5.078   3.147  10.736 -0.7622  0.4574  0.5179
   85SAPS   H2S 8040   4.960   3.235  10.643 -0.2303  0.5032  0.4583
   85SAPS    C3 8041   5.441   3.442  10.660 -0.3522  0.2374  0.0832
   85SAPS    HX 8042   5.401   3.425  10.558  0.8715 -0.8227 -0.2483
   85SAPS    HY 8043   5.515   3.360  10.670 -1.2502 -0.5965 -0.0307
   85SAPS   O31 8044   5.518   3.570  10.667  0.4901  0.0186  0.2136
   85SAPS   C31 8045   5.465   3.674  10.605 -1.0003 -0.3632 -0.1488
   85SAPS   O32 8046   5.357   3.681  10.556  0.3002  0.8461  0.4744
   85SAPS   C32 8047   5.574   3.775  10.597  0.3962 -0.1640  0.4291
   85SAPS   H2X 8048   5.609   3.786  10.702 -1.8322  1.2770  1.1045
   85SAPS   H2Y 8049   5.532   3.874  10.570 -0.6864 -0.8271 -0.3870
   85SAPS   C23 8050   5.079   3.114  10.509 -0.2950  0.2069 -0.8775
   85SAPS   H3R 8051   5.016   3.027  10.536 -2.1662  1.3200 -1.4640
   85SAPS   H3S 8052   5.184   3.085  10.487  0.3048  1.1162  0.6402
   85SAPS   C24 8053   5.015   3.191  10.393  0.1357 -0.3131  0.0822
   85SAPS   H4R 8054   5.072   3.285  10.376 -0.3449  0.1839  1.1197
   85SAPS   H4S 8055   4.918   3.234  10.426  0.4384  1.0920 -0.7798
   85SAPS   C25 8056   5.011   3.122  10.263  0.6300 -1.0360  0.9522
   85SAPS   H5R 8057   5.054   3.021  10.265 -0.9967 -1.7701  0.8642
   85SAPS   C26 8058   4.950   3.172  10.151  0.1864  0.2277 -0.2755
   85SAPS   H6R 8059   4.961   3.121  10.054 -0.4518  0.6163 -0.5591
   85SAPS   C27 8060   4.876   3.304  10.132 -0.4812 -0.0569 -0.4445
   85SAPS   H7R 8061   4.840   3.338  10.231 -0.1798  0.1049 -0.3888
   85SAPS   H7S 8062   4.785   3.287  10.071 -1.0527  0.1562  0.3305
   85SAPS   C28 8063   4.976   3.400  10.068 -0.0345 -0.5102  0.3439
   85SAPS   H8R 8064   5.061   3.435  10.129 -0.1717  1.8186 -0.7030
   85SAPS   C29 8065   4.970   3.440   9.940  0.3396 -0.2445  0.4482
   85SAPS   H9R 8066   5.040   3.512   9.895 -0.9556  0.3709 -0.6870
   85SAPS  C210 8067   4.867   3.397   9.841  0.0829  0.4294  0.2677
   85SAPS  H10R 8068   4.785   3.472   9.832  1.1496  1.4452 -1.3127
   85SAPS  H10S 8069   4.827   3.299   9.876  1.9422 -0.0884  1.0877
   85SAPS  C211 8070   4.925   3.366   9.706 -0.1893  0.6648 -0.0400
   85SAPS  H11R 8071   4.914   3.444   9.629  0.2908 -1.2082 -2.1328
   85SAPS  C212 8072   4.988   3.254   9.672 -0.6713 -0.5115  0.2643
   85SAPS  H12R 8073   5.012   3.251   9.564 -1.0233 -0.9225  0.1947
   85SAPS  C213 8074   5.023   3.124   9.741 -1.0483  0.0074  0.2760
   85SAPS  H13R 8075   5.017   3.147   9.850  1.7783 -0.5286  0.6291
   85SAPS  H13S 8076   5.127   3.097   9.714 -1.0036  1.0154 -0.6407
   85SAPS  C214 8077   4.926   3.011   9.715 -0.1308  0.5914  0.6046
   85SAPS  H14R 8078   4.843   3.029   9.645 -1.6219  0.6700  2.3230
   85SAPS  C215 8079   4.927   2.898   9.780  0.2107  0.6272 -0.1575
   85SAPS  H15R 8080   4.847   2.825   9.763  0.1554  0.0716  2.1296
   85SAPS  C216 8081   5.017   2.849   9.884 -0.2362 -0.0926 -0.5233
   85SAPS  H16R 8082   5.091   2.927   9.907  0.9360 -0.9300 -1.3310
   85SAPS  H16S 8083   5.076   2.760   9.854  0.4547  0.2503 -0.1896
   85SAPS  C217 8084   4.927   2.815  10.003  0.1696 -0.3495  0.1576
   85SAPS  H17R 8085   4.857   2.738   9.965 -0.5928  0.0154  0.8144
   85SAPS  H17S 8086   4.879   2.907  10.042 -0.9373 -1.0689  0.5152
   85SAPS  C218 8087   5.005   2.758  10.118 -0.1586  0.4534 -0.4020
   85SAPS  H18R 8088   5.089   2.824  10.145  1.4345 -1.3433 -0.7564
   85SAPS  H18S 8089   5.051   2.658  10.102 -2.3717 -1.1620  2.3432
   85SAPS  C219 8090   4.918   2.736  10.247  0.1995  0.4993  0.8349
   85SAPS  H19R 8091   4.841   2.660  10.220 -0.2434  0.1467  2.9191
   85SAPS  H19S 8092   4.852   2.825  10.255 -2.6966 -1.3096 -0.9871
   85SAPS  C220 8093   4.985   2.693  10.374  0.2086  0.2160 -0.4192
   85SAPS  H20R 8094   5.067   2.621  10.351  0.7727  0.2376  1.4181
   85SAPS  H20S 8095   4.916   2.645  10.445  1.0755 -2.1889 -1.0934
   85SAPS  H20T 8096   5.033   2.777  10.429 -2.1833  0.1999  1.8361
   85SAPS   C33 8097   5.677   3.735  10.494 -0.2556  0.3778 -0.5079
   85SAPS   H3X 8098   5.708   3.628  10.503  1.1276  0.7023 -1.1609
   85SAPS   H3Y 8099   5.771   3.791  10.510 -1.1209  1.6171  0.4983
   85SAPS   C34 8100   5.634   3.780  10.351 -1.1272  0.2813  0.1251
   85SAPS   H4X 8101   5.653   3.889  10.349  0.1849  0.0567 -0.7315
   85SAPS   H4Y 8102   5.526   3.759  10.332 -0.4883 -0.2648 -3.9255
   85SAPS   C35 8103   5.709   3.692  10.246  0.1695  0.2383  0.0379
   85SAPS   H5X 8104   5.675   3.590  10.272 -1.1977  0.4744 -0.7232
   85SAPS   H5Y 8105   5.819   3.698  10.258  0.2646 -2.6467  1.4939
   85SAPS   C36 8106   5.665   3.709  10.100  0.2744  0.2634  0.0492
   85SAPS   H6X 8107   5.555   3.718  10.096  0.0057 -2.1662  0.5597
   85SAPS   H6Y 8108   5.699   3.630  10.028 -0.9510  1.5509 -2.0470
   85SAPS   C37 8109   5.718   3.845  10.050  0.1273 -0.3918  0.3076
   85SAPS   H7X 8110   5.827   3.854  10.069 -0.0183  0.7239  0.6921
   85SAPS   H7Y 8111   5.678   3.927  10.114  2.0401  1.9493 -1.3199
   85SAPS   C38 8112   5.719   3.857   9.896  0.2553 -1.2318 -0.3266
   85SAPS   H8X 8113   5.725   3.960   9.857 -2.8157 -0.3453  1.2150
   85SAPS   H8Y 8114   5.617   3.827   9.865 -0.0728 -2.9421  2.1082
   85SAPS   C39 8115   5.821   3.771   9.826 -0.3254 -0.9393 -1.0149
   85SAPS   H9X 8116   5.838   3.671   9.872 -1.5552 -0.2389  1.0957
   85SAPS   H9Y 8117   5.913   3.830   9.851 -1.2631 -0.0725  0.5284
   85SAPS  C310 8118   5.813   3.744   9.678  0.3162 -0.6852  0.1864
   85SAPS  H10X 8119   5.815   3.842   9.627 -0.9162 -0.1353  1.1407
   85SAPS  H10Y 8120   5.712   3.702   9.657 -0.3025 -0.0680  1.7745
   85SAPS  C311 8121   5.920   3.643   9.620 -0.0343  0.0928 -0.7601
   85SAPS  H11X 8122   5.886   3.541   9.649 -0.1750  0.1927 -0.5729
   85SAPS  H11Y 8123   6.015   3.667   9.671 -0.1600 -3.7080  1.5958
   85SAPS  C312 8124   5.932   3.652   9.471  0.1233  0.3644 -0.5046
   85SAPS  H12X 8125   5.974   3.754   9.457  1.1407  0.0848  0.3294
   85SAPS  H12Y 8126   5.833   3.652   9.421  0.2765  1.5972 -0.8316
   85SAPS  C313 8127   6.035   3.556   9.406 -0.2945 -0.6968  0.1321
   85SAPS  H13X 8128   6.001   3.451   9.401  0.4278 -0.9460  0.3072
   85SAPS  H13Y 8129   6.121   3.547   9.475 -1.8306 -0.6236  2.1635
   85SAPS  C314 8130   6.084   3.597   9.266 -0.5845 -0.4233  0.4229
   85SAPS  H14X 8131   6.192   3.620   9.266 -0.7289  0.2881 -0.0258
   85SAPS  H14Y 8132   6.041   3.694   9.234  1.6477  0.5956  0.3301
   85SAPS  C315 8133   6.043   3.505   9.147 -0.1733 -0.1713 -0.2075
   85SAPS  H15X 8134   5.933   3.492   9.144 -0.1524 -0.2378 -0.7718
   85SAPS  H15Y 8135   6.083   3.405   9.175 -1.6612 -0.4684  0.9894
   85SAPS  C316 8136   6.091   3.559   9.016  0.0872 -0.3859 -0.0189
   85SAPS  H16X 8137   6.199   3.581   9.003  0.6849 -1.5393  2.4823
   85SAPS  H16Y 8138   6.032   3.653   9.005  0.0448 -0.3091  0.8006
   85SAPS  C317 8139   6.056   3.466   8.899 -0.3005 -0.1987 -0.6963
   85SAPS  H17X 8140   5.959   3.412   8.903 -0.5217  0.2593  0.5691
   85SAPS  H17Y 8141   6.134   3.387   8.906 -0.5519 -0.2691  2.5498
   85SAPS  C318 8142   6.084   3.540   8.767  0.0762 -0.0756  0.4465
   85SAPS  H18X 8143   6.052   3.646   8.773 -0.5563 -0.2533  0.2896
   85SAPS  H18Y 8144   6.047   3.491   8.674 -0.5594  0.8382  0.2030
   85SAPS  H18Z 8145   6.193   3.552   8.751  0.2337  0.5484  1.8494
   86SAPS     N 8146   6.638   5.155  10.820 -0.7578 -0.5064  0.5333
   86SAPS   HN1 8147   6.545   5.199  10.803  0.5873  2.1643 -0.5422
   86SAPS   HN2 8148   6.639   5.063  10.772 -0.8649 -0.5817  0.6740
   86SAPS   HN3 8149   6.643   5.143  10.924 -0.1003  1.7367  0.8075
   86SAPS   C12 8150   6.750   5.245  10.768  0.4033 -0.1064  0.2526
   86SAPS  H12A 8151   6.722   5.276  10.669  0.7557  1.4044  0.6017
   86SAPS   C13 8152   6.762   5.372  10.850  0.4246  0.1128  0.5632
   86SAPS  O13A 8153   6.671   5.405  10.924 -0.5676 -0.3198  0.0474
   86SAPS  O13B 8154   6.863   5.448  10.835  1.1482 -0.3851  0.1057
   86SAPS   C11 8155   6.889   5.170  10.758  0.1910  0.3730  0.0986
   86SAPS  H11A 8156   6.952   5.234  10.693 -0.9241  2.2801  0.7972
   86SAPS  H11B 8157   6.863   5.074  10.710 -1.8124  0.6755  0.4979
   86SAPS     P 8158   7.009   5.000  10.934  0.0886 -0.1212  0.1568
   86SAPS   O13 8159   7.145   5.027  10.987  0.2929  0.2917 -0.1305
   86SAPS   O14 8160   6.908   4.945  11.027  1.0020 -0.1865  0.5630
   86SAPS   O12 8161   6.960   5.142  10.884  0.0011  0.8957 -0.0165
   86SAPS   O11 8162   7.021   4.907  10.810  0.1532 -0.7316 -0.1221
   86SAPS    C1 8163   7.052   4.771  10.810 -1.1138  0.7261  0.9953
   86SAPS    HA 8164   7.161   4.759  10.829 -0.6961 -0.8557 -1.8704
   86SAPS    HB 8165   6.990   4.707  10.875  1.0643 -0.7076  1.7899
   86SAPS    C2 8166   7.043   4.717  10.660 -0.5776  0.1652 -0.3047
   86SAPS    HS 8167   7.048   4.606  10.659 -0.9555  0.1462 -0.8822
   86SAPS   O21 8168   7.149   4.775  10.582  0.2850 -0.6780  0.3675
   86SAPS   C21 8169   7.191   4.710  10.473 -0.3345 -0.6139 -0.4275
   86SAPS   O22 8170   7.172   4.590  10.448  0.0586 -0.3888  0.2124
   86SAPS   C22 8171   7.276   4.809  10.388  0.0032 -0.6822  0.3160
   86SAPS   H2R 8172   7.203   4.872  10.334 -2.0599 -3.0941  0.0819
   86SAPS   H2S 8173   7.347   4.868  10.450 -0.6274  1.2119 -0.6891
   86SAPS    C3 8174   6.913   4.767  10.595  0.2886  0.1162 -0.4346
   86SAPS    HX 8175   6.914   4.877  10.580  1.0510  0.3860  1.2694
   86SAPS    HY 8176   6.836   4.743  10.671 -0.2693 -0.1321 -1.0794
   86SAPS   O31 8177   6.882   4.683  10.476  0.1419  0.5898 -0.4878
   86SAPS   C31 8178   6.774   4.726  10.420  0.5343  0.7655  0.3115
   86SAPS   O32 8179   6.704   4.818  10.460  0.3585 -0.1999 -0.0713
   86SAPS   C32 8180   6.740   4.655  10.292 -0.2895 -0.5339  0.1577
   86SAPS   H2X 8181   6.718   4.550  10.320  2.7824 -1.3574 -0.1383
   86SAPS   H2Y 8182   6.832   4.650  10.230 -1.2480  1.6188 -1.5792
   86SAPS   C23 8183   7.365   4.726  10.285  0.7141  0.4195 -0.3396
   86SAPS   H3R 8184   7.293   4.684  10.211 -0.9564  1.6440  0.5026
   86SAPS   H3S 8185   7.416   4.646  10.342  0.6104  0.7428  0.2111
   86SAPS   C24 8186   7.470   4.818  10.214 -0.4996 -0.2520 -0.0679
   86SAPS   H4R 8187   7.549   4.836  10.289 -0.9463  0.5988  0.2060
   86SAPS   H4S 8188   7.422   4.909  10.172  0.1982  0.5925  0.9463
   86SAPS   C25 8189   7.544   4.739  10.102  0.2623  0.1364 -0.2414
   86SAPS   H5R 8190   7.635   4.696  10.147 -0.5933 -1.8499 -0.2904
   86SAPS   C26 8191   7.511   4.722   9.973 -0.0995  0.4551 -0.7851
   86SAPS   H6R 8192   7.576   4.669   9.903 -1.8890 -3.5190  0.2585
   86SAPS   C27 8193   7.393   4.772   9.893  0.5830 -0.0620 -0.4202
   86SAPS   H7R 8194   7.414   4.788   9.785  0.3206 -1.7589 -0.7465
   86SAPS   H7S 8195   7.352   4.868   9.931 -1.3203 -1.1915  0.5738
   86SAPS   C28 8196   7.272   4.680   9.883  0.6173  0.1557  0.0900
   86SAPS   H8R 8197   7.266   4.606   9.964  1.7947 -1.3801 -1.1453
   86SAPS   C29 8198   7.176   4.667   9.786  0.0476 -0.0985 -0.3892
   86SAPS   H9R 8199   7.094   4.598   9.810 -0.5849  1.9005  4.1133
   86SAPS  C210 8200   7.164   4.740   9.653  0.1328 -0.6815  0.2082
   86SAPS  H10R 8201   7.056   4.730   9.627 -0.9892  3.2469  2.3833
   86SAPS  H10S 8202   7.235   4.690   9.584  1.7079  0.8520  0.6277
   86SAPS  C211 8203   7.193   4.891   9.640 -0.9497 -0.4390 -0.2240
   86SAPS  H11R 8204   7.211   4.945   9.735  0.7380  1.1064 -1.3536
   86SAPS  C212 8205   7.166   4.971   9.532 -0.2073 -0.2310 -0.0264
   86SAPS  H12R 8206   7.163   5.077   9.561 -1.3690  0.1536 -1.4348
   86SAPS  C213 8207   7.117   4.929   9.399  0.1798 -0.7300 -0.1289
   86SAPS  H13R 8208   7.079   4.824   9.394  0.1105 -0.8270  1.8289
   86SAPS  H13S 8209   7.215   4.918   9.348  1.5168  0.7910  1.9596
   86SAPS  C214 8210   7.021   5.021   9.336  0.2890  0.5057  0.6408
   86SAPS  H14R 8211   6.914   5.004   9.351  0.2218 -0.2199 -0.5448
   86SAPS  C215 8212   7.049   5.118   9.242  0.4667  0.4525 -0.4640
   86SAPS  H15R 8213   6.966   5.166   9.189 -0.6379 -0.5748  0.2748
   86SAPS  C216 8214   7.189   5.157   9.198 -0.1537 -0.5362  1.1691
   86SAPS  H16R 8215   7.270   5.089   9.234  1.1586  0.3008 -0.0841
   86SAPS  H16S 8216   7.202   5.252   9.254 -1.9705  0.6367 -0.2657
   86SAPS  C217 8217   7.214   5.170   9.047 -0.6847  0.1932 -0.7930
   86SAPS  H17R 8218   7.314   5.215   9.028 -0.4183 -0.5356 -1.1716
   86SAPS  H17S 8219   7.138   5.225   8.989 -1.1338  0.9560  0.4876
   86SAPS  C218 8220   7.219   5.037   8.983  0.0836  0.3219  0.4929
   86SAPS  H18R 8221   7.119   4.990   8.997  0.4598 -0.5998  0.1058
   86SAPS  H18S 8222   7.293   4.959   9.013  0.1382 -0.2147 -0.9531
   86SAPS  C219 8223   7.246   5.045   8.830 -0.5873 -0.3586  0.4158
   86SAPS  H19R 8224   7.356   5.055   8.816 -0.6742  0.0575  0.0054
   86SAPS  H19S 8225   7.204   5.137   8.785  1.0159  0.0643 -0.3073
   86SAPS  C220 8226   7.209   4.922   8.749  0.3179  0.3767 -0.3851
   86SAPS  H20R 8227   7.104   4.888   8.764  0.5379  0.7525  2.5971
   86SAPS  H20S 8228   7.270   4.832   8.775 -0.1149  0.6822  1.8648
   86SAPS  H20T 8229   7.233   4.945   8.643  1.3834  2.9110  0.3451
   86SAPS   C33 8230   6.619   4.713  10.214 -0.6364  0.0851 -0.5399
   86SAPS   H3X 8231   6.646   4.819  10.198  3.1823 -1.0531 -2.9263
   86SAPS   H3Y 8232   6.523   4.701  10.269 -0.7685 -1.1634 -1.0007
   86SAPS   C34 8233   6.608   4.645  10.074 -0.0640 -0.1788 -0.4074
   86SAPS   H4X 8234   6.625   4.537  10.093 -0.0269  0.2658  2.5661
   86SAPS   H4Y 8235   6.690   4.676  10.007  0.0683  4.2471  1.4822
   86SAPS   C35 8236   6.476   4.672  10.002  0.8427  0.1574  0.3679
   86SAPS   H5X 8237   6.459   4.782   9.993 -2.0360 -0.1546  1.0941
   86SAPS   H5Y 8238   6.383   4.638  10.052 -0.9325  1.9621 -1.5167
   86SAPS   C36 8239   6.474   4.614   9.860  0.0414 -0.2046  0.1190
   86SAPS   H6X 8240   6.494   4.506   9.872 -0.0545 -0.1356  0.9548
   86SAPS   H6Y 8241   6.564   4.658   9.811  1.5712 -3.4279 -0.2208
   86SAPS   C37 8242   6.352   4.649   9.779  0.6052  0.5601  0.8353
   86SAPS   H7X 8243   6.358   4.759   9.764  2.2858  0.2370 -1.4090
   86SAPS   H7Y 8244   6.267   4.639   9.849  1.1067 -0.3403  1.3258
   86SAPS   C38 8245   6.340   4.562   9.653  0.3450  0.1359  0.0878
   86SAPS   H8X 8246   6.345   4.455   9.684  2.2913  1.1534  3.9132
   86SAPS   H8Y 8247   6.427   4.584   9.587  0.5391  0.1829  0.3561
   86SAPS   C39 8248   6.206   4.584   9.579  0.4888 -0.0653 -0.4205
   86SAPS   H9X 8249   6.210   4.694   9.562 -0.4059  0.2866  1.4267
   86SAPS   H9Y 8250   6.119   4.566   9.645 -0.0338  2.7492 -0.2243
   86SAPS  C310 8251   6.193   4.484   9.454  0.1208  0.3389 -0.0863
   86SAPS  H10X 8252   6.084   4.465   9.448  0.7523 -4.0684 -0.9133
   86SAPS  H10Y 8253   6.249   4.390   9.476  1.3111  1.2379  0.9387
   86SAPS  C311 8254   6.236   4.555   9.325 -0.3215 -0.5844 -0.8202
   86SAPS  H11X 8255   6.343   4.585   9.326 -0.6190  0.5758 -1.7198
   86SAPS  H11Y 8256   6.173   4.645   9.308 -0.0622 -0.4770 -1.2419
   86SAPS  C312 8257   6.224   4.472   9.198 -0.7633  0.3815  0.0179
   86SAPS  H12X 8258   6.118   4.453   9.170 -1.0823  2.5039 -0.3082
   86SAPS  H12Y 8259   6.270   4.371   9.209 -2.5239 -0.4405  0.1718
   86SAPS  C313 8260   6.289   4.549   9.079 -0.1203  0.1758  0.3332
   86SAPS  H13X 8261   6.392   4.559   9.118  0.1229 -0.2155 -0.2095
   86SAPS  H13Y 8262   6.250   4.652   9.060  0.2517  0.3893  0.7201
   86SAPS  C314 8263   6.303   4.469   8.947  0.6538 -0.8581  0.1394
   86SAPS  H14X 8264   6.352   4.369   8.952  1.0924 -0.6993 -0.7552
   86SAPS  H14Y 8265   6.373   4.535   8.893  0.2558  0.7344  1.4973
   86SAPS  C315 8266   6.177   4.469   8.869 -0.0201  0.3244  0.4568
   86SAPS  H15X 8267   6.125   4.567   8.881  1.3834  1.2202 -0.4119
   86SAPS  H15Y 8268   6.112   4.384   8.898 -0.2262  0.9001  1.7656
   86SAPS  C316 8269   6.215   4.445   8.718  0.5326 -0.1245  0.3555
   86SAPS  H16X 8270   6.278   4.354   8.716  1.1817  0.2759  1.6848
   86SAPS  H16Y 8271   6.288   4.516   8.673  0.9739 -0.9080 -0.1823
   86SAPS  C317 8272   6.098   4.445   8.618  0.2308  0.0559 -0.4363
   86SAPS  H17X 8273   6.047   4.352   8.652 -0.4901  0.2490 -0.9629
   86SAPS  H17Y 8274   6.142   4.414   8.521 -0.7925 -1.5647 -0.4149
   86SAPS  C318 8275   5.994   4.560   8.631  0.2065  0.1787  0.1944
   86SAPS  H18X 8276   6.039   4.658   8.661  0.2001  0.0191  0.7245
   86SAPS  H18Y 8277   5.928   4.527   8.714 -1.7819 -1.7390 -2.0005
   86SAPS  H18Z 8278   5.933   4.548   8.539  0.9196 -0.4418 -0.2150
   87SAPS     N 8279   0.922   5.228  10.775  0.7025 -0.4866 -0.2548
   87SAPS   HN1 8280   0.955   5.241  10.677 -0.2757 -1.2162 -0.6994
   87SAPS   HN2 8281   0.826   5.269  10.780  0.2629 -1.1097 -2.4227
   87SAPS   HN3 8282   0.984   5.297  10.820 -0.8513  1.6803 -1.2438
   87SAPS   C12 8283   0.938   5.096  10.834 -0.1245 -0.3599 -0.0889
   87SAPS  H12A 8284   0.934   5.125  10.938 -0.3149  2.5080 -0.8155
   87SAPS   C13 8285   0.828   4.990  10.798 -0.2418 -0.2908 -0.2745
   87SAPS  O13A 8286   0.764   5.009  10.693 -0.4520 -0.7043 -0.1641
   87SAPS  O13B 8287   0.838   4.877  10.853 -0.0984  0.4834 -0.4630
   87SAPS   C11 8288   1.075   5.047  10.801 -0.3451  0.3086  0.0754
   87SAPS  H11A 8289   1.090   5.027  10.692 -1.0079  0.9589 -0.1361
   87SAPS  H11B 8290   1.080   4.945  10.846  0.1951  0.7114  0.9683
   87SAPS     P 8291   1.318   5.098  10.866  0.0320 -0.0279  0.0619
   87SAPS   O13 8292   1.389   5.204  10.942  0.0085  0.0419 -0.0922
   87SAPS   O14 8293   1.329   4.962  10.916 -0.1077 -0.0348  0.3978
   87SAPS   O12 8294   1.166   5.141  10.848 -0.4440  0.0711  0.4773
   87SAPS   O11 8295   1.376   5.101  10.721 -0.2282  0.0152 -0.1002
   87SAPS    C1 8296   1.413   5.219  10.638  0.1398 -0.1418 -0.0051
   87SAPS    HA 8297   1.473   5.290  10.699  1.0194 -0.1109 -0.8831
   87SAPS    HB 8298   1.476   5.181  10.555 -2.0775 -2.9502 -0.5447
   87SAPS    C2 8299   1.294   5.285  10.564 -0.0942 -0.1173 -0.0224
   87SAPS    HS 8300   1.229   5.312  10.650  1.4637  0.4658  1.0252
   87SAPS   O21 8301   1.244   5.187  10.470 -0.2430 -0.6435  0.4501
   87SAPS   C21 8302   1.112   5.183  10.453 -0.4807 -0.8217 -0.4653
   87SAPS   O22 8303   1.029   5.229  10.529 -0.2270  0.3086 -0.2213
   87SAPS   C22 8304   1.079   5.099  10.331  0.2494  0.8159 -0.8817
   87SAPS   H2R 8305   1.078   4.993  10.362  0.4560  1.1747  0.3955
   87SAPS   H2S 8306   0.969   5.111  10.328  0.2168  0.7094 -0.2100
   87SAPS    C3 8307   1.317   5.422  10.483  0.0694  0.0074 -0.7418
   87SAPS    HX 8308   1.356   5.501  10.551 -1.6277 -0.5404  0.9674
   87SAPS    HY 8309   1.217   5.460  10.453 -0.5232 -1.3287 -0.5291
   87SAPS   O31 8310   1.401   5.417  10.364 -0.5020 -0.2852  0.0293
   87SAPS   C31 8311   1.532   5.437  10.386 -0.1166  0.2184 -0.5264
   87SAPS   O32 8312   1.582   5.451  10.495  0.4158 -0.1523 -0.5547
   87SAPS   C32 8313   1.616   5.449  10.262  0.7620  0.1610  0.6813
   87SAPS   H2X 8314   1.702   5.517  10.285  1.9074  0.0461 -2.6798
   87SAPS   H2Y 8315   1.561   5.500  10.180  0.9930 -1.0178 -0.2245
   87SAPS   C23 8316   1.160   5.134  10.213  0.1617  0.7944 -0.4169
   87SAPS   H3R 8317   1.263   5.157  10.248 -0.4779  0.0734  2.1844
   87SAPS   H3S 8318   1.115   5.218  10.156 -1.7388  1.2051  1.5573
   87SAPS   C24 8319   1.174   5.010  10.112  0.0786 -0.3714 -0.7297
   87SAPS   H4R 8320   1.220   4.923  10.164 -2.6652 -0.9237  0.9678
   87SAPS   H4S 8321   1.250   5.050  10.041 -0.2798 -2.7253 -2.5819
   87SAPS   C25 8322   1.046   4.976  10.045 -0.2624 -0.5190 -0.6862
   87SAPS   H5R 8323   0.980   4.926  10.116 -1.8161  0.4536 -1.3710
   87SAPS   C26 8324   1.013   5.013   9.925 -0.3359 -0.0377  0.1862
   87SAPS   H6R 8325   0.914   4.989   9.882 -1.2974  1.1189  1.6568
   87SAPS   C27 8326   1.108   5.102   9.842  0.0595  0.0262  0.3583
   87SAPS   H7R 8327   1.186   5.039   9.794 -0.5865  0.2966 -1.0900
   87SAPS   H7S 8328   1.145   5.183   9.909 -2.1486 -0.3544  2.1912
   87SAPS   C28 8329   1.033   5.183   9.738 -0.8226 -0.1858  0.2379
   87SAPS   H8R 8330   0.954   5.247   9.780 -1.3499 -0.6119 -0.0833
   87SAPS   C29 8331   1.068   5.209   9.609  0.7403 -0.9317 -1.1116
   87SAPS   H9R 8332   1.005   5.277   9.549  0.0749  0.3440  0.9138
   87SAPS  C210 8333   1.187   5.158   9.540  0.4442 -0.6720 -0.6906
   87SAPS  H10R 8334   1.156   5.134   9.436 -1.7204  0.5006 -0.3751
   87SAPS  H10S 8335   1.220   5.058   9.577 -0.2409 -1.2547 -1.6164
   87SAPS  C211 8336   1.312   5.240   9.562 -0.0721 -0.2367  0.2401
   87SAPS  H11R 8337   1.323   5.278   9.665  1.0540 -1.7170  0.7070
   87SAPS  C212 8338   1.416   5.251   9.476 -0.4644 -0.1478  0.0419
   87SAPS  H12R 8339   1.506   5.310   9.501  1.5922 -2.3309 -1.6344
   87SAPS  C213 8340   1.415   5.189   9.339 -0.0914 -0.3746 -0.4967
   87SAPS  H13R 8341   1.369   5.088   9.338  0.3844 -0.5962 -0.8205
   87SAPS  H13S 8342   1.523   5.186   9.311 -0.1668 -1.1694 -0.7153
   87SAPS  C214 8343   1.347   5.275   9.231  0.1359  0.3002 -0.8725
   87SAPS  H14R 8344   1.291   5.362   9.267 -0.6557 -1.6768  3.2712
   87SAPS  C215 8345   1.354   5.237   9.100 -0.0352 -0.5244 -0.2207
   87SAPS  H15R 8346   1.297   5.297   9.028  0.2869 -0.9739 -0.8575
   87SAPS  C216 8347   1.410   5.110   9.049 -0.0624 -0.0228  0.7592
   87SAPS  H16R 8348   1.464   5.053   9.128 -0.2765 -1.5287 -0.1360
   87SAPS  H16S 8349   1.462   5.124   8.953 -1.6603  0.4315 -0.0727
   87SAPS  C217 8350   1.290   5.013   9.014 -0.4488  0.3711 -0.3097
   87SAPS  H17R 8351   1.231   5.047   8.926  1.8056  0.7255 -1.7549
   87SAPS  H17S 8352   1.221   4.997   9.100 -0.1419 -1.1063 -0.3086
   87SAPS  C218 8353   1.345   4.877   8.976  0.0441  0.6853  0.1309
   87SAPS  H18R 8354   1.412   4.834   9.053  0.0427  0.3644 -0.0466
   87SAPS  H18S 8355   1.416   4.881   8.891  0.2097  1.5672  0.2938
   87SAPS  C219 8356   1.231   4.776   8.941  0.5203  0.1384  0.1222
   87SAPS  H19R 8357   1.136   4.810   8.988 -0.4324  0.1373 -1.7174
   87SAPS  H19S 8358   1.258   4.679   8.987  0.3210  0.4096  0.8221
   87SAPS  C220 8359   1.229   4.773   8.788 -0.1000  0.1777 -0.2401
   87SAPS  H20R 8360   1.319   4.721   8.749  0.9815  0.3422  1.8691
   87SAPS  H20S 8361   1.225   4.874   8.743 -4.2544 -0.2152 -1.1097
   87SAPS  H20T 8362   1.139   4.729   8.741 -0.4327  0.9542 -0.3374
   87SAPS   C33 8363   1.680   5.321  10.205  0.0874  0.1017 -0.3222
   87SAPS   H3X 8364   1.596   5.257  10.171 -2.9965  3.3136  0.7213
   87SAPS   H3Y 8365   1.739   5.261  10.277  0.9293 -0.4960 -1.4698
   87SAPS   C34 8366   1.782   5.341  10.101 -0.1231 -0.2212  0.1257
   87SAPS   H4X 8367   1.859   5.261  10.105 -2.8826 -3.1506 -0.9901
   87SAPS   H4Y 8368   1.832   5.440  10.109  0.5351 -0.5682  0.3228
   87SAPS   C35 8369   1.717   5.331   9.961 -0.6333 -0.4904 -0.6798
   87SAPS   H5X 8370   1.644   5.415   9.954 -1.9924 -1.3249  2.0381
   87SAPS   H5Y 8371   1.656   5.239   9.954  0.2454 -0.9695 -2.6544
   87SAPS   C36 8372   1.826   5.334   9.851 -0.3220  0.3091 -0.3196
   87SAPS   H6X 8373   1.911   5.273   9.889 -0.6950 -0.4245 -0.6359
   87SAPS   H6Y 8374   1.873   5.434   9.840 -1.2704  0.5282 -2.9099
   87SAPS   C37 8375   1.782   5.286   9.716 -0.2876 -0.9759  0.2492
   87SAPS   H7X 8376   1.708   5.364   9.690  2.5880  2.5240  1.7359
   87SAPS   H7Y 8377   1.744   5.181   9.714  0.5144 -1.2667 -0.8726
   87SAPS   C38 8378   1.880   5.321   9.605 -0.2695  0.3762 -0.5922
   87SAPS   H8X 8379   1.976   5.281   9.645 -0.9002  0.0427  0.6229
   87SAPS   H8Y 8380   1.901   5.429   9.587  0.5887  0.4855  0.8524
   87SAPS   C39 8381   1.842   5.262   9.467 -0.4086  0.1184  0.3468
   87SAPS   H9X 8382   1.745   5.290   9.421  0.0039 -0.1597 -0.7153
   87SAPS   H9Y 8383   1.838   5.153   9.489  1.9529  0.1990  1.4701
   87SAPS  C310 8384   1.952   5.286   9.362 -0.2184  0.0762 -0.0473
   87SAPS  H10X 8385   2.047   5.254   9.409 -0.3923  1.4309  1.3208
   87SAPS  H10Y 8386   1.968   5.395   9.347  0.7683  0.0845  0.9511
   87SAPS  C311 8387   1.939   5.208   9.236  0.5096 -0.3046 -0.4125
   87SAPS  H11X 8388   1.840   5.230   9.189 -0.4066  0.9238  1.8667
   87SAPS  H11Y 8389   1.939   5.101   9.265 -1.7938  0.1267  1.5509
   87SAPS  C312 8390   2.050   5.224   9.132  0.3115 -0.7316  0.2762
   87SAPS  H12X 8391   2.149   5.206   9.178  1.6045  0.3296 -1.9299
   87SAPS  H12Y 8392   2.047   5.330   9.098 -1.4430 -0.8003  0.1176
   87SAPS  C313 8393   2.034   5.130   9.010 -0.3361 -0.0756 -0.4025
   87SAPS  H13X 8394   1.941   5.158   8.956 -2.1969 -3.3207  0.8274
   87SAPS  H13Y 8395   2.035   5.025   9.046  1.4048  0.1656  0.3152
   87SAPS  C314 8396   2.151   5.161   8.914 -0.7106 -0.4152  0.1709
   87SAPS  H14X 8397   2.252   5.137   8.954 -1.2052 -0.9951  1.0986
   87SAPS  H14Y 8398   2.149   5.271   8.897  0.0121 -0.5748 -1.1110
   87SAPS  C315 8399   2.147   5.085   8.777  0.0561 -0.0830 -0.1514
   87SAPS  H15X 8400   2.045   5.090   8.733 -0.0143 -2.1949 -0.3417
   87SAPS  H15Y 8401   2.151   4.977   8.801 -1.0573 -0.3560 -1.1083
   87SAPS  C316 8402   2.251   5.128   8.671  0.1165  0.1743 -0.1152
   87SAPS  H16X 8403   2.214   5.079   8.578  0.3557 -2.8369  1.2569
   87SAPS  H16Y 8404   2.347   5.084   8.704 -0.2659 -0.2405  0.4667
   87SAPS  C317 8405   2.272   5.275   8.650  0.5096  0.3642 -0.3465
   87SAPS  H17X 8406   2.309   5.318   8.745 -2.6812 -0.9604  1.6457
   87SAPS  H17Y 8407   2.168   5.316   8.645 -0.8982 -2.4354  2.4432
   87SAPS  C318 8408   2.361   5.299   8.530 -0.3764  0.0735  0.0725
   87SAPS  H18X 8409   2.395   5.405   8.530  1.6399 -0.4883 -1.8982
   87SAPS  H18Y 8410   2.304   5.281   8.436 -1.8395  0.6912  0.8091
   87SAPS  H18Z 8411   2.455   5.240   8.541 -0.4144 -0.1021 -0.5084
   88SAPS     N 8412   4.318   6.155  10.789  0.2160  0.3046  0.2401
   88SAPS   HN1 8413   4.334   6.255  10.814  1.5848  0.1076  0.1837
   88SAPS   HN2 8414   4.357   6.141  10.694 -2.4185 -1.3659 -0.7253
   88SAPS   HN3 8415   4.217   6.131  10.781  0.7136 -1.6963 -0.8018
   88SAPS   C12 8416   4.384   6.081  10.901 -0.0038 -0.0532 -0.1022
   88SAPS  H12A 8417   4.490   6.104  10.898 -0.2039  0.8705 -0.4856
   88SAPS   C13 8418   4.328   6.111  11.040 -0.6309 -0.2095  0.7316
   88SAPS  O13A 8419   4.248   6.206  11.052  0.3489 -0.0713 -0.0425
   88SAPS  O13B 8420   4.396   6.064  11.140  0.5067 -0.2925  0.2130
   88SAPS   C11 8421   4.355   5.930  10.889 -0.1352  1.1452 -0.3977
   88SAPS  H11A 8422   4.248   5.916  10.859  0.5544 -2.1858 -1.7740
   88SAPS  H11B 8423   4.378   5.869  10.979  1.9169  1.5716 -0.5834
   88SAPS     P 8424   4.563   5.841  10.763  0.4240  0.5500 -0.2027
   88SAPS   O13 8425   4.638   5.962  10.740 -0.2261 -1.3754 -1.1316
   88SAPS   O14 8426   4.597   5.751  10.877 -0.0300  0.2164  0.0137
   88SAPS   O12 8427   4.412   5.880  10.770 -1.2323 -0.1024  0.6254
   88SAPS   O11 8428   4.567   5.749  10.631  1.1408  0.1693 -0.5031
   88SAPS    C1 8429   4.457   5.662  10.598 -0.0691  0.0329  0.3702
   88SAPS    HA 8430   4.487   5.555  10.600  1.6818  0.4953  0.2696
   88SAPS    HB 8431   4.365   5.666  10.661  0.0390 -2.9824  0.8406
   88SAPS    C2 8432   4.411   5.688  10.449  0.2361  0.1259 -0.6650
   88SAPS    HS 8433   4.331   5.616  10.423  0.0781 -0.0643  0.3131
   88SAPS   O21 8434   4.522   5.662  10.363 -0.0534  0.5667  0.5504
   88SAPS   C21 8435   4.552   5.534  10.340 -0.4930 -0.2436 -0.2306
   88SAPS   O22 8436   4.479   5.438  10.369 -0.6591  0.1323 -0.2976
   88SAPS   C22 8437   4.669   5.526  10.241 -0.2130  0.1869 -0.3987
   88SAPS   H2R 8438   4.755   5.555  10.306  0.3302  0.3367 -1.1778
   88SAPS   H2S 8439   4.684   5.418  10.218 -1.4780  0.1041 -0.9171
   88SAPS    C3 8440   4.367   5.833  10.427  0.8591 -0.2024 -0.4271
   88SAPS    HX 8441   4.432   5.917  10.462  0.8709 -1.2522  2.3060
   88SAPS    HY 8442   4.286   5.849  10.501  1.7564  0.1651  0.5127
   88SAPS   O31 8443   4.303   5.858  10.301 -0.1767  0.4988 -1.1403
   88SAPS   C31 8444   4.373   5.945  10.218 -0.4984 -0.0578  0.0044
   88SAPS   O32 8445   4.482   5.992  10.247  0.2441  0.1906 -0.0224
   88SAPS   C32 8446   4.295   5.969  10.091  0.3048 -0.3673 -0.5096
   88SAPS   H2X 8447   4.241   6.062  10.118 -0.8922 -0.6581 -1.8309
   88SAPS   H2Y 8448   4.215   5.891  10.087  1.4070 -1.5651 -0.1105
   88SAPS   C23 8449   4.649   5.610  10.113 -0.0730  0.1835 -0.4542
   88SAPS   H3R 8450   4.744   5.599  10.057 -0.0174 -1.4417 -0.0907
   88SAPS   H3S 8451   4.640   5.718  10.139 -1.1823  0.0099 -0.0462
   88SAPS   C24 8452   4.538   5.548  10.023 -0.1230 -0.3373 -0.1552
   88SAPS   H4R 8453   4.530   5.611   9.932  0.2472  0.7180  0.5320
   88SAPS   H4S 8454   4.440   5.561  10.073  1.1572  0.9566  2.2133
   88SAPS   C25 8455   4.559   5.393  10.003  0.3305 -0.0351 -0.2867
   88SAPS   H5R 8456   4.541   5.337  10.095  2.0676 -0.9755 -0.4770
   88SAPS   C26 8457   4.576   5.330   9.884 -0.0974 -0.3802  0.3644
   88SAPS   H6R 8458   4.578   5.220   9.886  1.3977 -0.3685  0.8860
   88SAPS   C27 8459   4.587   5.397   9.743 -0.0049  1.3724 -0.0072
   88SAPS   H7R 8460   4.674   5.350   9.693 -0.6388  1.5252 -1.2852
   88SAPS   H7S 8461   4.618   5.503   9.737 -0.5160  1.5644  0.6031
   88SAPS   C28 8462   4.461   5.355   9.667 -0.1934 -0.5861 -0.3184
   88SAPS   H8R 8463   4.373   5.337   9.731  0.3139  0.8522  0.8277
   88SAPS   C29 8464   4.453   5.362   9.532  0.0029  0.0031 -0.0952
   88SAPS   H9R 8465   4.362   5.337   9.475 -1.0905  1.2773  1.0549
   88SAPS  C210 8466   4.566   5.411   9.442 -0.0217 -0.0418 -0.1544
   88SAPS  H10R 8467   4.591   5.339   9.362  2.1945  0.3362  0.1353
   88SAPS  H10S 8468   4.661   5.410   9.499  0.3034 -0.2012 -0.6909
   88SAPS  C211 8469   4.552   5.554   9.394 -0.1469  0.4196  0.1614
   88SAPS  H11R 8470   4.543   5.623   9.479  1.0211  0.1176  0.5419
   88SAPS  C212 8471   4.551   5.601   9.268 -0.1922 -0.9471 -0.6590
   88SAPS  H12R 8472   4.540   5.709   9.252 -0.7298 -0.7240  1.0538
   88SAPS  C213 8473   4.566   5.525   9.141 -0.0598 -0.6745  0.6948
   88SAPS  H13R 8474   4.562   5.417   9.168  0.5378 -0.9031 -0.0898
   88SAPS  H13S 8475   4.674   5.528   9.112 -0.5107 -2.0040 -1.3072
   88SAPS  C214 8476   4.461   5.576   9.036  0.0377  0.1815  0.1903
   88SAPS  H14R 8477   4.363   5.600   9.080  0.5974 -0.2469  1.7203
   88SAPS  C215 8478   4.482   5.604   8.903  0.1962 -0.5420 -0.5509
   88SAPS  H15R 8479   4.397   5.636   8.840  0.0447 -2.2061 -1.2481
   88SAPS  C216 8480   4.611   5.579   8.826  0.5278 -0.6701 -0.1350
   88SAPS  H16R 8481   4.594   5.515   8.737  2.0851  0.3115 -1.1790
   88SAPS  H16S 8482   4.688   5.524   8.885 -1.8781 -3.2700  0.8110
   88SAPS  C217 8483   4.667   5.712   8.769  0.4052 -0.3765 -0.1146
   88SAPS  H17R 8484   4.684   5.787   8.850 -2.5509 -2.2369  2.4632
   88SAPS  H17S 8485   4.593   5.763   8.703 -1.0061  1.7044  2.8404
   88SAPS  C218 8486   4.796   5.681   8.697  0.4880 -0.1163 -0.1781
   88SAPS  H18R 8487   4.773   5.621   8.607  0.7324 -0.8695  0.2550
   88SAPS  H18S 8488   4.860   5.616   8.761 -1.1240 -1.5223  0.0640
   88SAPS  C219 8489   4.875   5.811   8.681 -1.2298 -0.3623 -0.6884
   88SAPS  H19R 8490   4.968   5.781   8.628  0.2408 -0.4061  1.7510
   88SAPS  H19S 8491   4.907   5.857   8.778  0.9464 -2.0874 -0.5026
   88SAPS  C220 8492   4.803   5.917   8.593 -0.0791 -0.5177 -0.5601
   88SAPS  H20R 8493   4.714   5.961   8.642 -0.6230 -1.5339 -0.5996
   88SAPS  H20S 8494   4.781   5.865   8.497  0.0904 -1.3922 -0.1343
   88SAPS  H20T 8495   4.871   6.004   8.577  0.0855 -0.9198 -2.2657
   88SAPS   C33 8496   4.370   6.005   9.965  0.1349  0.1686  0.2180
   88SAPS   H3X 8497   4.432   5.915   9.945 -1.8455 -1.2037 -0.0434
   88SAPS   H3Y 8498   4.439   6.085   9.998  0.3592  0.7518 -1.6008
   88SAPS   C34 8499   4.292   6.036   9.839  0.7614  0.4022  0.9295
   88SAPS   H4X 8500   4.269   6.145   9.843  1.7053  0.6572  0.0134
   88SAPS   H4Y 8501   4.198   5.980   9.852  2.1237 -1.5909  3.0252
   88SAPS   C35 8502   4.363   6.008   9.703 -0.1721 -0.4084  0.0865
   88SAPS   H5X 8503   4.351   5.899   9.686  0.1425 -0.7263  1.6941
   88SAPS   H5Y 8504   4.472   6.020   9.723 -0.5698  0.3941  2.0308
   88SAPS   C36 8505   4.306   6.094   9.592  0.3748 -0.8824  0.2071
   88SAPS   H6X 8506   4.362   6.190   9.588  1.1235 -1.3059  0.1980
   88SAPS   H6Y 8507   4.200   6.121   9.609 -0.1421 -1.4486 -1.8458
   88SAPS   C37 8508   4.300   6.024   9.456  0.5083  0.3980 -0.3036
   88SAPS   H7X 8509   4.244   5.930   9.469  1.0677  0.1970  0.7337
   88SAPS   H7Y 8510   4.405   6.004   9.426  0.8179  0.0098  0.9838
   88SAPS   C38 8511   4.216   6.100   9.356 -0.1065 -0.1715 -0.2484
   88SAPS   H8X 8512   4.245   6.207   9.354 -0.2902 -0.1265 -0.8894
   88SAPS   H8Y 8513   4.110   6.096   9.391  0.4989 -0.3818  1.6359
   88SAPS   C39 8514   4.216   6.027   9.220 -0.4287 -0.2352 -0.7387
   88SAPS   H9X 8515   4.145   5.942   9.229  0.0031 -0.3756  2.3491
   88SAPS   H9Y 8516   4.315   5.994   9.183 -0.1474 -1.4581  0.9860
   88SAPS  C310 8517   4.151   6.101   9.107  0.4295  0.2934  0.8184
   88SAPS  H10X 8518   4.199   6.201   9.099 -3.4228  2.2761 -0.0609
   88SAPS  H10Y 8519   4.044   6.119   9.131  0.0372 -1.9822  1.0165
   88SAPS  C311 8520   4.150   6.023   8.980  0.0924  0.4895 -0.5699
   88SAPS  H11X 8521   4.108   5.920   8.987  4.0223 -1.3792 -1.5525
   88SAPS  H11Y 8522   4.253   5.998   8.947  0.4813  0.9769  0.2601
   88SAPS  C312 8523   4.087   6.098   8.872  0.1742  0.1407  0.1531
   88SAPS  H12X 8524   4.004   6.166   8.901 -0.3629 -0.8441  0.9695
   88SAPS  H12Y 8525   4.061   6.020   8.797 -0.5677 -0.5225  1.0831
   88SAPS  C313 8526   4.190   6.198   8.809 -0.2995  0.2471  0.2682
   88SAPS  H13X 8527   4.236   6.268   8.882  1.5850 -0.5262 -0.1323
   88SAPS  H13Y 8528   4.145   6.265   8.732 -1.0071 -0.1650  0.3095
   88SAPS  C314 8529   4.301   6.126   8.731  0.0518 -0.0583  0.3716
   88SAPS  H14X 8530   4.255   6.038   8.681 -1.6121  1.2555 -0.4982
   88SAPS  H14Y 8531   4.388   6.083   8.785 -0.9091  0.3074  2.2699
   88SAPS  C315 8532   4.358   6.207   8.611  0.1045  1.2862  0.0848
   88SAPS  H15X 8533   4.384   6.302   8.662  0.4794  1.1547  0.1444
   88SAPS  H15Y 8534   4.281   6.238   8.538  1.4560  1.2042 -1.4377
   88SAPS  C316 8535   4.478   6.137   8.538  0.2510 -0.3608 -0.1401
   88SAPS  H16X 8536   4.564   6.114   8.606  0.1512  1.5556  0.7184
   88SAPS  H16Y 8537   4.512   6.212   8.463  2.2179 -2.7004 -1.7316
   88SAPS  C317 8538   4.448   6.011   8.460 -0.7146  0.3343  0.0311
   88SAPS  H17X 8539   4.389   5.947   8.528  0.3513 -1.0125 -0.2439
   88SAPS  H17Y 8540   4.542   5.958   8.432 -0.0548 -0.2083  2.9828
   88SAPS  C318 8541   4.373   6.041   8.334  0.5189  0.3232 -0.0269
   88SAPS  H18X 8542   4.266   6.072   8.330  0.7168  0.8944 -2.0040
   88SAPS  H18Y 8543   4.380   5.953   8.267  0.9518  0.0780  0.3304
   88SAPS  H18Z 8544   4.413   6.131   8.283  1.0309  0.6944  1.0073
   89SAPS     N 8545   5.163   6.605  11.092  0.5695 -0.5711  0.1896
   89SAPS   HN1 8546   5.261   6.637  11.077  0.8614 -2.5357 -3.2138
   89SAPS   HN2 8547   5.150   6.541  11.173  2.3760  0.6663  1.5463
   89SAPS   HN3 8548   5.135   6.548  11.009 -0.3357  1.3746 -0.9136
   89SAPS   C12 8549   5.072   6.726  11.108  0.9763  0.5213  0.3197
   89SAPS  H12A 8550   4.968   6.706  11.128  0.8953 -1.2657 -1.6039
   89SAPS   C13 8551   5.135   6.818  11.214  0.0728  0.0650 -0.3667
   89SAPS  O13A 8552   5.241   6.794  11.274 -0.1115 -0.1999  0.3099
   89SAPS  O13B 8553   5.070   6.926  11.243 -0.4568 -0.7116 -0.6131
   89SAPS   C11 8554   5.077   6.796  10.969  0.8878 -0.0399 -0.2298
   89SAPS  H11A 8555   5.176   6.847  10.966 -0.3435  2.7269  1.6929
   89SAPS  H11B 8556   4.996   6.872  10.975  0.3435 -0.5561 -0.9653
   89SAPS     P 8557   5.068   6.791  10.719  0.1493  0.2683  0.1928
   89SAPS   O13 8558   4.988   6.911  10.717 -0.2305 -0.1611 -0.1472
   89SAPS   O14 8559   5.210   6.803  10.682 -0.1288  0.0822  0.7472
   89SAPS   O12 8560   5.051   6.715  10.860 -0.5355  0.5120  0.2139
   89SAPS   O11 8561   5.002   6.695  10.615  0.0637  1.3196  0.2932
   89SAPS    C1 8562   4.860   6.695  10.578 -0.2072 -0.1838  0.0590
   89SAPS    HA 8563   4.814   6.594  10.586 -0.6727 -0.0299 -0.5877
   89SAPS    HB 8564   4.795   6.750  10.649  1.2118  0.8955  0.5502
   89SAPS    C2 8565   4.838   6.734  10.433  0.0707 -0.2101  0.1652
   89SAPS    HS 8566   4.888   6.665  10.362 -0.6960 -0.2985 -0.2957
   89SAPS   O21 8567   4.877   6.869  10.422  0.0563 -0.1428 -0.0818
   89SAPS   C21 8568   4.988   6.895  10.356  0.3627 -0.3790  0.0859
   89SAPS   O22 8569   5.055   6.811  10.295 -0.1208 -0.0735 -0.1960
   89SAPS   C22 8570   5.023   7.046  10.360 -0.4782  0.6200 -0.5318
   89SAPS   H2R 8571   5.050   7.080  10.462 -0.4847 -1.4208  0.1953
   89SAPS   H2S 8572   5.120   7.049  10.305 -0.5869  0.8328 -0.7148
   89SAPS    C3 8573   4.689   6.712  10.399 -0.0720 -0.0333  0.1863
   89SAPS    HX 8574   4.634   6.788  10.459  1.7166  0.6030  1.1054
   89SAPS    HY 8575   4.646   6.617  10.437  0.4685 -0.0292  0.8494
   89SAPS   O31 8576   4.669   6.726  10.259 -1.0471 -0.1789 -0.2787
   89SAPS   C31 8577   4.614   6.843  10.222 -0.8654 -0.5989  0.9351
   89SAPS   O32 8578   4.582   6.933  10.297  0.2338  0.1719 -0.4454
   89SAPS   C32 8579   4.603   6.848  10.071  0.0297  0.0043 -0.4191
   89SAPS   H2X 8580   4.616   6.745  10.031  1.8775 -0.9597  2.3558
   89SAPS   H2Y 8581   4.689   6.910  10.036 -0.1814  0.8637  0.5440
   89SAPS   C23 8582   4.923   7.141  10.304 -0.0882 -0.1742  0.3491
   89SAPS   H3R 8583   4.945   7.248  10.324 -1.0583  0.2145 -0.5625
   89SAPS   H3S 8584   4.815   7.136  10.331  0.1523 -0.4124  1.3000
   89SAPS   C24 8585   4.907   7.120  10.145  0.1825 -0.2719 -0.5850
   89SAPS   H4R 8586   4.818   7.174  10.108  1.6744  2.6532 -0.1899
   89SAPS   H4S 8587   4.885   7.011  10.136  0.3434 -0.5740  1.9780
   89SAPS   C25 8588   5.029   7.159  10.060  0.7424 -0.0628 -0.1309
   89SAPS   H5R 8589   5.093   7.235  10.109  2.4415 -0.6822 -1.3046
   89SAPS   C26 8590   5.072   7.103   9.950  0.2225 -0.2890  0.4941
   89SAPS   H6R 8591   5.158   7.145   9.896  0.6204 -0.9355  0.6213
   89SAPS   C27 8592   5.010   6.979   9.900  0.8503 -0.7899 -0.3028
   89SAPS   H7R 8593   5.009   6.973   9.789 -1.3438 -0.7859 -0.3383
   89SAPS   H7S 8594   4.899   6.982   9.908  0.8724 -1.5592  0.3572
   89SAPS   C28 8595   5.058   6.855   9.970 -0.2822  0.5660  0.6843
   89SAPS   H8R 8596   5.126   6.865  10.056  1.5345  0.3183 -0.6596
   89SAPS   C29 8597   5.022   6.727   9.936 -0.1198 -0.4730 -0.0603
   89SAPS   H9R 8598   5.064   6.645   9.996  0.8367 -1.3554 -1.8357
   89SAPS  C210 8599   4.930   6.688   9.823 -0.7229  0.1847 -0.4202
   89SAPS  H10R 8600   4.844   6.759   9.816 -0.7811  0.2716  0.9804
   89SAPS  H10S 8601   4.870   6.599   9.849 -0.8067  0.4272  0.2356
   89SAPS  C211 8602   5.001   6.673   9.689 -0.0353 -0.1169  1.0651
   89SAPS  H11R 8603   5.079   6.749   9.674 -0.5551  0.5782  1.7829
   89SAPS  C212 8604   4.964   6.592   9.588 -0.5021  0.1352  0.7265
   89SAPS  H12R 8605   5.014   6.590   9.490  1.4535 -0.9018  1.6916
   89SAPS  C213 8606   4.845   6.500   9.595 -0.0589 -0.8153 -0.1983
   89SAPS  H13R 8607   4.762   6.543   9.534 -1.4747 -3.0708  0.0456
   89SAPS  H13S 8608   4.804   6.492   9.698 -1.8270  2.4555 -0.4936
   89SAPS  C214 8609   4.866   6.366   9.541 -0.1279  0.6311  0.2395
   89SAPS  H14R 8610   4.965   6.321   9.559 -1.2110 -2.5952 -1.0501
   89SAPS  C215 8611   4.781   6.286   9.471  0.3310 -0.4522  0.2727
   89SAPS  H15R 8612   4.821   6.188   9.441  2.1115  0.5946 -0.9425
   89SAPS  C216 8613   4.633   6.320   9.434 -0.9153  0.1507  0.4978
   89SAPS  H16R 8614   4.603   6.425   9.453 -3.6068 -0.6531  1.0618
   89SAPS  H16S 8615   4.578   6.256   9.506  1.4769  0.0191  2.3261
   89SAPS  C217 8616   4.584   6.292   9.289 -0.1804 -0.4547  0.3365
   89SAPS  H17R 8617   4.620   6.377   9.227 -1.9788  0.4452  0.4630
   89SAPS  H17S 8618   4.473   6.294   9.294 -0.1864 -2.1021  3.1603
   89SAPS  C218 8619   4.633   6.155   9.236  0.4952 -0.2497  0.1158
   89SAPS  H18R 8620   4.598   6.085   9.315 -3.3995  1.7220  0.3728
   89SAPS  H18S 8621   4.743   6.161   9.224  0.4736 -1.3869 -0.8831
   89SAPS  C219 8622   4.567   6.121   9.104 -0.6567 -0.5305 -0.1740
   89SAPS  H19R 8623   4.460   6.147   9.119 -0.2778  0.6080  0.6721
   89SAPS  H19S 8624   4.565   6.010   9.093 -1.2013 -0.5442  0.0257
   89SAPS  C220 8625   4.634   6.192   8.983 -0.0099 -0.0878 -0.3607
   89SAPS  H20R 8626   4.568   6.206   8.894 -1.9520  0.4644  1.1095
   89SAPS  H20S 8627   4.725   6.137   8.949 -1.4740 -1.5332 -2.1438
   89SAPS  H20T 8628   4.671   6.292   9.017  0.5707 -0.5913  0.5248
   89SAPS   C33 8629   4.463   6.907  10.017 -0.3848  0.1855 -0.8515
   89SAPS   H3X 8630   4.444   6.997  10.079  0.6657 -0.7826  0.9769
   89SAPS   H3Y 8631   4.380   6.837  10.042 -1.0912  0.7457 -1.5931
   89SAPS   C34 8632   4.456   6.914   9.868  0.3560 -0.5399  0.1076
   89SAPS   H4X 8633   4.542   6.975   9.833 -0.9683  1.0405 -0.5282
   89SAPS   H4Y 8634   4.368   6.981   9.852  1.4243  0.5230 -1.5392
   89SAPS   C35 8635   4.435   6.782   9.798  0.1544  1.3531  0.0687
   89SAPS   H5X 8636   4.365   6.713   9.850  0.6442  0.0134 -1.0025
   89SAPS   H5Y 8637   4.534   6.731   9.800 -1.2161 -1.5420  1.6848
   89SAPS   C36 8638   4.378   6.792   9.653 -1.0833 -0.6549  0.3368
   89SAPS   H6X 8639   4.451   6.858   9.603 -1.2323 -0.4244  0.4234
   89SAPS   H6Y 8640   4.281   6.846   9.662 -0.1495  1.1924 -0.3299
   89SAPS   C37 8641   4.353   6.655   9.593  0.1452 -0.4207 -0.0935
   89SAPS   H7X 8642   4.264   6.620   9.649 -1.6250 -0.9196 -3.0183
   89SAPS   H7Y 8643   4.443   6.591   9.602  1.8925  1.9873  0.5426
   89SAPS   C38 8644   4.330   6.676   9.442  0.0167  0.4447  0.1473
   89SAPS   H8X 8645   4.421   6.693   9.380  0.5840  0.6997  1.0321
   89SAPS   H8Y 8646   4.271   6.769   9.442  0.8058  0.9724 -1.0328
   89SAPS   C39 8647   4.247   6.556   9.380 -0.3755  0.3512 -0.0130
   89SAPS   H9X 8648   4.167   6.524   9.450  1.4178 -1.2895  1.4004
   89SAPS   H9Y 8649   4.316   6.472   9.355  0.3582  0.7217  0.7005
   89SAPS  C310 8650   4.195   6.582   9.235  0.7059  0.1488  0.1912
   89SAPS  H10X 8651   4.103   6.640   9.258  1.4902  1.2564  0.6235
   89SAPS  H10Y 8652   4.165   6.487   9.186 -1.2110  0.7930  0.0167
   89SAPS  C311 8653   4.294   6.649   9.138 -0.1226 -0.2841 -0.4421
   89SAPS  H11X 8654   4.395   6.607   9.161 -0.3893 -0.0434  1.2577
   89SAPS  H11Y 8655   4.299   6.759   9.154  0.2557 -0.6454  2.4344
   89SAPS  C312 8656   4.265   6.631   8.989  0.0822  0.0530  0.1477
   89SAPS  H12X 8657   4.273   6.523   8.963 -0.8859  0.3684 -1.6662
   89SAPS  H12Y 8658   4.328   6.687   8.917 -2.1011 -0.0768 -2.0349
   89SAPS  C313 8659   4.117   6.661   8.950 -0.4238 -0.0396  0.5635
   89SAPS  H13X 8660   4.090   6.759   8.995 -0.9812  1.0401 -1.9168
   89SAPS  H13Y 8661   4.063   6.581   9.004  0.6312 -1.1504  0.0114
   89SAPS  C314 8662   4.092   6.675   8.803 -0.7759  0.5923  1.1933
   89SAPS  H14X 8663   4.183   6.729   8.772  0.7011 -1.3415  1.9550
   89SAPS  H14Y 8664   4.000   6.734   8.781 -0.3424  0.5681 -0.8308
   89SAPS  C315 8665   4.082   6.554   8.712  0.0815  0.1658  0.1451
   89SAPS  H15X 8666   4.001   6.483   8.736  1.2945 -0.6115  2.2368
   89SAPS  H15Y 8667   4.169   6.486   8.721 -1.2871 -1.5514  0.8446
   89SAPS  C316 8668   4.058   6.600   8.563 -0.6071  0.2607 -0.7561
   89SAPS  H16X 8669   4.014   6.702   8.565 -0.4927  0.3821 -2.7326
   89SAPS  H16Y 8670   3.975   6.542   8.518 -0.5806 -1.3955  1.1667
   89SAPS  C317 8671   4.188   6.587   8.486  0.4920 -0.0095  0.1264
   89SAPS  H17X 8672   4.234   6.486   8.486 -0.2061 -0.4105 -2.3880
   89SAPS  H17Y 8673   4.261   6.655   8.533  0.3279  0.0881  0.2418
   89SAPS  C318 8674   4.162   6.622   8.344 -0.0234 -0.2971  0.9314
   89SAPS  H18X 8675   4.139   6.524   8.297 -0.9120 -0.0727  0.8763
   89SAPS  H18Y 8676   4.246   6.679   8.299 -0.7681  0.2652  0.2358
   89SAPS  H18Z 8677   4.077   6.692   8.329 -0.7096 -1.2200  0.4059
   90SAPS     N 8678   5.647   6.360  10.938 -0.7500  0.6416  0.2306
   90SAPS   HN1 8679   5.725   6.413  10.895  1.0345  0.1509  2.7009
   90SAPS   HN2 8680   5.667   6.342  11.038 -0.1718  0.0112  0.0113
   90SAPS   HN3 8681   5.642   6.270  10.885 -2.5135  1.2820 -0.7877
   90SAPS   C12 8682   5.527   6.441  10.920  0.1403 -0.2325  0.1450
   90SAPS  H12A 8683   5.445   6.380  10.955  1.4878 -3.9091 -2.4858
   90SAPS   C13 8684   5.529   6.574  11.003  0.1229  0.2878  0.5255
   90SAPS  O13A 8685   5.625   6.605  11.070 -0.2941  0.0474 -0.2965
   90SAPS  O13B 8686   5.420   6.641  11.003 -0.1604 -0.1505  0.0934
   90SAPS   C11 8687   5.507   6.463  10.766 -0.6943 -0.0878  0.2672
   90SAPS  H11A 8688   5.602   6.514  10.738 -0.0336 -1.8365 -0.8507
   90SAPS  H11B 8689   5.426   6.536  10.745 -0.9327  0.0029  1.4613
   90SAPS     P 8690   5.369   6.266  10.647 -0.1111 -0.0632  0.5795
   90SAPS   O13 8691   5.405   6.150  10.558  1.0704 -0.7028  0.5480
   90SAPS   O14 8692   5.284   6.237  10.768 -0.6010 -0.1903  0.5623
   90SAPS   O12 8693   5.497   6.340  10.692 -0.4496 -0.1932  0.7145
   90SAPS   O11 8694   5.281   6.374  10.568 -0.3792 -0.3319 -0.8853
   90SAPS    C1 8695   5.143   6.345  10.521  0.0540 -0.3757 -0.2412
   90SAPS    HA 8696   5.104   6.255  10.574  2.9648 -1.7701 -0.2613
   90SAPS    HB 8697   5.079   6.431  10.550 -3.9126 -2.5932 -1.6170
   90SAPS    C2 8698   5.129   6.328  10.367 -0.3389 -0.3740  0.0860
   90SAPS    HS 8699   5.022   6.342  10.344 -0.0338 -0.6591 -1.6076
   90SAPS   O21 8700   5.186   6.206  10.331  0.4720  0.3574 -0.1675
   90SAPS   C21 8701   5.104   6.097  10.330 -0.3214  0.1468 -0.5413
   90SAPS   O22 8702   4.996   6.103  10.383  0.0125 -0.0217  0.0308
   90SAPS   C22 8703   5.166   5.978  10.254  0.4372  0.3745  0.3654
   90SAPS   H2R 8704   5.174   5.994  10.145  2.9337  0.8906  0.5619
   90SAPS   H2S 8705   5.266   5.951  10.293  0.6166 -0.5898 -0.7109
   90SAPS    C3 8706   5.197   6.443  10.290  0.2909  0.0678 -0.7461
   90SAPS    HX 8707   5.305   6.444  10.316  0.1996 -1.3367 -0.2158
   90SAPS    HY 8708   5.145   6.528  10.340 -5.0704 -3.3895  0.3343
   90SAPS   O31 8709   5.173   6.432  10.145  0.4412  0.1613  0.0498
   90SAPS   C31 8710   5.252   6.344  10.084 -0.1684 -0.0957 -0.2118
   90SAPS   O32 8711   5.351   6.290  10.127 -0.0549  0.0233  0.1901
   90SAPS   C32 8712   5.199   6.295   9.947 -0.7199 -0.0157 -1.1770
   90SAPS   H2X 8713   5.166   6.389   9.897 -0.5040  2.4633  2.8438
   90SAPS   H2Y 8714   5.110   6.229   9.960 -0.6403  0.2308  0.8511
   90SAPS   C23 8715   5.086   5.841  10.273 -0.2393  0.5654 -0.1082
   90SAPS   H3R 8716   4.985   5.847  10.227 -0.2878 -2.4033 -0.5489
   90SAPS   H3S 8717   5.071   5.814  10.380  3.7800  0.9661  0.6912
   90SAPS   C24 8718   5.159   5.730  10.191 -0.1266  0.5260 -0.0863
   90SAPS   H4R 8719   5.260   5.711  10.235  0.5214  0.3848 -1.5752
   90SAPS   H4S 8720   5.170   5.760  10.084 -1.4884  0.6401 -0.2084
   90SAPS   C25 8721   5.085   5.598  10.191 -0.2427  0.4619  0.1400
   90SAPS   H5R 8722   5.061   5.557  10.290  1.7413  2.4127  1.5335
   90SAPS   C26 8723   5.054   5.526  10.086  0.6066 -0.9813  0.0816
   90SAPS   H6R 8724   5.000   5.433  10.112 -2.5513  0.9182  0.8427
   90SAPS   C27 8725   5.090   5.550   9.940 -0.2500 -0.0817  0.4762
   90SAPS   H7R 8726   5.180   5.616   9.937  0.1453 -0.6395 -0.3065
   90SAPS   H7S 8727   5.015   5.618   9.893  0.5389 -0.0912 -0.8443
   90SAPS   C28 8728   5.131   5.434   9.849  0.0412 -0.0024  0.5893
   90SAPS   H8R 8729   5.183   5.355   9.904 -1.9778 -1.2933  0.7598
   90SAPS   C29 8730   5.096   5.409   9.722 -0.3145  0.1011  0.1902
   90SAPS   H9R 8731   5.125   5.309   9.684  0.0734  0.3783 -0.2563
   90SAPS  C210 8732   4.994   5.489   9.646  0.2132  0.0608  0.5046
   90SAPS  H10R 8733   4.958   5.581   9.697 -0.3921  0.4788 -0.6221
   90SAPS  H10S 8734   4.906   5.425   9.622  1.2430 -1.5924  0.9866
   90SAPS  C211 8735   5.054   5.537   9.511 -0.0750  0.4094  0.2425
   90SAPS  H11R 8736   5.113   5.629   9.509 -1.8937  1.6542 -2.7287
   90SAPS  C212 8737   5.049   5.476   9.392 -0.8530 -0.1718  0.3864
   90SAPS  H12R 8738   5.083   5.532   9.304 -0.9673 -0.3930  0.2013
   90SAPS  C213 8739   4.991   5.342   9.354 -0.0760 -1.1795 -0.3355
   90SAPS  H13R 8740   4.891   5.372   9.315  0.0647  0.8460  0.7375
   90SAPS  H13S 8741   4.974   5.274   9.441  2.4892  0.7032  1.7940
   90SAPS  C214 8742   5.061   5.263   9.245 -0.1426 -0.4131  0.4953
   90SAPS  H14R 8743   5.167   5.256   9.274 -0.0044  0.9774  0.3500
   90SAPS  C215 8744   5.018   5.221   9.119 -0.3414 -0.4927 -0.3553
   90SAPS  H15R 8745   5.091   5.150   9.079  0.9332  1.4397 -1.5827
   90SAPS  C216 8746   4.883   5.235   9.055  0.1892  0.0736 -0.5602
   90SAPS  H16R 8747   4.827   5.306   9.119  1.7671  1.1471 -0.3163
   90SAPS  H16S 8748   4.830   5.137   9.061  0.2010  0.1672  1.8544
   90SAPS  C217 8749   4.890   5.290   8.910  0.2186 -0.5183 -0.3956
   90SAPS  H17R 8750   4.920   5.397   8.911  0.2724 -0.5390  0.6099
   90SAPS  H17S 8751   4.786   5.291   8.871  0.9343 -1.9401 -2.5098
   90SAPS  C218 8752   4.972   5.203   8.813  0.1319  0.7290  0.5879
   90SAPS  H18R 8753   4.952   5.098   8.843  2.1755 -0.2004 -1.0187
   90SAPS  H18S 8754   5.076   5.238   8.831  0.3083  0.1735  0.6564
   90SAPS  C219 8755   4.942   5.220   8.665 -0.0545 -0.8680 -0.2250
   90SAPS  H19R 8756   5.016   5.159   8.609  0.4471 -0.8392  0.3933
   90SAPS  H19S 8757   4.957   5.326   8.636  0.6850 -1.2887 -1.4501
   90SAPS  C220 8758   4.813   5.173   8.602 -0.0032 -0.5524  0.3830
   90SAPS  H20R 8759   4.823   5.174   8.492  1.2047  0.8854  0.4792
   90SAPS  H20S 8760   4.723   5.234   8.624  0.6546  1.7384 -2.6642
   90SAPS  H20T 8761   4.784   5.068   8.625 -1.3197 -0.2271  0.3037
   90SAPS   C33 8762   5.314   6.212   9.883  1.1574  0.2764  0.4177
   90SAPS   H3X 8763   5.303   6.110   9.925 -0.0594  0.6806  1.1097
   90SAPS   H3Y 8764   5.410   6.259   9.916  0.2169  1.1472  1.9964
   90SAPS   C34 8765   5.306   6.211   9.724 -0.1751 -0.5058 -0.0314
   90SAPS   H4X 8766   5.408   6.193   9.685 -0.7508  1.0778 -2.5101
   90SAPS   H4Y 8767   5.280   6.313   9.687 -1.0791 -1.5922 -2.6514
   90SAPS   C35 8768   5.209   6.121   9.652 -0.7672 -0.3083  0.3538
   90SAPS   H5X 8769   5.107   6.157   9.676 -0.2714  2.5756 -1.3934
   90SAPS   H5Y 8770   5.227   6.016   9.682  1.9978 -0.2104 -0.6646
   90SAPS   C36 8771   5.233   6.118   9.506  0.1241  0.1534  0.8927
   90SAPS   H6X 8772   5.162   6.044   9.461  0.7736 -0.7142  1.2521
   90SAPS   H6Y 8773   5.333   6.074   9.484 -0.6647 -0.7389 -1.2177
   90SAPS   C37 8774   5.224   6.250   9.434 -0.3802  0.9020 -0.2204
   90SAPS   H7X 8775   5.306   6.318   9.467 -1.9579  2.3897  0.7857
   90SAPS   H7Y 8776   5.142   6.314   9.473  0.1614 -0.2081  3.1450
   90SAPS   C38 8777   5.216   6.245   9.279 -0.3008 -0.4995  0.7408
   90SAPS   H8X 8778   5.314   6.222   9.234 -0.2977  2.7617 -1.2574
   90SAPS   H8Y 8779   5.180   6.337   9.229 -1.3869 -1.8099 -0.9980
   90SAPS   C39 8780   5.111   6.145   9.228  0.0500  0.0525 -0.5272
   90SAPS   H9X 8781   5.014   6.162   9.281  0.3314 -2.6353  1.0101
   90SAPS   H9Y 8782   5.141   6.041   9.251 -0.2005  0.4220  1.6564
   90SAPS  C310 8783   5.100   6.161   9.080 -0.2817 -0.2085  0.0409
   90SAPS  H10X 8784   5.068   6.064   9.036  1.2691 -0.5376 -0.4172
   90SAPS  H10Y 8785   5.197   6.186   9.034 -0.6420  1.6566  0.2263
   90SAPS  C311 8786   4.994   6.259   9.034 -0.5483 -0.9700  0.3203
   90SAPS  H11X 8787   5.022   6.361   9.070  2.5045 -1.4069 -0.4902
   90SAPS  H11Y 8788   4.896   6.222   9.069 -1.0143 -2.5710 -2.3646
   90SAPS  C312 8789   4.992   6.266   8.887  0.5770 -0.3652 -0.0427
   90SAPS  H12X 8790   4.894   6.303   8.850  0.4313  0.9038  1.5058
   90SAPS  H12Y 8791   5.012   6.167   8.840 -0.9860 -0.4731 -0.5526
   90SAPS  C313 8792   5.107   6.353   8.838 -0.0372  0.1667  0.1005
   90SAPS  H13X 8793   5.161   6.313   8.749  0.9364  0.4535  0.5518
   90SAPS  H13Y 8794   5.196   6.360   8.904  2.7082 -0.3793 -3.2443
   90SAPS  C314 8795   5.060   6.490   8.794  0.2882  0.4452 -0.5912
   90SAPS  H14X 8796   5.026   6.550   8.880  1.9259 -0.0207  0.4234
   90SAPS  H14Y 8797   4.991   6.479   8.708  1.5762 -0.9811 -1.5156
   90SAPS  C315 8798   5.182   6.569   8.734 -0.5727 -0.8537 -0.0973
   90SAPS  H15X 8799   5.222   6.514   8.647  1.5079  0.5234 -0.0924
   90SAPS  H15Y 8800   5.265   6.583   8.807  0.3538 -0.4318 -1.2094
   90SAPS  C316 8801   5.146   6.715   8.686 -0.4148 -0.3874  0.5763
   90SAPS  H16X 8802   5.126   6.772   8.780  0.9262 -2.1798  2.0276
   90SAPS  H16Y 8803   5.053   6.711   8.625 -0.7745  1.2316  0.9628
   90SAPS  C317 8804   5.248   6.789   8.597  0.4141  0.1624  1.0609
   90SAPS  H17X 8805   5.263   6.712   8.518  0.1002  0.0742  1.0839
   90SAPS  H17Y 8806   5.340   6.802   8.658  1.3465  2.0528 -0.6545
   90SAPS  C318 8807   5.204   6.923   8.542  0.4282  0.2571  0.3049
   90SAPS  H18X 8808   5.108   6.920   8.487  1.1370  1.8541 -1.0943
   90SAPS  H18Y 8809   5.280   6.958   8.469  0.0834  1.0112  0.3072
   90SAPS  H18Z 8810   5.196   6.998   8.624  1.2453 -1.4250  2.0130
   91SAPS     N 8811   3.406   0.730   6.121  0.0131 -1.0592 -0.0115
   91SAPS   HN1 8812   3.374   0.680   6.207 -2.3672  1.2800  0.5990
   91SAPS   HN2 8813   3.478   0.677   6.068 -0.2723 -0.2415 -1.2536
   91SAPS   HN3 8814   3.458   0.813   6.157 -3.8399  0.3073  3.1917
   91SAPS   C12 8815   3.291   0.762   6.031  0.6480  0.9330  0.2068
   91SAPS  H12A 8816   3.224   0.821   6.093 -0.6475 -0.7591  0.4863
   91SAPS   C13 8817   3.321   0.829   5.897 -0.0159  0.0777 -0.1586
   91SAPS  O13A 8818   3.436   0.847   5.855 -0.1919 -0.0180 -0.4369
   91SAPS  O13B 8819   3.227   0.871   5.821 -0.2709 -0.0816  0.2251
   91SAPS   C11 8820   3.209   0.628   5.994 -0.0218 -0.0762 -0.2965
   91SAPS  H11A 8821   3.270   0.559   5.932  0.4700  0.0899 -0.0044
   91SAPS  H11B 8822   3.124   0.657   5.928 -0.3765 -0.2436  0.0886
   91SAPS     P 8823   3.045   0.462   6.119 -0.2021 -0.1749 -0.0592
   91SAPS   O13 8824   2.970   0.473   6.246  0.0685 -0.6312  0.0524
   91SAPS   O14 8825   2.965   0.470   5.996 -0.2863 -0.1506  0.3258
   91SAPS   O12 8826   3.160   0.565   6.116  0.1443 -0.2621 -0.0591
   91SAPS   O11 8827   3.116   0.315   6.112 -0.0594  0.3670 -0.3709
   91SAPS    C1 8828   3.239   0.297   6.186  0.3284 -0.6870  0.1062
   91SAPS    HA 8829   3.296   0.213   6.140  3.8069  0.1192  2.5715
   91SAPS    HB 8830   3.320   0.373   6.187 -0.1288 -0.1916 -0.3160
   91SAPS    C2 8831   3.198   0.256   6.340 -0.6444 -1.1875  0.4166
   91SAPS    HS 8832   3.156   0.345   6.393 -0.2186  0.4389 -1.8396
   91SAPS   O21 8833   3.314   0.207   6.406  0.3561  0.3308  0.1444
   91SAPS   C21 8834   3.382   0.282   6.483 -0.1785 -0.1277  0.5693
   91SAPS   O22 8835   3.366   0.404   6.495 -0.0891  0.3450  0.1483
   91SAPS   C22 8836   3.487   0.207   6.553  0.2380  0.8839  0.1226
   91SAPS   H2R 8837   3.449   0.108   6.586  0.2082 -0.1745 -2.7902
   91SAPS   H2S 8838   3.567   0.185   6.479  0.8354 -1.3253  1.3356
   91SAPS    C3 8839   3.093   0.146   6.345 -0.1545 -0.1626 -0.1484
   91SAPS    HX 8840   3.120   0.075   6.264  0.0934 -1.7896  1.3047
   91SAPS    HY 8841   3.001   0.196   6.308 -1.1504  0.6239  3.0419
   91SAPS   O31 8842   3.075   0.098   6.483 -0.1705  0.8408 -0.2802
   91SAPS   C31 8843   3.145  -0.016   6.508  0.3205 -0.2119 -0.2135
   91SAPS   O32 8844   3.231  -0.068   6.444  0.5469 -0.2729 -0.0456
   91SAPS   C32 8845   3.086  -0.095   6.633 -0.0700 -0.5437 -0.2219
   91SAPS   H2X 8846   3.140  -0.192   6.643  0.6584 -0.2017 -0.7864
   91SAPS   H2Y 8847   2.980  -0.118   6.608 -0.3929  0.9087 -0.2531
   91SAPS   C23 8848   3.553   0.289   6.671  0.5158  0.5182  0.6148
   91SAPS   H3R 8849   3.586   0.387   6.630 -0.3533 -0.3851 -2.5121
   91SAPS   H3S 8850   3.644   0.226   6.685 -1.2333 -2.3285 -0.0502
   91SAPS   C24 8851   3.464   0.292   6.795 -0.5630  0.2913 -0.9347
   91SAPS   H4R 8852   3.360   0.328   6.778 -0.6166  0.1444 -0.9138
   91SAPS   H4S 8853   3.514   0.373   6.853 -0.9022  1.6368 -2.4324
   91SAPS   C25 8854   3.468   0.170   6.882  0.0205 -0.1221  0.4195
   91SAPS   H5R 8855   3.396   0.092   6.854 -0.8376  0.7595  0.1410
   91SAPS   C26 8856   3.554   0.130   6.980 -0.2078 -0.5555  0.0463
   91SAPS   H6R 8857   3.543   0.033   7.030  0.1400 -0.0319  1.1578
   91SAPS   C27 8858   3.677   0.213   7.024 -0.0907 -0.3475  0.4781
   91SAPS   H7R 8859   3.695   0.191   7.132  3.5979 -0.3928  0.0070
   91SAPS   H7S 8860   3.651   0.320   7.006  0.2605 -0.3682 -0.1697
   91SAPS   C28 8861   3.800   0.173   6.935 -0.2352  0.0434 -0.8164
   91SAPS   H8R 8862   3.791   0.203   6.830  0.9984  2.9037 -0.1887
   91SAPS   C29 8863   3.887   0.075   6.979  0.0101  0.3105  0.3435
   91SAPS   H9R 8864   3.965   0.045   6.908  0.6684 -0.1309  1.2317
   91SAPS  C210 8865   3.887   0.014   7.115  0.4871 -0.2303 -0.2578
   91SAPS  H10R 8866   3.946  -0.079   7.106  0.2068 -0.5284  0.8658
   91SAPS  H10S 8867   3.787  -0.021   7.147  0.2653  0.1374 -0.5400
   91SAPS  C211 8868   3.938   0.090   7.235 -1.0336 -0.1393 -0.0907
   91SAPS  H11R 8869   4.024   0.153   7.208 -1.4132  0.0888 -0.7977
   91SAPS  C212 8870   3.887   0.101   7.361 -0.0886  1.0654 -0.1358
   91SAPS  H12R 8871   3.940   0.159   7.438 -1.7316  0.7430  1.2962
   91SAPS  C213 8872   3.761   0.048   7.414 -0.6094  0.4483 -0.3164
   91SAPS  H13R 8873   3.792  -0.002   7.508  0.6397 -0.0327 -0.9614
   91SAPS  H13S 8874   3.708  -0.019   7.342 -1.3152  1.1723 -0.4888
   91SAPS  C214 8875   3.663   0.163   7.446  0.2278  0.7115 -0.0969
   91SAPS  H14R 8876   3.624   0.213   7.356  1.0893  2.1814  0.3145
   91SAPS  C215 8877   3.613   0.200   7.566  0.2292  0.0769 -0.2746
   91SAPS  H15R 8878   3.531   0.274   7.570 -0.2653 -0.5254  2.5640
   91SAPS  C216 8879   3.652   0.141   7.695  0.0271  0.5221  0.6156
   91SAPS  H16R 8880   3.717   0.052   7.686 -1.8490 -0.7235 -1.5913
   91SAPS  H16S 8881   3.561   0.096   7.740 -0.7642  0.9932 -0.4709
   91SAPS  C217 8882   3.713   0.248   7.775 -0.1944  0.3074 -0.1230
   91SAPS  H17R 8883   3.640   0.329   7.792 -0.7558 -0.1778 -0.2072
   91SAPS  H17S 8884   3.806   0.291   7.731  0.2054 -1.5489 -1.2288
   91SAPS  C218 8885   3.726   0.202   7.918  0.3643  0.6197  0.2538
   91SAPS  H18R 8886   3.785   0.108   7.912  0.9255  0.8615  1.4987
   91SAPS  H18S 8887   3.624   0.171   7.951  0.7816 -1.7608 -0.4945
   91SAPS  C219 8888   3.804   0.289   8.012  0.4338 -0.4732  0.4487
   91SAPS  H19R 8889   3.743   0.381   8.020 -1.7370 -1.7030 -0.8936
   91SAPS  H19S 8890   3.905   0.314   7.972 -1.1451  1.3196 -2.8305
   91SAPS  C220 8891   3.818   0.229   8.156 -0.1683  0.2888  0.1665
   91SAPS  H20R 8892   3.720   0.204   8.203 -0.2685 -1.9023 -1.0752
   91SAPS  H20S 8893   3.858   0.311   8.220 -0.9079  1.0783 -0.3467
   91SAPS  H20T 8894   3.878   0.136   8.147 -1.1503 -0.2386 -1.5704
   91SAPS   C33 8895   3.092  -0.031   6.773  0.0627  0.0371 -0.6550
   91SAPS   H3X 8896   3.050   0.071   6.787 -0.2644 -0.1585 -0.1548
   91SAPS   H3Y 8897   3.200  -0.014   6.797  0.7581 -2.6407 -1.5292
   91SAPS   C34 8898   3.037  -0.125   6.881 -0.1124 -0.4689  0.1268
   91SAPS   H4X 8899   3.099  -0.217   6.883  0.7698  0.1218  0.5766
   91SAPS   H4Y 8900   2.934  -0.162   6.859  0.4940 -1.3782 -1.3933
   91SAPS   C35 8901   3.044  -0.054   7.018 -0.3388  0.2379 -0.2362
   91SAPS   H5X 8902   2.984  -0.110   7.093 -0.3909 -0.1083 -0.5326
   91SAPS   H5Y 8903   2.998   0.047   7.015  0.0909  0.4696  0.6224
   91SAPS   C36 8904   3.185  -0.036   7.073  0.7250 -0.5592 -0.0153
   91SAPS   H6X 8905   3.245   0.051   7.038  0.4249 -0.3922 -0.1211
   91SAPS   H6Y 8906   3.243  -0.122   7.034  1.2929 -0.6516  0.9899
   91SAPS   C37 8907   3.180  -0.015   7.229 -0.1778 -0.3951 -0.9433
   91SAPS   H7X 8908   3.123  -0.098   7.274  0.9437 -0.6171  0.1399
   91SAPS   H7Y 8909   3.123   0.079   7.250 -0.4176 -0.8362  0.5105
   91SAPS   C38 8910   3.317   0.007   7.285  0.1569  0.3430  0.2767
   91SAPS   H8X 8911   3.366   0.096   7.241 -0.1019  0.4043  0.1094
   91SAPS   H8Y 8912   3.372  -0.088   7.264 -0.9109 -1.2099  3.7699
   91SAPS   C39 8913   3.311  -0.006   7.435 -0.4786  0.6419  0.2940
   91SAPS   H9X 8914   3.410  -0.040   7.472 -0.8076 -0.3486  0.2791
   91SAPS   H9Y 8915   3.240  -0.086   7.463  2.2737 -1.5046  1.6653
   91SAPS  C310 8916   3.272   0.129   7.498  0.1101  0.3353 -0.4989
   91SAPS  H10X 8917   3.169   0.145   7.460 -0.2762 -0.5322  0.1544
   91SAPS  H10Y 8918   3.349   0.199   7.459  2.1861 -0.7445  1.4720
   91SAPS  C311 8919   3.257   0.138   7.648  0.5933  0.2700 -0.4673
   91SAPS  H11X 8920   3.244   0.243   7.682 -0.7889 -0.2766  0.8097
   91SAPS  H11Y 8921   3.350   0.103   7.699  1.1126 -0.3909 -1.8071
   91SAPS  C312 8922   3.138   0.057   7.706  0.8775 -1.0329 -0.5015
   91SAPS  H12X 8923   3.136  -0.046   7.666  0.5407 -0.9782 -0.6270
   91SAPS  H12Y 8924   3.042   0.104   7.676  0.0319 -1.2016  1.7546
   91SAPS  C313 8925   3.143   0.058   7.861  0.0202  0.4465  0.2730
   91SAPS  H13X 8926   3.235   0.012   7.902 -0.3895 -1.7394 -1.1379
   91SAPS  H13Y 8927   3.065  -0.015   7.891  0.3634  0.1793  0.5282
   91SAPS  C314 8928   3.110   0.185   7.931 -0.0383 -0.2220  0.4994
   91SAPS  H14X 8929   3.020   0.233   7.885 -0.6318 -0.9094  0.9229
   91SAPS  H14Y 8930   3.202   0.247   7.920 -0.5562  0.6477  0.9356
   91SAPS  C315 8931   3.100   0.166   8.085 -0.5640  0.2620 -0.6300
   91SAPS  H15X 8932   3.053   0.067   8.102  1.3699 -1.1800 -2.9964
   91SAPS  H15Y 8933   3.023   0.236   8.124  2.9588  3.3125  1.5235
   91SAPS  C316 8934   3.224   0.194   8.169 -0.1684  0.4196  0.4008
   91SAPS  H16X 8935   3.309   0.129   8.138 -1.1162 -1.8283  2.2091
   91SAPS  H16Y 8936   3.190   0.170   8.272  1.0643  1.0348  0.9649
   91SAPS  C317 8937   3.275   0.339   8.159 -0.0489 -0.6374 -0.4182
   91SAPS  H17X 8938   3.206   0.413   8.205  1.5281 -0.0635  1.1387
   91SAPS  H17Y 8939   3.300   0.368   8.054 -2.7581 -2.0683 -1.5454
   91SAPS  C318 8940   3.408   0.364   8.236  0.1496  0.4988 -0.4385
   91SAPS  H18X 8941   3.421   0.474   8.243  0.3500  0.4003  0.9684
   91SAPS  H18Y 8942   3.496   0.313   8.191  0.1880  0.2455 -0.0748
   91SAPS  H18Z 8943   3.410   0.320   8.337  0.0335  0.4278 -0.4671
   92SAPS     N 8944   4.485   4.049   6.279 -1.2131 -0.6970  0.0808
   92SAPS   HN1 8945   4.443   4.015   6.368  2.2848  1.0849  2.6294
   92SAPS   HN2 8946   4.556   4.120   6.304  1.6871 -1.3395 -4.9639
   92SAPS   HN3 8947   4.410   4.087   6.218 -0.3205  0.9570 -0.0247
   92SAPS   C12 8948   4.559   3.949   6.199  0.4913  0.0490 -0.3774
   92SAPS  H12A 8949   4.485   3.882   6.157 -0.2591  1.0422 -0.6576
   92SAPS   C13 8950   4.636   4.026   6.087  0.4543  0.1020 -0.0659
   92SAPS  O13A 8951   4.613   4.146   6.065 -0.3567 -0.0463 -0.1511
   92SAPS  O13B 8952   4.686   3.954   5.999 -0.1753  0.7321 -0.4823
   92SAPS   C11 8953   4.650   3.867   6.290  0.1752 -0.4969 -0.9365
   92SAPS  H11A 8954   4.724   3.933   6.340  0.5532 -0.6328 -1.3080
   92SAPS  H11B 8955   4.712   3.805   6.222 -0.3863 -2.4907  0.2816
   92SAPS     P 8956   4.586   3.649   6.418  0.1600  0.0790  0.4127
   92SAPS   O13 8957   4.468   3.581   6.362  0.0219  0.4920  0.2413
   92SAPS   O14 8958   4.712   3.585   6.375 -0.3090  0.2824  0.2938
   92SAPS   O12 8959   4.570   3.797   6.393 -0.0954 -0.4002  0.4340
   92SAPS   O11 8960   4.576   3.652   6.572  0.2802  0.2903 -0.5010
   92SAPS    C1 8961   4.514   3.747   6.657  0.3177  0.3100 -0.7782
   92SAPS    HA 8962   4.539   3.852   6.630  0.1868  0.1304 -1.6186
   92SAPS    HB 8963   4.404   3.735   6.647  0.3932 -1.9436  0.5692
   92SAPS    C2 8964   4.556   3.726   6.805 -0.4628  0.0064 -0.4802
   92SAPS    HS 8965   4.663   3.757   6.811 -0.7889  1.1071  0.0092
   92SAPS   O21 8966   4.544   3.592   6.853 -0.4348  0.1335  0.3820
   92SAPS   C21 8967   4.621   3.562   6.960 -0.1986  0.2387 -0.4478
   92SAPS   O22 8968   4.712   3.629   7.001  0.2351  0.5115 -0.0676
   92SAPS   C22 8969   4.593   3.418   7.002  0.3008  0.9722 -0.6168
   92SAPS   H2R 8970   4.488   3.407   7.036  0.2072  1.1080 -0.8530
   92SAPS   H2S 8971   4.592   3.354   6.911 -3.4857  1.4281 -1.0326
   92SAPS    C3 8972   4.474   3.818   6.899 -0.5274 -0.4020  0.6139
   92SAPS    HX 8973   4.371   3.779   6.889 -0.6870  0.1890 -0.0848
   92SAPS    HY 8974   4.467   3.917   6.849  0.5864 -0.3671  0.4924
   92SAPS   O31 8975   4.523   3.830   7.034 -0.0864  0.0757 -0.0450
   92SAPS   C31 8976   4.635   3.903   7.051 -0.6141 -0.6747  0.5114
   92SAPS   O32 8977   4.689   3.962   6.955 -0.0002  0.0812 -0.6522
   92SAPS   C32 8978   4.674   3.914   7.199  0.6527 -0.4249  0.7080
   92SAPS   H2X 8979   4.605   3.842   7.247 -0.2861  0.6009  0.9140
   92SAPS   H2Y 8980   4.639   4.009   7.243 -3.4492 -2.2519  1.9038
   92SAPS   C23 8981   4.696   3.374   7.115  0.6847 -0.5075  0.2061
   92SAPS   H3R 8982   4.799   3.393   7.078  0.7540  0.0767  0.6994
   92SAPS   H3S 8983   4.699   3.263   7.125  3.3477 -0.5705 -0.5537
   92SAPS   C24 8984   4.668   3.438   7.256 -0.6895 -0.4492  0.9070
   92SAPS   H4R 8985   4.688   3.544   7.230 -0.1705  0.3046  4.0176
   92SAPS   H4S 8986   4.746   3.401   7.326 -0.2587  0.5168  0.9570
   92SAPS   C25 8987   4.535   3.399   7.300 -0.1685  0.1457  0.4857
   92SAPS   H5R 8988   4.518   3.293   7.277  1.5588 -0.1130  0.3268
   92SAPS   C26 8989   4.448   3.481   7.366 -1.3957 -0.3693 -1.1561
   92SAPS   H6R 8990   4.352   3.435   7.394 -0.8996 -0.4563  0.4645
   92SAPS   C27 8991   4.465   3.628   7.400  0.2919  0.1744 -0.4262
   92SAPS   H7R 8992   4.364   3.674   7.390  0.2041 -0.3246 -2.0075
   92SAPS   H7S 8993   4.522   3.689   7.326  0.7714  1.7731  1.1744
   92SAPS   C28 8994   4.517   3.663   7.544  0.1544  0.0829  0.2604
   92SAPS   H8R 8995   4.619   3.627   7.565  0.3235  0.8465  0.7501
   92SAPS   C29 8996   4.452   3.713   7.645 -0.0708  0.7128 -0.4766
   92SAPS   H9R 8997   4.512   3.744   7.732  1.4763  1.3892 -1.7414
   92SAPS  C210 8998   4.308   3.760   7.638  0.4955  0.1461 -0.8405
   92SAPS  H10R 8999   4.251   3.670   7.606  2.2745 -1.0184 -0.8562
   92SAPS  H10S 9000   4.288   3.838   7.561  3.3341  0.3980 -1.4313
   92SAPS  C211 9001   4.250   3.788   7.774 -0.4689 -0.7038  0.6404
   92SAPS  H11R 9002   4.286   3.730   7.861  1.8477  0.9165  0.8668
   92SAPS  C212 9003   4.174   3.900   7.801 -0.3911  0.1819 -0.4554
   92SAPS  H12R 9004   4.159   3.917   7.908  0.6742  1.6293 -0.5039
   92SAPS  C213 9005   4.120   4.012   7.708  0.1259  0.2743 -0.3511
   92SAPS  H13R 9006   4.011   4.004   7.691  0.0647 -0.0903  0.1830
   92SAPS  H13S 9007   4.172   4.014   7.609 -0.8748 -1.5011 -0.9618
   92SAPS  C214 9008   4.147   4.137   7.787  0.1596  0.6315 -0.0192
   92SAPS  H14R 9009   4.254   4.162   7.785  0.1958  0.6893 -3.3221
   92SAPS  C215 9010   4.061   4.222   7.854 -0.0888 -0.1357  0.0961
   92SAPS  H15R 9011   4.104   4.312   7.901 -1.1183 -0.1525  1.1181
   92SAPS  C216 9012   3.907   4.208   7.869 -0.3563  0.1059 -0.3140
   92SAPS  H16R 9013   3.873   4.113   7.822  0.7639 -1.2213  1.4336
   92SAPS  H16S 9014   3.867   4.291   7.807 -0.1126  1.3295  1.1204
   92SAPS  C217 9015   3.846   4.220   8.010  0.9430  0.3040 -0.0936
   92SAPS  H17R 9016   3.877   4.313   8.063  0.3136  1.5807 -1.8472
   92SAPS  H17S 9017   3.879   4.133   8.070 -2.4094 -1.1472 -0.1677
   92SAPS  C218 9018   3.691   4.218   8.025  0.4472 -0.0840  0.1527
   92SAPS  H18R 9019   3.636   4.150   7.955  0.9275  0.9072 -1.2434
   92SAPS  H18S 9020   3.668   4.325   8.004  2.5858  0.4564  0.3703
   92SAPS  C219 9021   3.632   4.188   8.157  0.1180  0.6847 -0.4655
   92SAPS  H19R 9022   3.644   4.083   8.190 -1.1673  0.6152 -0.1744
   92SAPS  H19S 9023   3.525   4.217   8.164  0.1094  0.3498  1.0549
   92SAPS  C220 9024   3.695   4.276   8.272 -1.0297  0.1974 -0.5649
   92SAPS  H20R 9025   3.680   4.385   8.253  3.0407  1.2412  1.0566
   92SAPS  H20S 9026   3.805   4.260   8.267 -0.7520  1.1651  1.2892
   92SAPS  H20T 9027   3.653   4.249   8.371  0.7224  0.2666  0.2370
   92SAPS   C33 9028   4.815   3.870   7.231 -0.0251 -0.1950  0.4409
   92SAPS   H3X 9029   4.884   3.953   7.203 -1.6219  1.3408  0.8489
   92SAPS   H3Y 9030   4.833   3.783   7.165  0.8018  0.3633 -0.0925
   92SAPS   C34 9031   4.846   3.824   7.374  0.7393 -0.4405  0.7909
   92SAPS   H4X 9032   4.923   3.745   7.365 -0.2344 -1.3244 -0.0594
   92SAPS   H4Y 9033   4.748   3.783   7.407 -0.8924  0.9804 -1.8562
   92SAPS   C35 9034   4.901   3.934   7.464 -0.3387  0.8436 -0.3994
   92SAPS   H5X 9035   4.848   4.031   7.451 -0.7389  0.4003 -2.1972
   92SAPS   H5Y 9036   5.007   3.965   7.448  0.0590 -0.1809  0.1837
   92SAPS   C36 9037   4.887   3.871   7.609 -0.2112 -0.4225 -0.0256
   92SAPS   H6X 9038   4.960   3.788   7.617  0.4072  0.0119 -0.9169
   92SAPS   H6Y 9039   4.788   3.830   7.637 -0.7899  1.5138  0.9380
   92SAPS   C37 9040   4.927   3.985   7.715 -0.4183 -0.2898  0.1037
   92SAPS   H7X 9041   4.843   4.058   7.713  0.0759  0.2945  0.2654
   92SAPS   H7Y 9042   5.019   4.035   7.676  0.1629 -0.8745  0.6990
   92SAPS   C38 9043   4.958   3.925   7.857 -0.4579 -0.1773  0.2623
   92SAPS   H8X 9044   5.009   4.010   7.909  0.6608 -0.8759  0.3386
   92SAPS   H8Y 9045   5.035   3.848   7.837 -0.5400  0.5655 -3.6416
   92SAPS   C39 9046   4.833   3.881   7.928 -0.1881  0.1194  0.7785
   92SAPS   H9X 9047   4.793   3.799   7.864  1.9895 -1.3170  1.1262
   92SAPS   H9Y 9048   4.768   3.968   7.952 -0.3307  0.0115  0.7814
   92SAPS  C310 9049   4.881   3.821   8.060 -1.0813 -0.6808  0.1489
   92SAPS  H10X 9050   4.916   3.909   8.117  2.7094 -0.5600 -2.0361
   92SAPS  H10Y 9051   4.972   3.758   8.051  0.6892  1.3838  2.4662
   92SAPS  C311 9052   4.773   3.756   8.146 -0.6616  0.5311 -0.6510
   92SAPS  H11X 9053   4.737   3.662   8.097  0.4304  0.4091 -1.2556
   92SAPS  H11Y 9054   4.687   3.826   8.139  0.5865  2.2466  0.5386
   92SAPS  C312 9055   4.817   3.719   8.287 -0.1440 -0.2388 -0.4525
   92SAPS  H12X 9056   4.810   3.804   8.359  0.3293  0.8385 -1.6271
   92SAPS  H12Y 9057   4.926   3.701   8.273  0.3958  0.6622  2.0374
   92SAPS  C313 9058   4.748   3.601   8.355 -0.0289 -0.0117 -0.1242
   92SAPS  H13X 9059   4.817   3.550   8.425  1.4041  0.7355 -0.9422
   92SAPS  H13Y 9060   4.727   3.523   8.279 -0.8397 -2.0520  2.0667
   92SAPS  C314 9061   4.610   3.642   8.404  0.6562 -0.5017 -0.9752
   92SAPS  H14X 9062   4.546   3.692   8.328  1.6625  0.7395 -1.0372
   92SAPS  H14Y 9063   4.623   3.724   8.477 -0.4618  0.8322 -2.2187
   92SAPS  C315 9064   4.521   3.530   8.463  0.4700  0.2142  0.4686
   92SAPS  H15X 9065   4.505   3.456   8.382 -1.5641  1.5173 -0.4072
   92SAPS  H15Y 9066   4.423   3.573   8.491 -0.4800  0.4419 -2.7800
   92SAPS  C316 9067   4.582   3.473   8.587  0.5623  0.1041  0.1965
   92SAPS  H16X 9068   4.586   3.552   8.665  1.3790 -0.1984  0.4707
   92SAPS  H16Y 9069   4.682   3.427   8.571  0.4110  0.1216 -0.9195
   92SAPS  C317 9070   4.491   3.353   8.646  0.0912  0.2852  1.3687
   92SAPS  H17X 9071   4.501   3.264   8.580 -1.1366  0.6413  0.6871
   92SAPS  H17Y 9072   4.384   3.380   8.639 -0.0697 -0.5521  0.3010
   92SAPS  C318 9073   4.530   3.323   8.787 -0.4356 -0.5001  0.0275
   92SAPS  H18X 9074   4.492   3.401   8.856 -0.6967  0.5300 -1.2285
   92SAPS  H18Y 9075   4.640   3.311   8.795 -0.3317  0.1414 -0.3354
   92SAPS  H18Z 9076   4.468   3.237   8.819  1.1212 -1.6925 -0.0615
   93SAPS     N 9077   4.257   2.111   6.342  0.7129  0.0712  0.1504
   93SAPS   HN1 9078   4.183   2.098   6.270  2.4448 -2.5616 -1.3143
   93SAPS   HN2 9079   4.254   2.022   6.395 -2.3540 -0.3273 -0.5367
   93SAPS   HN3 9080   4.235   2.191   6.405 -1.8995 -0.1320 -0.4143
   93SAPS   C12 9081   4.386   2.131   6.270 -0.1634  0.0049  0.2379
   93SAPS  H12A 9082   4.438   2.039   6.292 -2.6264 -1.3542  0.8726
   93SAPS   C13 9083   4.381   2.139   6.118  0.2704  0.1380  0.1676
   93SAPS  O13A 9084   4.287   2.075   6.066 -0.7558  0.3823  0.0984
   93SAPS  O13B 9085   4.482   2.180   6.052  0.2000  0.6552 -0.6482
   93SAPS   C11 9086   4.457   2.260   6.333  0.1344  0.4601 -0.4984
   93SAPS  H11A 9087   4.562   2.260   6.298  0.2422  2.1107 -0.2278
   93SAPS  H11B 9088   4.468   2.244   6.442 -0.0090 -0.3254 -0.5893
   93SAPS     P 9089   4.309   2.465   6.399 -0.4758 -0.0651 -0.0606
   93SAPS   O13 9090   4.242   2.558   6.313 -0.2087  0.7239 -0.2896
   93SAPS   O14 9091   4.222   2.389   6.496 -0.5682  0.4323  0.0736
   93SAPS   O12 9092   4.392   2.377   6.299  0.5038  0.0523  0.1520
   93SAPS   O11 9093   4.416   2.549   6.476 -0.4775 -0.5360 -0.6443
   93SAPS    C1 9094   4.511   2.503   6.574 -0.1303  0.5796  0.3099
   93SAPS    HA 9095   4.523   2.393   6.583 -1.1013  0.5901  2.3066
   93SAPS    HB 9096   4.611   2.543   6.548  0.5317 -0.4215  1.1736
   93SAPS    C2 9097   4.499   2.552   6.719 -0.4067 -0.1016  0.0009
   93SAPS    HS 9098   4.406   2.506   6.760 -1.5965  3.1681  1.3478
   93SAPS   O21 9099   4.481   2.694   6.715 -0.3035 -0.4499  0.6782
   93SAPS   C21 9100   4.411   2.751   6.811  1.1203  0.4625  0.1166
   93SAPS   O22 9101   4.342   2.688   6.890  0.8304 -0.3958  0.3736
   93SAPS   C22 9102   4.435   2.902   6.814 -0.7854  0.1875  0.4645
   93SAPS   H2R 9103   4.527   2.914   6.753 -1.3445 -0.2003 -0.4703
   93SAPS   H2S 9104   4.350   2.941   6.753 -1.0001 -0.3148  0.4412
   93SAPS    C3 9105   4.620   2.523   6.810  0.0011 -0.1646  0.9291
   93SAPS    HX 9106   4.599   2.566   6.910 -1.6172  0.1640  0.4780
   93SAPS    HY 9107   4.704   2.574   6.758 -0.7012  0.9695  0.8735
   93SAPS   O31 9108   4.642   2.381   6.819  0.1023  0.1709  0.0580
   93SAPS   C31 9109   4.701   2.338   6.931 -0.6354 -1.0495  0.0899
   93SAPS   O32 9110   4.759   2.410   7.011 -0.2378 -0.2544  0.4058
   93SAPS   C32 9111   4.673   2.186   6.938  0.3396  0.3654 -1.0936
   93SAPS   H2X 9112   4.706   2.135   6.844 -3.0820 -3.5781 -0.5124
   93SAPS   H2Y 9113   4.563   2.182   6.955  0.2645 -0.2346 -1.6331
   93SAPS   C23 9114   4.418   2.970   6.947 -0.2394  0.0786 -0.5405
   93SAPS   H3R 9115   4.322   2.943   6.996  0.2852  0.8022  0.9390
   93SAPS   H3S 9116   4.417   3.079   6.929  0.0455  0.5635  2.0487
   93SAPS   C24 9117   4.545   2.958   7.034 -1.8254  0.2550  0.7273
   93SAPS   H4R 9118   4.622   3.011   6.974 -2.2691  1.0820  0.8730
   93SAPS   H4S 9119   4.576   2.852   7.049  1.6965  1.0920  0.3468
   93SAPS   C25 9120   4.521   3.029   7.167 -0.3774 -0.2440  0.4134
   93SAPS   H5R 9121   4.496   3.133   7.142  0.9065 -0.2053 -0.8629
   93SAPS   C26 9122   4.535   2.991   7.299  0.6073  0.2931  0.1657
   93SAPS   H6R 9123   4.482   3.052   7.374 -0.0222 -0.2870  0.2073
   93SAPS   C27 9124   4.587   2.855   7.346  1.0052 -0.2649  0.8108
   93SAPS   H7R 9125   4.639   2.809   7.260  0.5537  0.0685  0.3566
   93SAPS   H7S 9126   4.502   2.789   7.374  0.9779 -0.1417  1.0240
   93SAPS   C28 9127   4.669   2.864   7.471  0.7409  0.1115 -0.7043
   93SAPS   H8R 9128   4.691   2.967   7.503 -1.6979  0.9626 -1.4713
   93SAPS   C29 9129   4.726   2.761   7.539 -0.3109  0.3941  0.0448
   93SAPS   H9R 9130   4.779   2.790   7.632 -1.6338 -0.8619  1.2295
   93SAPS  C210 9131   4.711   2.615   7.505  0.5683 -0.3921  0.4148
   93SAPS  H10R 9132   4.650   2.603   7.413 -2.4116 -1.8280  2.4299
   93SAPS  H10S 9133   4.635   2.565   7.568 -2.0000  0.2626 -1.9452
   93SAPS  C211 9134   4.845   2.537   7.474  0.2528 -0.1328  0.3068
   93SAPS  H11R 9135   4.901   2.581   7.389  0.5083  0.7714  0.9176
   93SAPS  C212 9136   4.905   2.448   7.553 -0.3969 -0.3075  0.2760
   93SAPS  H12R 9137   5.005   2.413   7.524 -0.0269 -1.7600  2.9674
   93SAPS  C213 9138   4.856   2.396   7.683 -0.1324  0.6442  0.1879
   93SAPS  H13R 9139   4.780   2.318   7.657 -0.7801  1.5310 -0.6498
   93SAPS  H13S 9140   4.795   2.467   7.742  0.2635  0.7608  0.4601
   93SAPS  C214 9141   4.958   2.341   7.785 -0.2986  0.1793 -0.5397
   93SAPS  H14R 9142   5.039   2.287   7.734 -1.8208 -2.0654 -0.7099
   93SAPS  C215 9143   4.958   2.355   7.917 -0.1098 -0.4368 -0.9167
   93SAPS  H15R 9144   5.049   2.322   7.969 -0.4932 -0.5869 -0.3406
   93SAPS  C216 9145   4.859   2.429   8.002  0.5080 -0.7004  0.7415
   93SAPS  H16R 9146   4.774   2.363   8.031  0.3255  0.0491  1.9855
   93SAPS  H16S 9147   4.819   2.515   7.944  1.8726  1.2615  2.5636
   93SAPS  C217 9148   4.919   2.492   8.125 -0.2101  0.3066  0.0379
   93SAPS  H17R 9149   4.983   2.577   8.095 -1.9271  1.0104 -1.8686
   93SAPS  H17S 9150   4.981   2.421   8.184  0.0295 -2.0459 -2.8068
   93SAPS  C218 9151   4.813   2.551   8.218 -0.7221 -0.2529 -0.3474
   93SAPS  H18R 9152   4.736   2.475   8.243  1.2579 -2.0123  0.7128
   93SAPS  H18S 9153   4.763   2.629   8.156 -1.3612 -2.9633 -3.5023
   93SAPS  C219 9154   4.877   2.627   8.332 -0.8556 -0.5514  0.3601
   93SAPS  H19R 9155   4.953   2.691   8.283  0.1745 -1.0342  1.3070
   93SAPS  H19S 9156   4.930   2.556   8.398  1.6722  1.0153  0.1404
   93SAPS  C220 9157   4.781   2.715   8.414  0.6961  0.4290 -0.3364
   93SAPS  H20R 9158   4.841   2.759   8.497  0.2008 -2.4112  1.6878
   93SAPS  H20S 9159   4.712   2.646   8.467  2.4112 -3.6507 -2.9127
   93SAPS  H20T 9160   4.728   2.797   8.362  1.7811  1.4331  0.0851
   93SAPS   C33 9161   4.753   2.114   7.048  0.3472 -1.3304 -0.1233
   93SAPS   H3X 9162   4.716   2.153   7.146 -1.2600 -2.2820 -0.3100
   93SAPS   H3Y 9163   4.861   2.129   7.031 -0.0284  0.6378 -1.1157
   93SAPS   C34 9164   4.720   1.960   7.041  0.9716  0.2182  0.2408
   93SAPS   H4X 9165   4.738   1.917   6.940 -1.9000 -0.2295 -0.1518
   93SAPS   H4Y 9166   4.611   1.939   7.039  0.9282  0.5070 -0.6363
   93SAPS   C35 9167   4.800   1.880   7.151 -0.1782  0.0192  0.2873
   93SAPS   H5X 9168   4.902   1.925   7.159  0.1030 -0.5226 -0.2048
   93SAPS   H5Y 9169   4.805   1.771   7.129  0.2657  0.3323 -1.2329
   93SAPS   C36 9170   4.730   1.900   7.285 -0.1184 -0.4849 -0.3497
   93SAPS   H6X 9171   4.636   1.841   7.288 -0.8318  0.6564  1.1381
   93SAPS   H6Y 9172   4.701   2.007   7.292 -0.9765 -0.5703 -2.0333
   93SAPS   C37 9173   4.806   1.860   7.404 -0.5358  0.7025  0.0675
   93SAPS   H7X 9174   4.889   1.929   7.431  0.3976  0.5588 -2.2671
   93SAPS   H7Y 9175   4.860   1.767   7.377  1.8247  2.7066 -2.6402
   93SAPS   C38 9176   4.712   1.840   7.528 -0.4354  0.5777 -0.2949
   93SAPS   H8X 9177   4.620   1.783   7.504 -0.9777  1.0067  0.7108
   93SAPS   H8Y 9178   4.671   1.937   7.563  1.2132  0.4703  2.1893
   93SAPS   C39 9179   4.782   1.783   7.659 -0.6336 -0.5875  0.3831
   93SAPS   H9X 9180   4.856   1.856   7.699 -0.8878 -1.0932  1.8531
   93SAPS   H9Y 9181   4.847   1.697   7.631 -0.6117 -0.4133 -0.1051
   93SAPS  C310 9182   4.681   1.759   7.767  0.0231  0.1555 -0.2504
   93SAPS  H10X 9183   4.642   1.656   7.753 -0.1756  0.2996 -0.7758
   93SAPS  H10Y 9184   4.592   1.825   7.764  0.0032  0.1044 -1.7971
   93SAPS  C311 9185   4.735   1.766   7.915 -0.7101  0.3762  0.1267
   93SAPS  H11X 9186   4.789   1.864   7.922  0.7660 -0.5085  2.5070
   93SAPS  H11Y 9187   4.807   1.681   7.920 -0.9612  0.1439 -0.2014
   93SAPS  C312 9188   4.618   1.740   8.012  0.3548 -0.3953  0.4453
   93SAPS  H12X 9189   4.585   1.637   7.989 -0.8001 -0.2865  1.5690
   93SAPS  H12Y 9190   4.533   1.809   7.995  1.1710  0.4373 -0.4460
   93SAPS  C313 9191   4.650   1.750   8.163 -0.2904 -0.3868  0.0635
   93SAPS  H13X 9192   4.665   1.857   8.186 -1.6887 -0.2792  0.5223
   93SAPS  H13Y 9193   4.743   1.690   8.176  1.0223  1.5253 -0.0760
   93SAPS  C314 9194   4.531   1.696   8.244 -0.5357  0.6385 -0.1540
   93SAPS  H14X 9195   4.538   1.586   8.231  2.8571  0.8816 -1.6345
   93SAPS  H14Y 9196   4.440   1.748   8.208 -0.1516  1.3277 -0.1343
   93SAPS  C315 9197   4.541   1.720   8.401 -0.2089 -0.1345  0.4756
   93SAPS  H15X 9198   4.503   1.824   8.415 -0.4943 -0.0981 -0.4597
   93SAPS  H15Y 9199   4.647   1.708   8.432  0.0918 -2.3882 -1.1472
   93SAPS  C316 9200   4.454   1.637   8.496  0.4950 -0.2653 -0.0509
   93SAPS  H16X 9201   4.360   1.605   8.447  1.4269 -3.0520 -0.1712
   93SAPS  H16Y 9202   4.440   1.694   8.590  0.7216 -3.0051  1.7300
   93SAPS  C317 9203   4.527   1.503   8.523 -0.1031 -0.0237  0.3410
   93SAPS  H17X 9204   4.632   1.522   8.553  0.3934 -0.9928 -0.6735
   93SAPS  H17Y 9205   4.535   1.456   8.422  1.4581  1.5308 -0.3175
   93SAPS  C318 9206   4.456   1.412   8.620 -0.5297 -0.1256 -0.0598
   93SAPS  H18X 9207   4.353   1.387   8.586  0.2649 -1.6418 -1.4907
   93SAPS  H18Y 9208   4.444   1.466   8.717 -1.5400 -0.3730 -0.0318
   93SAPS  H18Z 9209   4.519   1.324   8.642  0.9287  1.3752  2.2189
   94SAPS     N 9210   2.021   1.747   6.058  0.3563  0.2006  0.2952
   94SAPS   HN1 9211   2.046   1.758   6.158  2.7710  0.3347 -0.2669
   94SAPS   HN2 9212   1.919   1.763   6.044  0.4176 -0.7780 -1.6184
   94SAPS   HN3 9213   2.046   1.649   6.036  2.5679  0.6492  0.5941
   94SAPS   C12 9214   2.101   1.849   5.980 -0.7523 -0.3275  0.5603
   94SAPS  H12A 9215   2.093   1.828   5.875 -0.2106  1.8248  0.0457
   94SAPS   C13 9216   2.041   1.989   5.991  0.3821  0.1780 -0.3176
   94SAPS  O13A 9217   1.928   2.005   6.053  0.3481  0.0479 -0.1658
   94SAPS  O13B 9218   2.096   2.088   5.945  0.0727  0.6117  0.0652
   94SAPS   C11 9219   2.251   1.843   6.030 -0.1866  0.0790  0.1990
   94SAPS  H11A 9220   2.255   1.861   6.140  0.7028  1.2508 -0.0108
   94SAPS  H11B 9221   2.309   1.921   5.978  2.1399 -2.5451 -1.3912
   94SAPS     P 9222   2.456   1.690   5.958 -0.2293 -0.4023 -0.1999
   94SAPS   O13 9223   2.454   1.613   5.833  0.4746  0.0403 -0.3174
   94SAPS   O14 9224   2.531   1.817   5.972  0.8923 -0.2651  0.0341
   94SAPS   O12 9225   2.310   1.716   5.995 -1.2080  0.2660 -0.1326
   94SAPS   O11 9226   2.503   1.592   6.074  0.1551  0.6469  0.4087
   94SAPS    C1 9227   2.417   1.494   6.129 -0.9013  0.4754 -0.4251
   94SAPS    HA 9228   2.324   1.470   6.073 -2.8666  2.6483  1.6629
   94SAPS    HB 9229   2.474   1.399   6.128  0.7733  1.4460 -0.8307
   94SAPS    C2 9230   2.367   1.536   6.271 -0.7579  0.8348  0.2302
   94SAPS    HS 9231   2.348   1.646   6.274 -1.6882  0.8485 -2.8432
   94SAPS   O21 9232   2.472   1.500   6.357 -0.0259 -0.2665  0.4112
   94SAPS   C21 9233   2.479   1.573   6.464 -0.0654  0.0865 -0.1197
   94SAPS   O22 9234   2.404   1.664   6.500 -0.4547  0.2784  0.1109
   94SAPS   C22 9235   2.608   1.533   6.542 -0.0732 -0.6041 -0.4898
   94SAPS   H2R 9236   2.687   1.489   6.478  1.0889  1.3950 -0.5035
   94SAPS   H2S 9237   2.652   1.628   6.579  0.3753 -1.0043  0.0143
   94SAPS    C3 9238   2.236   1.466   6.314  0.1157  0.0936 -0.2586
   94SAPS    HX 9239   2.163   1.481   6.231 -1.2524  1.0066  1.0461
   94SAPS    HY 9240   2.188   1.510   6.404  0.7237  1.8828 -0.7645
   94SAPS   O31 9241   2.265   1.326   6.329 -0.0705 -0.2992 -0.0177
   94SAPS   C31 9242   2.275   1.279   6.452 -0.3709  0.3920  0.8458
   94SAPS   O32 9243   2.246   1.340   6.551 -0.7767 -0.1854  0.0437
   94SAPS   C32 9244   2.326   1.135   6.454  0.0118  0.7273 -0.3028
   94SAPS   H2X 9245   2.436   1.142   6.440 -0.1751 -0.0301 -2.5004
   94SAPS   H2Y 9246   2.294   1.079   6.364  0.8944 -1.7337  0.8309
   94SAPS   C23 9247   2.572   1.431   6.656  0.0074 -0.0449 -0.7483
   94SAPS   H3R 9248   2.514   1.348   6.609 -3.0765  1.2105  0.5451
   94SAPS   H3S 9249   2.500   1.480   6.725  0.8890  0.5255 -0.2170
   94SAPS   C24 9250   2.689   1.383   6.741 -0.0412  0.4095  0.6443
   94SAPS   H4R 9251   2.735   1.288   6.707 -2.1062 -0.7432  0.8853
   94SAPS   H4S 9252   2.650   1.359   6.843 -1.3226 -1.7914 -0.2887
   94SAPS   C25 9253   2.812   1.464   6.751 -0.1346  0.0168 -0.1721
   94SAPS   H5R 9254   2.858   1.499   6.658  0.7927 -0.5082  0.0802
   94SAPS   C26 9255   2.883   1.497   6.865  0.0794  0.2795 -0.5169
   94SAPS   H6R 9256   2.972   1.558   6.848  0.3951 -0.3245 -1.0984
   94SAPS   C27 9257   2.859   1.449   7.009  0.4510  0.5175 -0.0112
   94SAPS   H7R 9258   2.877   1.340   7.013  2.4330  0.8111  0.5153
   94SAPS   H7S 9259   2.753   1.472   7.032 -0.1490 -2.2515  0.2569
   94SAPS   C28 9260   2.938   1.522   7.117  0.4519  0.0488 -0.8555
   94SAPS   H8R 9261   3.038   1.553   7.083  1.7704 -0.3631  2.3256
   94SAPS   C29 9262   2.895   1.548   7.243  0.4082  0.0938 -0.1829
   94SAPS   H9R 9263   2.972   1.595   7.305  0.9073 -1.7254  0.6583
   94SAPS  C210 9264   2.773   1.505   7.323  0.4015 -0.2065 -0.3410
   94SAPS  H10R 9265   2.799   1.422   7.392  1.5156  0.3664 -0.0524
   94SAPS  H10S 9266   2.699   1.470   7.248 -0.0062  1.5184 -0.7674
   94SAPS  C211 9267   2.711   1.620   7.397  0.2236 -0.4055 -0.0483
   94SAPS  H11R 9268   2.643   1.676   7.330 -0.2026 -1.2199 -0.3142
   94SAPS  C212 9269   2.742   1.674   7.519  0.4111 -0.0399 -0.3265
   94SAPS  H12R 9270   2.684   1.761   7.555 -2.6006 -1.2777 -1.8376
   94SAPS  C213 9271   2.836   1.623   7.626 -0.1067 -0.4863 -0.7244
   94SAPS  H13R 9272   2.923   1.567   7.584 -0.0172 -0.4695 -0.5614
   94SAPS  H13S 9273   2.785   1.550   7.692  1.4066  0.8425  2.0897
   94SAPS  C214 9274   2.895   1.722   7.720  0.5055 -0.2809  0.6640
   94SAPS  H14R 9275   2.846   1.820   7.715 -0.5301 -0.8382 -1.5414
   94SAPS  C215 9276   2.991   1.695   7.803 -0.1301  0.4098  0.0003
   94SAPS  H15R 9277   3.019   1.769   7.879  2.8752 -1.3875  0.7955
   94SAPS  C216 9278   3.061   1.565   7.826 -0.6834  0.2194  0.7154
   94SAPS  H16R 9279   3.170   1.584   7.831 -0.5786  1.6982 -3.2859
   94SAPS  H16S 9280   3.043   1.493   7.743 -0.9568  1.9550 -0.7988
   94SAPS  C217 9281   2.999   1.509   7.952 -0.0129 -0.3973 -0.2760
   94SAPS  H17R 9282   3.063   1.423   7.981  0.5867 -0.0180 -0.4372
   94SAPS  H17S 9283   2.891   1.487   7.938 -0.3346  0.2052  1.0839
   94SAPS  C218 9284   2.997   1.604   8.082 -0.1852  0.5217  0.2933
   94SAPS  H18R 9285   3.079   1.678   8.083  2.4827 -2.1996 -0.8905
   94SAPS  H18S 9286   3.009   1.536   8.170  2.6038 -2.1650 -1.9570
   94SAPS  C219 9287   2.868   1.683   8.107  0.3413 -0.2931  1.0508
   94SAPS  H19R 9288   2.779   1.617   8.110  1.3219 -1.7261 -0.0357
   94SAPS  H19S 9289   2.862   1.744   8.015 -0.2629 -2.4275 -0.3916
   94SAPS  C220 9290   2.874   1.774   8.235  0.0387 -0.0797  0.0528
   94SAPS  H20R 9291   2.960   1.845   8.235  2.2994 -2.6212 -0.1249
   94SAPS  H20S 9292   2.875   1.719   8.332 -1.5362  3.1005  2.0322
   94SAPS  H20T 9293   2.781   1.835   8.237  0.6496  0.8624  0.6283
   94SAPS   C33 9294   2.296   1.042   6.579  0.0431  0.0136  0.5853
   94SAPS   H3X 9295   2.337   0.942   6.556  1.3351  0.8286 -0.7721
   94SAPS   H3Y 9296   2.188   1.020   6.594  0.2542 -0.4687  1.5171
   94SAPS   C34 9297   2.356   1.084   6.708  0.0786 -0.0448 -0.4644
   94SAPS   H4X 9298   2.297   1.043   6.792 -1.2790  0.4057 -1.1580
   94SAPS   H4Y 9299   2.358   1.192   6.734  0.9498 -0.5214  1.6337
   94SAPS   C35 9300   2.500   1.031   6.733  0.1440  0.2399 -0.2520
   94SAPS   H5X 9301   2.576   1.069   6.661  1.5414 -0.9644  0.5288
   94SAPS   H5Y 9302   2.496   0.920   6.724  0.4128  0.3370 -1.9917
   94SAPS   C36 9303   2.561   1.063   6.878 -0.3044  0.2552  0.2225
   94SAPS   H6X 9304   2.575   1.174   6.883 -0.3845  0.2164  1.7262
   94SAPS   H6Y 9305   2.661   1.015   6.879 -0.4984 -0.2585 -1.6891
   94SAPS   C37 9306   2.490   1.009   7.009 -0.2184 -0.2900  0.3526
   94SAPS   H7X 9307   2.480   0.899   7.006  1.0261 -0.4471  1.3990
   94SAPS   H7Y 9308   2.385   1.048   7.005 -1.3508 -3.1014  0.3430
   94SAPS   C38 9309   2.559   1.047   7.143 -0.0175 -0.2821 -0.2887
   94SAPS   H8X 9310   2.496   0.999   7.221 -0.8597  0.9784 -0.1692
   94SAPS   H8Y 9311   2.556   1.157   7.156  1.9767 -0.2608  0.3332
   94SAPS   C39 9312   2.703   0.982   7.151  0.6475  0.0984  0.1385
   94SAPS   H9X 9313   2.775   1.037   7.087  0.3637  0.1320 -0.1555
   94SAPS   H9Y 9314   2.682   0.882   7.109 -0.0084  0.1066  0.4269
   94SAPS  C310 9315   2.752   0.951   7.295  0.0172 -0.2496 -0.6885
   94SAPS  H10X 9316   2.821   0.864   7.297  0.3740  0.0409  1.0358
   94SAPS  H10Y 9317   2.665   0.919   7.356 -0.0785 -0.6837 -1.0490
   94SAPS  C311 9318   2.815   1.073   7.361  0.3646 -0.7479  0.4538
   94SAPS  H11X 9319   2.747   1.156   7.332  1.4533  0.4230  1.1354
   94SAPS  H11Y 9320   2.917   1.089   7.319  0.1309 -1.0595 -0.2384
   94SAPS  C312 9321   2.828   1.071   7.510 -0.4008  0.1159  0.3698
   94SAPS  H12X 9322   2.733   1.065   7.567 -1.5161 -1.2449 -1.5023
   94SAPS  H12Y 9323   2.870   1.169   7.541  3.1381 -1.0470 -0.3247
   94SAPS  C313 9324   2.921   0.968   7.586 -0.7490 -0.0514 -0.2006
   94SAPS  H13X 9325   3.022   0.972   7.539 -0.2415  0.8841  0.9097
   94SAPS  H13Y 9326   2.891   0.862   7.568 -1.7214  0.1690  0.0812
   94SAPS  C314 9327   2.948   0.985   7.733  0.1725 -0.0845  0.1523
   94SAPS  H14X 9328   2.980   1.089   7.754 -0.8752  0.2259  0.2561
   94SAPS  H14Y 9329   3.040   0.926   7.753  0.8705  0.3321 -1.6007
   94SAPS  C315 9330   2.833   0.952   7.829  0.8995 -0.2946 -0.5177
   94SAPS  H15X 9331   2.785   0.853   7.815 -0.4032  0.3686 -0.8711
   94SAPS  H15Y 9332   2.757   1.033   7.823  0.2451 -0.7567  1.1408
   94SAPS  C316 9333   2.876   0.958   7.978 -0.3245  0.1444 -0.4116
   94SAPS  H16X 9334   2.954   0.882   8.001 -0.1312  0.4204 -0.1484
   94SAPS  H16Y 9335   2.784   0.930   8.034  0.1721 -2.4603 -0.7535
   94SAPS  C317 9336   2.936   1.090   8.028  0.5461 -0.4591 -0.2011
   94SAPS  H17X 9337   2.869   1.176   8.009  0.7254 -0.6590 -1.9105
   94SAPS  H17Y 9338   3.033   1.106   7.978  0.2859 -0.6262 -0.7638
   94SAPS  C318 9339   2.958   1.077   8.176 -0.1424 -0.0769  0.8948
   94SAPS  H18X 9340   3.048   1.023   8.212  1.2701  0.9483 -0.9073
   94SAPS  H18Y 9341   2.864   1.032   8.215 -0.8755  0.0018 -0.7008
   94SAPS  H18Z 9342   2.955   1.178   8.221  0.8082  1.3194 -1.9456
   95SAPS     N 9343   2.872   4.572   5.923  0.3975 -0.0480 -0.0814
   95SAPS   HN1 9344   2.774   4.545   5.902  0.2142 -0.4380  1.1992
   95SAPS   HN2 9345   2.859   4.644   5.997  1.6657 -0.6542  0.7592
   95SAPS   HN3 9346   2.912   4.609   5.834  1.4627 -2.4858 -0.6851
   95SAPS   C12 9347   2.959   4.464   5.972 -0.1115  0.1732 -0.2763
   95SAPS  H12A 9348   2.920   4.436   6.069 -1.8724 -0.1526 -1.0312
   95SAPS   C13 9349   2.959   4.335   5.891 -0.0151  0.7187  0.0128
   95SAPS  O13A 9350   2.918   4.335   5.771  0.1206 -0.6270  0.2780
   95SAPS  O13B 9351   3.025   4.234   5.930  0.0957 -0.1057  0.1191
   95SAPS   C11 9352   3.099   4.516   5.987 -0.0866  0.1863  0.3830
   95SAPS  H11A 9353   3.139   4.552   5.889  0.3997  0.5517  0.7114
   95SAPS  H11B 9354   3.162   4.433   6.027  1.3432  0.8582 -0.3893
   95SAPS     P 9355   3.227   4.729   6.057  0.2653  0.0383  0.1291
   95SAPS   O13 9356   3.350   4.658   6.059 -0.0911  0.6457  0.0677
   95SAPS   O14 9357   3.196   4.807   5.930 -0.4979 -0.1525 -0.2265
   95SAPS   O12 9358   3.107   4.624   6.077  0.0623 -0.1015  0.7285
   95SAPS   O11 9359   3.210   4.823   6.181 -0.6104  0.3530  0.2223
   95SAPS    C1 9360   3.081   4.862   6.233 -0.0050 -0.7902  0.2865
   95SAPS    HA 9361   3.076   4.973   6.239 -0.4507 -0.7804 -0.2215
   95SAPS    HB 9362   2.995   4.822   6.175 -0.8461 -0.4768  1.2879
   95SAPS    C2 9363   3.057   4.812   6.380  0.1767 -0.1568 -0.2590
   95SAPS    HS 9364   2.975   4.880   6.411  0.2950 -0.6457  1.2218
   95SAPS   O21 9365   3.171   4.829   6.469 -0.4781  0.2314 -1.2554
   95SAPS   C21 9366   3.186   4.952   6.519 -0.3759 -0.6038  0.0829
   95SAPS   O22 9367   3.120   5.052   6.495  0.0903 -0.1952 -0.3304
   95SAPS   C22 9368   3.306   4.959   6.611  0.3667  0.5283 -0.0014
   95SAPS   H2R 9369   3.364   4.865   6.599  1.4218  1.1395  0.0960
   95SAPS   H2S 9370   3.376   5.038   6.576  0.1043 -0.1055 -2.0410
   95SAPS    C3 9371   3.028   4.663   6.376 -0.2478 -0.0829  0.1450
   95SAPS    HX 9372   3.119   4.606   6.348 -0.4300 -0.0163 -0.6105
   95SAPS    HY 9373   2.955   4.632   6.298  0.0890  1.0149 -0.6248
   95SAPS   O31 9374   2.970   4.620   6.505  0.1406  0.0406  0.5196
   95SAPS   C31 9375   3.048   4.529   6.572  0.0560  0.1721 -0.4728
   95SAPS   O32 9376   3.157   4.497   6.532  0.1831  0.4166 -0.1921
   95SAPS   C32 9377   2.986   4.492   6.708  0.1698  0.0896  0.3990
   95SAPS   H2X 9378   3.068   4.481   6.782 -0.3812  0.7007  1.1183
   95SAPS   H2Y 9379   2.932   4.396   6.697  0.5560 -0.2819  1.5215
   95SAPS   C23 9380   3.280   4.983   6.757  0.4769  0.5562 -0.4329
   95SAPS   H3R 9381   3.239   5.084   6.778 -1.0936 -0.5632  2.3028
   95SAPS   H3S 9382   3.381   4.986   6.803  0.8027 -0.0335 -1.0819
   95SAPS   C24 9383   3.203   4.872   6.828  0.2263  0.6936  0.7553
   95SAPS   H4R 9384   3.110   4.847   6.772  2.0966  0.4525 -2.4800
   95SAPS   H4S 9385   3.160   4.917   6.920 -1.6694  1.4235 -0.4251
   95SAPS   C25 9386   3.268   4.741   6.866 -0.2464  0.4677  1.2559
   95SAPS   H5R 9387   3.241   4.662   6.795 -0.5351  0.9223  0.8589
   95SAPS   C26 9388   3.351   4.708   6.967  0.4556  0.3552 -0.2436
   95SAPS   H6R 9389   3.397   4.608   6.971 -1.3265 -0.5795 -1.9250
   95SAPS   C27 9390   3.388   4.797   7.078  0.7578 -0.4474  0.5853
   95SAPS   H7R 9391   3.372   4.906   7.063 -0.5284 -0.6436  0.4328
   95SAPS   H7S 9392   3.492   4.767   7.105  0.3519 -2.0160  0.5113
   95SAPS   C28 9393   3.294   4.761   7.190 -0.3687 -0.3927 -0.4504
   95SAPS   H8R 9394   3.194   4.722   7.164 -0.1531 -2.1733  1.1413
   95SAPS   C29 9395   3.331   4.787   7.321  1.1253 -0.6870  0.1390
   95SAPS   H9R 9396   3.256   4.778   7.401 -1.3957  3.4718 -1.4098
   95SAPS  C210 9397   3.463   4.852   7.363  0.8759  0.2543  0.8100
   95SAPS  H10R 9398   3.448   4.946   7.420  1.8868  1.4837 -0.8589
   95SAPS  H10S 9399   3.524   4.882   7.275  1.4950  0.1272  1.1871
   95SAPS  C211 9400   3.548   4.746   7.435  0.1628  0.7345  0.2754
   95SAPS  H11R 9401   3.550   4.648   7.384 -2.4337  1.2044 -0.8667
   95SAPS  C212 9402   3.608   4.767   7.557 -0.6319  0.0119 -0.2125
   95SAPS  H12R 9403   3.672   4.683   7.588  0.8241  0.6474 -1.3772
   95SAPS  C213 9404   3.607   4.895   7.643  0.0931 -0.0612  0.6403
   95SAPS  H13R 9405   3.649   4.872   7.743 -0.2058  0.5901  0.9171
   95SAPS  H13S 9406   3.501   4.927   7.655  0.1292  0.1956  0.2771
   95SAPS  C214 9407   3.690   5.009   7.587 -0.2157 -0.4350 -0.5108
   95SAPS  H14R 9408   3.697   5.010   7.478 -1.1138 -1.3397 -0.5942
   95SAPS  C215 9409   3.744   5.111   7.653  0.4170 -0.7316 -0.4601
   95SAPS  H15R 9410   3.793   5.199   7.609 -0.9911 -0.1878 -0.9765
   95SAPS  C216 9411   3.740   5.123   7.805 -0.4443 -0.4784 -0.4394
   95SAPS  H16R 9412   3.673   5.051   7.855 -0.9807  1.4882  1.8587
   95SAPS  H16S 9413   3.701   5.221   7.840 -1.7500 -1.9988  2.8156
   95SAPS  C217 9414   3.880   5.101   7.878  0.2055 -0.6141 -0.1711
   95SAPS  H17R 9415   3.947   5.189   7.865 -0.2579 -0.2948 -0.4298
   95SAPS  H17S 9416   3.924   5.004   7.846  1.8470 -0.1137  0.4787
   95SAPS  C218 9417   3.848   5.095   8.029  0.1581  0.0731  0.2071
   95SAPS  H18R 9418   3.760   5.028   8.040  1.0273 -1.0285  0.5212
   95SAPS  H18S 9419   3.817   5.200   8.051 -0.7837 -0.0249 -0.5842
   95SAPS  C219 9420   3.966   5.048   8.112 -0.0814 -0.1323  0.3184
   95SAPS  H19R 9421   4.062   5.100   8.090  0.9571 -1.5104  1.3487
   95SAPS  H19S 9422   3.983   4.945   8.074 -1.7542  0.4587 -2.2534
   95SAPS  C220 9423   3.940   5.038   8.261  0.4423  0.3511 -0.1366
   95SAPS  H20R 9424   4.030   5.003   8.316 -1.4617  1.1244  3.8400
   95SAPS  H20S 9425   3.853   4.975   8.288 -0.1563  1.3366  0.2823
   95SAPS  H20T 9426   3.922   5.140   8.301 -1.6170  0.1311 -0.4281
   95SAPS   C33 9427   2.882   4.590   6.765  0.0681 -0.4798 -0.3965
   95SAPS   H3X 9428   2.795   4.585   6.696  0.0094 -1.5551 -0.2689
   95SAPS   H3Y 9429   2.924   4.693   6.768  0.2503 -0.3146 -3.9634
   95SAPS   C34 9430   2.835   4.555   6.899 -0.3201  0.6283 -0.5761
   95SAPS   H4X 9431   2.817   4.446   6.901  0.6613  0.4392 -1.4467
   95SAPS   H4Y 9432   2.743   4.610   6.926 -0.1163 -0.2145  2.2112
   95SAPS   C35 9433   2.934   4.595   7.014  0.0952  0.3876 -0.1434
   95SAPS   H5X 9434   2.983   4.693   6.998 -2.8942  2.3960  2.0743
   95SAPS   H5Y 9435   3.011   4.515   7.015 -0.9873 -0.6956  0.2767
   95SAPS   C36 9436   2.859   4.603   7.148 -0.6652  0.0606 -0.6093
   95SAPS   H6X 9437   2.767   4.663   7.130  0.1434  1.0560 -1.5571
   95SAPS   H6Y 9438   2.919   4.661   7.221 -1.6386 -0.2580  0.4725
   95SAPS   C37 9439   2.829   4.463   7.205 -0.4664  0.1151 -0.4140
   95SAPS   H7X 9440   2.927   4.413   7.196  0.6235  2.0094  0.3649
   95SAPS   H7Y 9441   2.752   4.411   7.144 -1.7606  2.9787 -1.4008
   95SAPS   C38 9442   2.780   4.461   7.351  0.2827 -0.0508  0.1671
   95SAPS   H8X 9443   2.707   4.545   7.357  0.8832  0.6033 -1.3092
   95SAPS   H8Y 9444   2.861   4.506   7.412  0.5496 -0.6889  0.2869
   95SAPS   C39 9445   2.716   4.333   7.399  0.2163 -0.4311 -0.7174
   95SAPS   H9X 9446   2.786   4.250   7.374  2.1655 -0.3257  3.4906
   95SAPS   H9Y 9447   2.621   4.321   7.343  0.2357  2.3934 -1.4893
   95SAPS  C310 9448   2.667   4.329   7.551 -0.0526 -0.1330  0.4201
   95SAPS  H10X 9449   2.637   4.224   7.569 -0.7745 -0.4246 -2.0524
   95SAPS  H10Y 9450   2.583   4.400   7.560 -1.4681 -1.8505  1.3114
   95SAPS  C311 9451   2.778   4.366   7.658  0.7015  0.2380 -0.5373
   95SAPS  H11X 9452   2.823   4.460   7.620 -0.1386  0.8741 -0.0049
   95SAPS  H11Y 9453   2.863   4.294   7.655  2.0170  1.7448 -3.6812
   95SAPS  C312 9454   2.723   4.373   7.803 -0.2725  0.2840  0.6867
   95SAPS  H12X 9455   2.678   4.275   7.829  1.2053 -1.4699 -2.7368
   95SAPS  H12Y 9456   2.643   4.450   7.795 -0.2524  0.2660  0.2694
   95SAPS  C313 9457   2.824   4.422   7.908  0.1048 -0.4653 -0.9075
   95SAPS  H13X 9458   2.862   4.515   7.861 -1.2337  0.5810 -0.0038
   95SAPS  H13Y 9459   2.913   4.356   7.922 -1.2274 -2.2011 -0.1651
   95SAPS  C314 9460   2.753   4.453   8.037 -0.7224  0.1294  0.2448
   95SAPS  H14X 9461   2.647   4.485   8.023 -0.2691  1.3611 -0.5690
   95SAPS  H14Y 9462   2.810   4.534   8.088 -0.4130 -0.3965  0.7405
   95SAPS  C315 9463   2.751   4.331   8.131 -0.4102  0.4847  0.3317
   95SAPS  H15X 9464   2.847   4.276   8.121 -0.3603  1.0051 -3.3955
   95SAPS  H15Y 9465   2.684   4.253   8.091  2.2928 -1.1870 -1.1964
   95SAPS  C316 9466   2.712   4.370   8.277  0.6160  0.3521 -0.2300
   95SAPS  H16X 9467   2.605   4.399   8.279  1.0118  1.8844 -0.4656
   95SAPS  H16Y 9468   2.769   4.462   8.303  0.5736  0.1522  0.5943
   95SAPS  C317 9469   2.739   4.258   8.374 -0.3625  0.8882 -1.0511
   95SAPS  H17X 9470   2.742   4.313   8.470  2.3894 -1.7991  0.5994
   95SAPS  H17Y 9471   2.840   4.214   8.361 -1.4147 -1.5074 -1.8279
   95SAPS  C318 9472   2.625   4.154   8.379  0.2365  0.4408  0.3495
   95SAPS  H18X 9473   2.530   4.199   8.414 -0.3428 -1.3820  1.2383
   95SAPS  H18Y 9474   2.640   4.068   8.448  1.6297  0.7039  0.4078
   95SAPS  H18Z 9475   2.596   4.112   8.280  0.4547 -1.7174  1.1444
   96SAPS     N 9476   4.024   4.374   6.204  0.0147  0.1638  0.1507
   96SAPS   HN1 9477   3.963   4.401   6.284  1.2256  1.3976  0.7011
   96SAPS   HN2 9478   4.100   4.446   6.206  1.8095 -1.6582  1.3366
   96SAPS   HN3 9479   3.979   4.359   6.112  3.3232  0.0959 -1.6223
   96SAPS   C12 9480   4.095   4.253   6.236 -0.9675  0.4155 -0.7519
   96SAPS  H12A 9481   4.029   4.178   6.277 -0.1623 -0.0970 -0.3662
   96SAPS   C13 9482   4.174   4.190   6.119  0.6726  0.0148 -0.5361
   96SAPS  O13A 9483   4.126   4.215   6.002 -0.4876 -0.5713  0.2039
   96SAPS  O13B 9484   4.256   4.100   6.143  0.2963 -0.4502  0.5473
   96SAPS   C11 9485   4.194   4.286   6.351  0.4301 -0.1544  0.5616
   96SAPS  H11A 9486   4.240   4.191   6.383 -0.1811 -1.8572 -3.1092
   96SAPS  H11B 9487   4.139   4.320   6.442 -0.0129  0.9599 -0.0951
   96SAPS     P 9488   4.413   4.420   6.390 -0.0912  0.2505 -0.3769
   96SAPS   O13 9489   4.487   4.294   6.410  0.4163  0.0720  0.2186
   96SAPS   O14 9490   4.491   4.531   6.324 -0.1495  0.3275  0.0647
   96SAPS   O12 9491   4.289   4.385   6.307  0.6060  0.4312  0.1725
   96SAPS   O11 9492   4.343   4.460   6.522 -0.6533  0.3854 -0.0144
   96SAPS    C1 9493   4.242   4.557   6.530  0.4578  0.5932  0.3136
   96SAPS    HA 9494   4.222   4.617   6.439  0.8670 -1.4118 -1.1575
   96SAPS    HB 9495   4.141   4.513   6.550 -0.4615  1.1278 -2.6593
   96SAPS    C2 9496   4.268   4.662   6.648 -0.1683 -0.0337 -0.1150
   96SAPS    HS 9497   4.364   4.709   6.620 -0.4228 -0.3630 -1.6723
   96SAPS   O21 9498   4.278   4.586   6.768 -0.0512  0.0697  0.1481
   96SAPS   C21 9499   4.392   4.606   6.839 -0.1739  0.7312 -0.3917
   96SAPS   O22 9500   4.493   4.658   6.806  0.2215 -0.0657  0.1245
   96SAPS   C22 9501   4.371   4.534   6.973  0.1494 -0.5417  0.3961
   96SAPS   H2R 9502   4.388   4.426   6.954 -0.1859 -0.5722  0.2561
   96SAPS   H2S 9503   4.452   4.588   7.026 -2.5527  2.4178  1.9594
   96SAPS    C3 9504   4.166   4.779   6.658 -0.1911 -0.6757 -0.0420
   96SAPS    HX 9505   4.068   4.733   6.680 -0.0224 -1.0294 -0.0047
   96SAPS    HY 9506   4.165   4.825   6.557 -2.0218 -0.0666  0.2292
   96SAPS   O31 9507   4.209   4.870   6.763  0.4624 -0.5256  0.6865
   96SAPS   C31 9508   4.138   4.990   6.758  0.0129  0.9296  0.5406
   96SAPS   O32 9509   4.070   5.018   6.660  0.0693  0.3001 -0.5160
   96SAPS   C32 9510   4.169   5.073   6.877 -0.2374  0.1818 -0.6111
   96SAPS   H2X 9511   4.080   5.137   6.893 -0.3842 -0.3927  1.0133
   96SAPS   H2Y 9512   4.247   5.148   6.852 -1.9119  1.4049 -2.4064
   96SAPS   C23 9513   4.249   4.552   7.056  1.1478  0.1583 -0.1169
   96SAPS   H3R 9514   4.172   4.490   7.006  2.9891 -0.4743 -2.3374
   96SAPS   H3S 9515   4.225   4.660   7.046  3.4760  0.5477 -2.6086
   96SAPS   C24 9516   4.259   4.517   7.202  0.4618 -0.0595  0.5250
   96SAPS   H4R 9517   4.309   4.418   7.207 -0.0978 -0.3896 -0.2256
   96SAPS   H4S 9518   4.159   4.492   7.244 -0.3897  0.9840 -0.7953
   96SAPS   C25 9519   4.333   4.619   7.286 -0.4485  0.1634 -0.5042
   96SAPS   H5R 9520   4.422   4.656   7.233  0.1288 -0.6442 -0.1191
   96SAPS   C26 9521   4.308   4.651   7.417 -0.5365  0.1970  0.0591
   96SAPS   H6R 9522   4.357   4.740   7.460 -0.2633  0.8966 -1.6218
   96SAPS   C27 9523   4.194   4.600   7.500  0.0565 -0.0166  0.2320
   96SAPS   H7R 9524   4.229   4.575   7.603 -1.2102 -0.0932  0.6694
   96SAPS   H7S 9525   4.146   4.510   7.456 -0.7808  0.6600 -0.2671
   96SAPS   C28 9526   4.078   4.702   7.501  0.0873  0.5181  0.3823
   96SAPS   H8R 9527   4.055   4.747   7.403  0.4438 -0.4190 -0.1455
   96SAPS   C29 9528   4.017   4.755   7.610 -0.1597  0.1961 -0.2546
   96SAPS   H9R 9529   3.928   4.817   7.596 -0.5005 -0.6563 -2.4348
   96SAPS  C210 9530   4.038   4.704   7.749  0.2015 -0.9462 -0.1907
   96SAPS  H10R 9531   4.016   4.791   7.815 -1.0425  0.4851 -2.3673
   96SAPS  H10S 9532   4.143   4.689   7.780 -0.0692  0.5310  1.6092
   96SAPS  C211 9533   3.960   4.580   7.774 -0.1680 -0.4071 -0.1951
   96SAPS  H11R 9534   3.997   4.488   7.724 -1.2320 -0.6959 -0.4852
   96SAPS  C212 9535   3.843   4.577   7.847 -0.5783 -0.1428  0.0079
   96SAPS  H12R 9536   3.789   4.483   7.867 -2.9669  1.5484  2.1849
   96SAPS  C213 9537   3.771   4.693   7.911  0.6367 -0.0054  0.2098
   96SAPS  H13R 9538   3.660   4.685   7.917  0.5998  1.0955  1.9000
   96SAPS  H13S 9539   3.796   4.788   7.859 -1.4811  0.8784  0.6778
   96SAPS  C214 9540   3.826   4.691   8.049  0.7956  0.0487  0.0581
   96SAPS  H14R 9541   3.934   4.670   8.052  0.7046 -0.4929 -0.3038
   96SAPS  C215 9542   3.761   4.724   8.166 -0.3741 -0.3029  0.0663
   96SAPS  H15R 9543   3.812   4.699   8.261 -0.4219  1.9032  0.7238
   96SAPS  C216 9544   3.612   4.767   8.168  0.1837  0.0491 -0.8666
   96SAPS  H16R 9545   3.554   4.712   8.090 -1.6552  0.3425  0.2258
   96SAPS  H16S 9546   3.588   4.874   8.151 -0.9400 -0.3202 -1.7037
   96SAPS  C217 9547   3.542   4.721   8.299  0.1089 -0.4731  0.5075
   96SAPS  H17R 9548   3.579   4.619   8.323 -1.3162 -1.3870 -0.9382
   96SAPS  H17S 9549   3.431   4.711   8.293  0.1520 -0.4593 -0.4136
   96SAPS  C218 9550   3.576   4.798   8.430 -0.1641 -0.5859 -0.0165
   96SAPS  H18R 9551   3.533   4.900   8.428  1.1494  0.0692  1.9516
   96SAPS  H18S 9552   3.687   4.808   8.427 -0.3166  1.1966 -0.7448
   96SAPS  C219 9553   3.554   4.724   8.565 -0.1733 -0.0031  0.9549
   96SAPS  H19R 9554   3.616   4.783   8.635 -0.7403 -0.4525  1.8570
   96SAPS  H19S 9555   3.590   4.619   8.556 -1.4664 -0.4335  0.5484
   96SAPS  C220 9556   3.413   4.725   8.611  0.0444  1.1076  0.6245
   96SAPS  H20R 9557   3.343   4.674   8.542  0.9840 -0.3045  0.6818
   96SAPS  H20S 9558   3.376   4.829   8.621 -1.0556  0.8441 -0.4962
   96SAPS  H20T 9559   3.406   4.670   8.707  3.3425  0.5243  0.6505
   96SAPS   C33 9560   4.188   4.990   7.007  0.4863  0.5366 -0.3935
   96SAPS   H3X 9561   4.272   4.918   6.999 -1.9959 -2.3959 -2.4711
   96SAPS   H3Y 9562   4.096   4.932   7.031 -1.0748  1.7032 -3.0878
   96SAPS   C34 9563   4.202   5.091   7.123  0.0491 -0.0388 -0.5407
   96SAPS   H4X 9564   4.105   5.143   7.115 -0.8126 -1.6874 -1.1830
   96SAPS   H4Y 9565   4.287   5.161   7.104 -2.0134  2.3715 -1.3554
   96SAPS   C35 9566   4.211   5.015   7.255 -0.2478  0.3569 -0.3710
   96SAPS   H5X 9567   4.293   4.941   7.249 -0.6641 -0.0786 -0.7551
   96SAPS   H5Y 9568   4.119   4.957   7.279  0.0644 -0.2311 -0.5921
   96SAPS   C36 9569   4.224   5.115   7.371  0.1810  0.1348 -0.1510
   96SAPS   H6X 9570   4.136   5.183   7.362  1.3231  1.6540 -0.3405
   96SAPS   H6Y 9571   4.318   5.172   7.356 -0.2167  0.5804 -1.0416
   96SAPS   C37 9572   4.251   5.039   7.502  0.4166  0.0115 -0.7726
   96SAPS   H7X 9573   4.355   5.001   7.505  1.1797  1.9533 -0.5842
   96SAPS   H7Y 9574   4.173   4.961   7.513 -0.8216  1.4138  1.2381
   96SAPS   C38 9575   4.222   5.127   7.624 -0.4669  0.5910  0.1934
   96SAPS   H8X 9576   4.129   5.183   7.601  0.2474  1.6598 -0.1874
   96SAPS   H8Y 9577   4.303   5.200   7.647 -1.5408  1.8833  0.0252
   96SAPS   C39 9578   4.195   5.041   7.751  0.1145  0.0793 -0.5514
   96SAPS   H9X 9579   4.094   4.998   7.736 -0.4836  0.7383  1.3341
   96SAPS   H9Y 9580   4.168   5.103   7.838  0.1277 -0.5935 -0.0580
   96SAPS  C310 9581   4.304   4.947   7.783  0.3277 -0.0346  0.3429
   96SAPS  H10X 9582   4.398   5.007   7.779  1.7655 -2.0894  1.1518
   96SAPS  H10Y 9583   4.318   4.863   7.712  1.4867 -0.6512  1.2610
   96SAPS  C311 9584   4.297   4.881   7.921  0.1083  0.4433  0.0817
   96SAPS  H11X 9585   4.209   4.815   7.907 -0.3320  0.9649  0.3595
   96SAPS  H11Y 9586   4.275   4.953   8.003 -0.3578 -0.2257  0.5651
   96SAPS  C312 9587   4.415   4.785   7.956  0.0863  0.0185 -0.7250
   96SAPS  H12X 9588   4.506   4.846   7.938 -0.1760  0.4116 -0.7272
   96SAPS  H12Y 9589   4.405   4.707   7.877 -1.6763 -0.2497 -0.2877
   96SAPS  C313 9590   4.394   4.712   8.086 -0.0607  0.3374  0.7936
   96SAPS  H13X 9591   4.439   4.774   8.167 -3.3496  1.3401  2.0112
   96SAPS  H13Y 9592   4.455   4.619   8.077 -1.0776 -0.3321  0.6951
   96SAPS  C314 9593   4.252   4.677   8.124 -0.6160  0.0933 -0.0956
   96SAPS  H14X 9594   4.202   4.616   8.046 -2.7021 -0.7458  1.7890
   96SAPS  H14Y 9595   4.195   4.772   8.139 -2.6647 -0.9849 -0.6929
   96SAPS  C315 9596   4.245   4.600   8.255 -0.4058  0.6003 -0.1192
   96SAPS  H15X 9597   4.292   4.663   8.334  0.6285 -0.2417 -0.0353
   96SAPS  H15Y 9598   4.303   4.505   8.251  0.2572  1.0075 -0.5480
   96SAPS  C316 9599   4.098   4.578   8.280  0.5949  0.0927 -0.2044
   96SAPS  H16X 9600   4.055   4.516   8.198  1.3750 -2.2525  1.0660
   96SAPS  H16Y 9601   4.055   4.680   8.276 -2.0375 -0.8864  0.7470
   96SAPS  C317 9602   4.061   4.505   8.407  0.1339  0.3699 -0.5952
   96SAPS  H17X 9603   3.950   4.517   8.415  0.2991  1.3536  0.4126
   96SAPS  H17Y 9604   4.116   4.553   8.490  0.0159 -1.1970  0.4203
   96SAPS  C318 9605   4.101   4.357   8.401  0.2935  0.2969 -0.4211
   96SAPS  H18X 9606   4.211   4.345   8.411  0.0249 -1.9197  0.3403
   96SAPS  H18Y 9607   4.046   4.310   8.317  0.3922  0.5354 -0.6247
   96SAPS  H18Z 9608   4.065   4.302   8.490  0.7107  0.4334 -0.1637
   97SAPS     N 9609   2.714   2.630   6.499 -0.2724 -0.3726  0.2006
   97SAPS   HN1 9610   2.716   2.703   6.573  0.8250  0.5263 -0.6810
   97SAPS   HN2 9611   2.759   2.669   6.414 -0.8361  1.0120  0.5033
   97SAPS   HN3 9612   2.617   2.597   6.477 -0.8358  2.3743 -1.9429
   97SAPS   C12 9613   2.793   2.510   6.544  0.1912  0.0105 -0.2731
   97SAPS  H12A 9614   2.791   2.433   6.467 -1.0073 -1.8974  1.5527
   97SAPS   C13 9615   2.939   2.535   6.580 -1.0306  0.1151  0.6757
   97SAPS  O13A 9616   2.984   2.652   6.562 -0.2262  0.0930 -0.4505
   97SAPS  O13B 9617   3.017   2.440   6.606 -0.7963  0.1932 -0.1409
   97SAPS   C11 9618   2.716   2.437   6.661  0.6357 -0.1222  0.6231
   97SAPS  H11A 9619   2.731   2.497   6.754 -0.4757 -0.5258  1.0801
   97SAPS  H11B 9620   2.768   2.341   6.681  1.5084  0.3359  0.6394
   97SAPS     P 9621   2.521   2.292   6.567 -0.1890  0.4327 -0.2973
   97SAPS   O13 9622   2.376   2.293   6.534 -0.1512 -0.2952 -0.2549
   97SAPS   O14 9623   2.615   2.255   6.458  0.3378 -0.0718 -0.2926
   97SAPS   O12 9624   2.577   2.421   6.632 -0.4306 -0.3202  0.2832
   97SAPS   O11 9625   2.550   2.180   6.679 -0.0823 -0.9654  0.0909
   97SAPS    C1 9626   2.497   2.192   6.806  0.0330 -0.2172 -0.3756
   97SAPS    HA 9627   2.424   2.276   6.808 -1.5230 -1.5143 -0.4714
   97SAPS    HB 9628   2.433   2.103   6.824 -1.5932  1.0741  0.4264
   97SAPS    C2 9629   2.619   2.201   6.910 -0.3136  0.1032  0.7084
   97SAPS    HS 9630   2.702   2.265   6.874 -0.1006 -0.3030  0.4733
   97SAPS   O21 9631   2.669   2.063   6.922 -0.5786  0.3854 -0.4075
   97SAPS   C21 9632   2.805   2.045   6.891 -0.1288 -0.7913  0.3072
   97SAPS   O22 9633   2.875   2.138   6.849 -0.4139 -0.5254  0.6074
   97SAPS   C22 9634   2.858   1.901   6.906  0.4175 -0.0584 -0.5076
   97SAPS   H2R 9635   2.774   1.830   6.921  1.3560 -1.1089 -0.0851
   97SAPS   H2S 9636   2.913   1.876   6.813  0.2474 -1.3843 -0.2724
   97SAPS    C3 9637   2.581   2.261   7.050 -0.4722  0.1522 -0.4579
   97SAPS    HX 9638   2.507   2.195   7.100 -0.6130 -0.3681 -1.3378
   97SAPS    HY 9639   2.531   2.360   7.044  1.4011  1.1621 -0.3823
   97SAPS   O31 9640   2.699   2.267   7.138  0.2020  0.2639  0.1736
   97SAPS   C31 9641   2.761   2.381   7.147 -0.3259 -1.0053  0.0429
   97SAPS   O32 9642   2.727   2.484   7.091  0.0645  0.3226  0.3901
   97SAPS   C32 9643   2.873   2.383   7.260  0.8208 -0.1092  0.6724
   97SAPS   H2X 9644   2.953   2.453   7.228  1.0725 -0.8367 -0.3128
   97SAPS   H2Y 9645   2.928   2.287   7.268 -0.7580 -1.1301 -0.1569
   97SAPS   C23 9646   2.951   1.875   7.031  0.3441  0.3656  0.2638
   97SAPS   H3R 9647   3.044   1.935   7.017 -0.2932  1.5515  0.9640
   97SAPS   H3S 9648   2.978   1.768   7.018  0.3059  0.2175  1.3073
   97SAPS   C24 9649   2.894   1.908   7.162  0.1038  0.6017 -0.4538
   97SAPS   H4R 9650   2.801   1.847   7.169  1.2734 -1.7199 -3.1585
   97SAPS   H4S 9651   2.871   2.016   7.158 -0.9963  0.4992  1.7108
   97SAPS   C25 9652   2.967   1.886   7.295  0.2178  0.1503  0.8978
   97SAPS   H5R 9653   2.929   1.799   7.350  1.2006 -0.5778  0.4451
   97SAPS   C26 9654   3.046   1.967   7.363  0.2441 -0.1234 -0.3897
   97SAPS   H6R 9655   3.079   1.927   7.460 -0.2822 -0.4418 -0.3404
   97SAPS   C27 9656   3.099   2.102   7.326  0.1282 -0.2431 -0.1939
   97SAPS   H7R 9657   3.063   2.169   7.407 -0.9710 -2.1607  0.9488
   97SAPS   H7S 9658   3.054   2.139   7.231 -1.9913  0.3958  0.9919
   97SAPS   C28 9659   3.249   2.111   7.315 -0.0494  0.6175 -0.3386
   97SAPS   H8R 9660   3.305   2.018   7.295 -0.6504 -0.1136  1.2073
   97SAPS   C29 9661   3.319   2.213   7.350 -0.5003 -0.1148  0.3051
   97SAPS   H9R 9662   3.424   2.201   7.319  0.0407 -1.5307  2.5045
   97SAPS  C210 9663   3.280   2.351   7.390 -0.0309 -0.6878 -0.4442
   97SAPS  H10R 9664   3.243   2.353   7.495 -2.0843  0.5017 -1.1364
   97SAPS  H10S 9665   3.190   2.383   7.334  1.5686  0.8359 -2.2616
   97SAPS  C211 9666   3.373   2.461   7.356 -0.1831 -0.3454  0.0194
   97SAPS  H11R 9667   3.372   2.506   7.255 -0.1673  0.9695  0.5764
   97SAPS  C212 9668   3.440   2.533   7.450  0.7338 -0.1223  0.0732
   97SAPS  H12R 9669   3.507   2.616   7.423 -0.9801  0.6035 -2.3072
   97SAPS  C213 9670   3.436   2.509   7.606  0.1277 -0.3478  0.6399
   97SAPS  H13R 9671   3.537   2.477   7.639  0.6343  2.9259  2.6940
   97SAPS  H13S 9672   3.370   2.433   7.654  0.5779 -1.6495 -0.7596
   97SAPS  C214 9673   3.385   2.636   7.670 -0.3127 -0.1175  0.3540
   97SAPS  H14R 9674   3.311   2.697   7.616  0.2523  0.2549  0.0017
   97SAPS  C215 9675   3.429   2.702   7.780  0.0183 -0.7520 -0.2239
   97SAPS  H15R 9676   3.381   2.791   7.822 -0.6542 -1.9021  1.5813
   97SAPS  C216 9677   3.539   2.670   7.868  0.2998 -0.0958  0.6286
   97SAPS  H16R 9678   3.610   2.753   7.890  3.2590 -3.0391  3.1765
   97SAPS  H16S 9679   3.597   2.588   7.822 -0.6822 -0.2167 -0.4409
   97SAPS  C217 9680   3.497   2.617   8.007  0.9717  0.4709 -0.2879
   97SAPS  H17R 9681   3.597   2.598   8.051 -0.0908  1.1559  2.6652
   97SAPS  H17S 9682   3.435   2.526   7.989  1.9640 -0.7004  1.7994
   97SAPS  C218 9683   3.427   2.728   8.093  0.5791  0.8329  0.0209
   97SAPS  H18R 9684   3.321   2.753   8.075  1.4787  4.5676 -0.9376
   97SAPS  H18S 9685   3.474   2.821   8.055 -0.8399  0.9310 -1.6141
   97SAPS  C219 9686   3.450   2.704   8.245 -0.1433 -0.0224 -0.6133
   97SAPS  H19R 9687   3.439   2.802   8.295  1.4761 -0.6227  1.0444
   97SAPS  H19S 9688   3.552   2.664   8.266  0.2366  1.0485 -0.3807
   97SAPS  C220 9689   3.357   2.604   8.310  0.2056  0.2184 -0.2637
   97SAPS  H20R 9690   3.390   2.500   8.289  0.1483  0.0615  0.4146
   97SAPS  H20S 9691   3.248   2.615   8.290 -0.4168 -2.3696  1.2721
   97SAPS  H20T 9692   3.365   2.603   8.421  1.5474  0.6322 -0.3336
   97SAPS   C33 9693   2.803   2.422   7.392  0.6264  0.0182  0.2454
   97SAPS   H3X 9694   2.747   2.337   7.436  2.4438 -1.3218  0.1107
   97SAPS   H3Y 9695   2.736   2.508   7.370 -2.2028 -2.2063 -0.4242
   97SAPS   C34 9696   2.906   2.456   7.494  0.4916 -0.0726  0.4218
   97SAPS   H4X 9697   2.961   2.550   7.475 -0.2205  0.6010  1.5687
   97SAPS   H4Y 9698   2.979   2.372   7.493  0.5425 -0.0236 -0.1366
   97SAPS   C35 9699   2.849   2.481   7.637 -0.5690  0.0395  0.7453
   97SAPS   H5X 9700   2.799   2.387   7.667 -1.2869 -0.1429 -0.8994
   97SAPS   H5Y 9701   2.777   2.566   7.634  0.4447  0.9008 -1.1791
   97SAPS   C36 9702   2.955   2.507   7.742  0.0470  0.0870 -0.5510
   97SAPS   H6X 9703   3.017   2.598   7.728  1.0281 -0.4933 -0.1115
   97SAPS   H6Y 9704   3.029   2.424   7.742  0.8373  0.7546 -2.4829
   97SAPS   C37 9705   2.899   2.512   7.884 -0.2809  0.1239  0.7242
   97SAPS   H7X 9706   2.838   2.421   7.892  1.1691 -0.7549  2.7040
   97SAPS   H7Y 9707   2.837   2.602   7.907 -0.3591 -0.2152  1.8748
   97SAPS   C38 9708   3.010   2.509   7.992 -0.2662 -0.0164  0.8863
   97SAPS   H8X 9709   3.063   2.606   7.981  0.0872 -0.4229 -1.5957
   97SAPS   H8Y 9710   3.084   2.433   7.960 -0.9165  0.7352 -2.8501
   97SAPS   C39 9711   2.956   2.511   8.137 -0.3002 -0.2744 -0.1849
   97SAPS   H9X 9712   2.858   2.563   8.139  0.4671  1.2020  0.4615
   97SAPS   H9Y 9713   3.028   2.569   8.198  1.0482  0.0586 -1.9986
   97SAPS  C310 9714   2.942   2.372   8.189 -0.0909  0.0058 -0.5650
   97SAPS  H10X 9715   2.926   2.292   8.114  0.5655 -1.1644  0.5050
   97SAPS  H10Y 9716   2.853   2.357   8.254 -0.2858 -0.9756 -1.0487
   97SAPS  C311 9717   3.067   2.334   8.277 -0.3002 -0.0369  0.5422
   97SAPS  H11X 9718   3.067   2.407   8.361  0.6515  0.5019  0.0982
   97SAPS  H11Y 9719   3.158   2.344   8.214 -0.7907 -0.8214 -0.3051
   97SAPS  C312 9720   3.076   2.192   8.335 -0.2665  0.1702 -0.4329
   97SAPS  H12X 9721   3.117   2.124   8.257  3.6998  1.8030 -0.0384
   97SAPS  H12Y 9722   2.978   2.158   8.373 -0.7740  0.5966 -1.3407
   97SAPS  C313 9723   3.187   2.164   8.439  0.1442 -0.0717  0.0170
   97SAPS  H13X 9724   3.174   2.059   8.475  0.4303  0.0419  0.4632
   97SAPS  H13Y 9725   3.164   2.241   8.516  0.3186  0.6831 -0.6731
   97SAPS  C314 9726   3.321   2.191   8.376 -0.3936 -0.2036  0.0386
   97SAPS  H14X 9727   3.321   2.296   8.340  1.4705 -0.4394 -0.7482
   97SAPS  H14Y 9728   3.338   2.136   8.281 -0.3587  1.3913 -0.9185
   97SAPS  C315 9729   3.441   2.165   8.476  0.0781 -0.0201  0.6727
   97SAPS  H15X 9730   3.527   2.139   8.411 -0.1496 -1.5562  0.9574
   97SAPS  H15Y 9731   3.416   2.074   8.535  0.3741 -1.3886 -1.2164
   97SAPS  C316 9732   3.476   2.293   8.564  0.3797 -0.3099  0.5431
   97SAPS  H16X 9733   3.394   2.302   8.638 -0.1729  1.5321 -0.2498
   97SAPS  H16Y 9734   3.479   2.380   8.495 -0.5034 -0.2596  0.5577
   97SAPS  C317 9735   3.609   2.280   8.637 -0.4572  0.5893  0.6740
   97SAPS  H17X 9736   3.641   2.381   8.672 -3.1202  2.7432 -2.4067
   97SAPS  H17Y 9737   3.691   2.236   8.577 -0.0013  1.2170  0.8296
   97SAPS  C318 9738   3.606   2.188   8.762  0.4337  0.1320 -0.5881
   97SAPS  H18X 9739   3.565   2.089   8.732 -0.9051  0.1805  0.9377
   97SAPS  H18Y 9740   3.529   2.235   8.828 -0.5552 -3.2726  0.9023
   97SAPS  H18Z 9741   3.702   2.177   8.816 -1.4664 -2.8097  2.6512
   98SAPS     N 9742   2.447   4.548   6.043 -0.1395 -0.5463 -0.0018
   98SAPS   HN1 9743   2.530   4.505   6.088  1.9149  0.0940 -2.9320
   98SAPS   HN2 9744   2.467   4.647   6.019 -0.6664  0.0430  1.8491
   98SAPS   HN3 9745   2.363   4.552   6.105  1.1578  1.3487  1.7679
   98SAPS   C12 9746   2.409   4.481   5.921  0.3193  0.0227 -0.6033
   98SAPS  H12A 9747   2.317   4.525   5.887 -0.6102 -0.7429  0.8026
   98SAPS   C13 9748   2.522   4.494   5.813 -0.0180  0.4139  0.4713
   98SAPS  O13A 9749   2.610   4.578   5.828 -0.3371  0.3886  0.0757
   98SAPS  O13B 9750   2.487   4.472   5.691  0.0574  0.3408 -0.8821
   98SAPS   C11 9751   2.379   4.334   5.960 -0.0204 -1.1463  0.3483
   98SAPS  H11A 9752   2.464   4.285   6.013 -1.1496 -0.3355  3.0870
   98SAPS  H11B 9753   2.356   4.272   5.871  0.3721  0.7956 -1.1681
   98SAPS     P 9754   2.226   4.203   6.118 -0.3971  0.3076  0.2086
   98SAPS   O13 9755   2.130   4.236   6.223 -0.1936 -0.0897 -0.3498
   98SAPS   O14 9756   2.178   4.107   6.014  0.4073 -0.0113 -0.1221
   98SAPS   O12 9757   2.271   4.333   6.050  0.1989 -0.6385 -0.7615
   98SAPS   O11 9758   2.354   4.149   6.191  0.2097  0.0640  0.2716
   98SAPS    C1 9759   2.430   4.231   6.283 -0.2299 -0.5054 -0.1932
   98SAPS    HA 9760   2.535   4.251   6.256  0.0438  0.0179  1.1441
   98SAPS    HB 9761   2.390   4.333   6.305  1.1146  0.0830 -0.3766
   98SAPS    C2 9762   2.436   4.154   6.420  0.1354  0.1387 -0.7140
   98SAPS    HS 9763   2.473   4.051   6.399 -2.1458 -0.4666 -2.1722
   98SAPS   O21 9764   2.306   4.141   6.490  0.3675  0.1030  0.6078
   98SAPS   C21 9765   2.286   4.040   6.578  0.1167  0.1743 -0.2317
   98SAPS   O22 9766   2.354   3.941   6.587  0.5580 -0.3674  0.1465
   98SAPS   C22 9767   2.148   4.052   6.650 -0.3261 -0.5360  1.5310
   98SAPS   H2R 9768   2.066   4.073   6.577 -0.2464  0.7703  1.7922
   98SAPS   H2S 9769   2.132   3.944   6.672  0.0086 -1.1381 -0.8572
   98SAPS    C3 9770   2.531   4.226   6.528 -0.5469 -0.1675 -0.4292
   98SAPS    HX 9771   2.470   4.311   6.567 -0.1795 -1.1821  2.5889
   98SAPS    HY 9772   2.620   4.274   6.481  0.0756 -0.8022  0.0895
   98SAPS   O31 9773   2.560   4.140   6.635 -0.2330  0.4516 -0.2727
   98SAPS   C31 9774   2.685   4.089   6.645  0.3226  1.0205 -0.1946
   98SAPS   O32 9775   2.776   4.121   6.571  0.2017 -0.0401 -0.0635
   98SAPS   C32 9776   2.699   3.994   6.768  0.4564 -0.2545 -0.3628
   98SAPS   H2X 9777   2.794   3.939   6.749  1.7712  1.9345 -0.3943
   98SAPS   H2Y 9778   2.610   3.927   6.766 -0.0657  0.3947  0.3162
   98SAPS   C23 9779   2.157   4.151   6.761 -0.5292  0.5546  0.2732
   98SAPS   H3R 9780   2.052   4.159   6.798 -1.6534  1.8453 -2.8726
   98SAPS   H3S 9781   2.177   4.245   6.705  0.3756 -0.2650 -0.8368
   98SAPS   C24 9782   2.257   4.126   6.877 -0.1830 -0.0955 -0.1489
   98SAPS   H4R 9783   2.241   4.211   6.947 -0.0104  0.4456 -0.7593
   98SAPS   H4S 9784   2.363   4.138   6.845 -0.4761  0.9350 -0.7932
   98SAPS   C25 9785   2.237   3.995   6.950  0.1030 -0.2277  0.2000
   98SAPS   H5R 9786   2.189   3.916   6.891  0.0794  0.6558 -1.0050
   98SAPS   C26 9787   2.249   3.973   7.080 -0.7789  0.2196 -0.4005
   98SAPS   H6R 9788   2.241   3.873   7.125 -0.4015 -1.3391 -3.5183
   98SAPS   C27 9789   2.292   4.081   7.181 -0.2906 -1.0387 -0.4631
   98SAPS   H7R 9790   2.200   4.123   7.225 -0.5123  0.9939 -2.6918
   98SAPS   H7S 9791   2.348   4.153   7.118 -1.8315  0.4967 -0.1289
   98SAPS   C28 9792   2.394   4.033   7.285 -0.4202 -0.2665  0.5104
   98SAPS   H8R 9793   2.461   3.953   7.250  0.2130  0.4099  0.1423
   98SAPS   C29 9794   2.417   4.074   7.413  0.3408 -0.5015  0.1146
   98SAPS   H9R 9795   2.491   4.020   7.474  0.2907  1.2251  1.7876
   98SAPS  C210 9796   2.343   4.181   7.496  0.3579  0.2960  0.0490
   98SAPS  H10R 9797   2.258   4.229   7.443 -0.5896  0.1732  1.4107
   98SAPS  H10S 9798   2.407   4.266   7.529 -0.5231  0.9509  0.1271
   98SAPS  C211 9799   2.276   4.110   7.616  0.9754  0.4363  0.3563
   98SAPS  H11R 9800   2.192   4.041   7.598  0.8400  1.0737 -1.7111
   98SAPS  C212 9801   2.300   4.135   7.750 -0.0127  0.1947  0.2299
   98SAPS  H12R 9802   2.238   4.078   7.821 -0.3533 -0.2099 -0.3870
   98SAPS  C213 9803   2.402   4.233   7.808  0.3178  0.4584 -0.2457
   98SAPS  H13R 9804   2.477   4.254   7.729 -0.7686  1.2713 -1.1042
   98SAPS  H13S 9805   2.450   4.175   7.889 -0.9649  0.1465  0.3227
   98SAPS  C214 9806   2.337   4.359   7.856 -0.1855  0.3531  0.3359
   98SAPS  H14R 9807   2.326   4.429   7.772 -1.7153  0.6807  0.7801
   98SAPS  C215 9808   2.298   4.387   7.981  0.6338 -0.7203 -0.0757
   98SAPS  H15R 9809   2.252   4.485   8.003  0.4410 -0.8624  0.1587
   98SAPS  C216 9810   2.314   4.285   8.096 -0.1021 -0.4774  1.0907
   98SAPS  H16R 9811   2.410   4.301   8.150  0.6286  0.2472 -0.3656
   98SAPS  H16S 9812   2.313   4.177   8.068  1.9361 -0.9974  2.7509
   98SAPS  C217 9813   2.215   4.297   8.211 -0.4279  0.1849  0.3966
   98SAPS  H17R 9814   2.230   4.217   8.287 -2.0795  0.7476  1.3726
   98SAPS  H17S 9815   2.113   4.291   8.167 -0.8501 -0.7919  1.4362
   98SAPS  C218 9816   2.239   4.425   8.284  0.1896 -0.4035 -0.0818
   98SAPS  H18R 9817   2.225   4.522   8.233 -2.6474 -0.3214  0.7264
   98SAPS  H18S 9818   2.340   4.439   8.330 -0.1122  1.4595  0.0914
   98SAPS  C219 9819   2.132   4.448   8.398 -0.1467 -0.8387 -0.6720
   98SAPS  H19R 9820   2.154   4.376   8.480  1.2119 -1.1017 -1.2336
   98SAPS  H19S 9821   2.037   4.419   8.349  0.6917  0.8193 -3.5502
   98SAPS  C220 9822   2.128   4.590   8.444  0.3339  0.3386 -0.2550
   98SAPS  H20R 9823   2.047   4.596   8.519  0.7177  2.7349  0.0326
   98SAPS  H20S 9824   2.097   4.661   8.365 -1.3520 -0.0054  0.0639
   98SAPS  H20T 9825   2.219   4.618   8.502 -1.0195  1.6067  1.3378
   98SAPS   C33 9826   2.718   4.067   6.899 -0.3715 -0.2860 -0.6626
   98SAPS   H3X 9827   2.626   4.126   6.916 -0.7275  0.0085 -3.2601
   98SAPS   H3Y 9828   2.805   4.135   6.914 -1.5974  0.8306  1.9429
   98SAPS   C34 9829   2.743   3.958   7.005  0.3139 -0.6158 -0.2202
   98SAPS   H4X 9830   2.797   3.864   6.981  0.9723 -0.2752 -0.0901
   98SAPS   H4Y 9831   2.637   3.925   7.015 -0.4273  2.0627  2.3149
   98SAPS   C35 9832   2.790   4.023   7.136 -0.5464  0.6184  0.1108
   98SAPS   H5X 9833   2.707   4.094   7.159 -1.6455  0.3577 -2.5816
   98SAPS   H5Y 9834   2.885   4.080   7.123 -0.4251  0.3122 -0.3667
   98SAPS   C36 9835   2.809   3.920   7.248  0.2487  0.8440  0.0951
   98SAPS   H6X 9836   2.898   3.858   7.226 -1.3334 -0.9524 -1.6373
   98SAPS   H6Y 9837   2.713   3.864   7.246  1.7427 -1.8449 -0.0525
   98SAPS   C37 9838   2.817   3.981   7.389 -0.5681  0.3573 -0.3456
   98SAPS   H7X 9839   2.726   4.044   7.404 -0.8587 -0.3747  1.1813
   98SAPS   H7Y 9840   2.896   4.056   7.406 -1.1881  0.4365  2.7262
   98SAPS   C38 9841   2.804   3.868   7.499 -1.2439 -0.4336  0.6538
   98SAPS   H8X 9842   2.901   3.816   7.505 -1.4057 -0.8031  0.1519
   98SAPS   H8Y 9843   2.730   3.793   7.465  0.1011 -1.6892  0.4101
   98SAPS   C39 9844   2.764   3.928   7.637 -0.2519 -0.0380  0.3970
   98SAPS   H9X 9845   2.661   3.966   7.649  0.4061  1.6103  1.0220
   98SAPS   H9Y 9846   2.825   4.019   7.653 -0.7629  0.4984 -0.6017
   98SAPS  C310 9847   2.787   3.835   7.757 -0.1622 -0.4766 -0.1841
   98SAPS  H10X 9848   2.870   3.761   7.749 -0.6524 -1.0123 -0.4432
   98SAPS  H10Y 9849   2.698   3.772   7.779  1.9888 -2.7968  2.6444
   98SAPS  C311 9850   2.823   3.924   7.882  0.3163  0.1646  0.1014
   98SAPS  H11X 9851   2.727   3.972   7.913  0.7954  0.2245  1.5511
   98SAPS  H11Y 9852   2.906   3.988   7.847  1.2338 -0.2170  1.4817
   98SAPS  C312 9853   2.871   3.837   7.999  0.9726  0.4351 -0.1654
   98SAPS  H12X 9854   2.961   3.781   7.965 -0.0519 -1.0120 -0.5847
   98SAPS  H12Y 9855   2.797   3.758   8.023  0.8891  0.5930  0.0985
   98SAPS  C313 9856   2.904   3.905   8.134 -0.2476 -0.2020  0.1888
   98SAPS  H13X 9857   2.911   3.829   8.216  1.3390 -0.2084  0.0808
   98SAPS  H13Y 9858   2.825   3.979   8.158 -1.4892 -1.5786  0.4947
   98SAPS  C314 9859   3.042   3.970   8.134 -0.2040  0.1596 -0.8444
   98SAPS  H14X 9860   3.069   4.042   8.054 -0.5082 -0.1611 -1.2444
   98SAPS  H14Y 9861   3.122   3.894   8.122  2.0001  2.0120  1.2006
   98SAPS  C315 9862   3.075   4.020   8.274  0.0835 -0.4196 -0.2926
   98SAPS  H15X 9863   3.019   3.948   8.338 -0.2835 -0.7416 -0.9617
   98SAPS  H15Y 9864   3.026   4.119   8.288 -0.4281 -0.8225  0.8979
   98SAPS  C316 9865   3.224   4.012   8.309  0.8053  0.0653  0.6112
   98SAPS  H16X 9866   3.285   4.083   8.249  0.9170 -1.7958 -1.6530
   98SAPS  H16Y 9867   3.264   3.910   8.289 -1.0636 -0.5950  0.0001
   98SAPS  C317 9868   3.263   4.049   8.454 -0.3252  0.6055 -0.0452
   98SAPS  H17X 9869   3.243   3.958   8.516  0.8485 -0.7328 -1.5636
   98SAPS  H17Y 9870   3.191   4.128   8.484  0.6934  2.1010 -1.3991
   98SAPS  C318 9871   3.412   4.085   8.484 -0.4528 -0.3717  1.2855
   98SAPS  H18X 9872   3.481   4.003   8.457  1.2146  2.4518 -4.4453
   98SAPS  H18Y 9873   3.416   4.117   8.591 -2.4546 -0.7262  1.5150
   98SAPS  H18Z 9874   3.443   4.180   8.436 -1.3547 -0.6564  0.0928
   99SAPS     N 9875   6.291   0.151   6.153 -0.2096  0.1909 -0.6905
   99SAPS   HN1 9876   6.330   0.147   6.249  0.6164 -0.7348 -1.0576
   99SAPS   HN2 9877   6.193   0.185   6.137 -0.2547 -0.4979 -1.9605
   99SAPS   HN3 9878   6.280   0.052   6.123  1.2994 -0.5188  0.9281
   99SAPS   C12 9879   6.390   0.214   6.057 -0.2661  0.0809  0.6476
   99SAPS  H12A 9880   6.492   0.209   6.093 -1.1605 -0.1780  3.4314
   99SAPS   C13 9881   6.383   0.149   5.915 -0.2479  0.1348 -0.0792
   99SAPS  O13A 9882   6.335   0.035   5.902 -0.2406 -0.3516 -0.4468
   99SAPS  O13B 9883   6.478   0.188   5.837 -0.3887  0.0191  0.3125
   99SAPS   C11 9884   6.353   0.368   6.056 -0.1671  0.7257 -0.2971
   99SAPS  H11A 9885   6.245   0.381   6.036  0.2456  0.8366 -2.8940
   99SAPS  H11B 9886   6.406   0.419   5.972 -1.6803  1.3167 -0.9234
   99SAPS     P 9887   6.494   0.541   6.189  0.3749 -0.0032 -0.4176
   99SAPS   O13 9888   6.620   0.476   6.148 -0.2824  0.1145  0.2157
   99SAPS   O14 9889   6.445   0.651   6.104 -0.7969 -0.1616 -0.0622
   99SAPS   O12 9890   6.389   0.430   6.182 -0.6152  0.3302  1.5901
   99SAPS   O11 9891   6.486   0.593   6.341  0.3273 -0.4342 -0.5272
   99SAPS    C1 9892   6.531   0.505   6.441  0.9122  0.2875 -0.1056
   99SAPS    HA 9893   6.523   0.397   6.418  2.1557 -0.0021  0.7496
   99SAPS    HB 9894   6.637   0.524   6.466  0.6502  0.0258  1.2789
   99SAPS    C2 9895   6.457   0.537   6.577 -0.7901 -0.7407  1.1270
   99SAPS    HS 9896   6.500   0.468   6.654 -1.2296 -2.3614 -0.0270
   99SAPS   O21 9897   6.315   0.525   6.569 -0.0265 -0.3647 -0.6075
   99SAPS   C21 9898   6.273   0.408   6.528  0.4272 -0.9422  0.4266
   99SAPS   O22 9899   6.339   0.307   6.526  0.4773  0.5539 -0.0606
   99SAPS   C22 9900   6.124   0.419   6.493 -0.2511 -0.0261  0.8036
   99SAPS   H2R 9901   6.080   0.516   6.522 -1.9097 -0.4149 -0.2977
   99SAPS   H2S 9902   6.113   0.415   6.382  2.7379 -1.1524  0.4403
   99SAPS    C3 9903   6.482   0.683   6.638 -0.4834  0.1991  1.0323
   99SAPS    HX 9904   6.426   0.762   6.584  0.6710  1.0716  1.0848
   99SAPS    HY 9905   6.589   0.712   6.627 -0.5989  0.1252 -0.4818
   99SAPS   O31 9906   6.463   0.684   6.781  0.6033  0.4066 -0.5316
   99SAPS   C31 9907   6.347   0.722   6.825 -1.0589 -0.5510 -0.0046
   99SAPS   O32 9908   6.249   0.743   6.759  0.2770  0.0713 -0.0151
   99SAPS   C32 9909   6.358   0.742   6.972  0.0905 -0.6824 -0.0360
   99SAPS   H2X 9910   6.423   0.828   6.996  1.3154 -0.8484 -2.4352
   99SAPS   H2Y 9911   6.410   0.654   7.013  0.1085 -0.7596 -0.2234
   99SAPS   C23 9912   6.045   0.303   6.551 -0.6823 -1.4726  0.2827
   99SAPS   H3R 9913   6.114   0.216   6.547  1.3255 -0.0543  1.8079
   99SAPS   H3S 9914   5.954   0.279   6.493 -2.1426  1.7116  0.9912
   99SAPS   C24 9915   5.998   0.333   6.694 -0.7699 -0.1725 -0.7384
   99SAPS   H4R 9916   5.947   0.243   6.733  0.4069 -0.4442  0.2197
   99SAPS   H4S 9917   5.918   0.410   6.687 -1.2645 -0.5055  0.9367
   99SAPS   C25 9918   6.101   0.388   6.798 -0.2219 -0.1555 -1.0700
   99SAPS   H5R 9919   6.135   0.492   6.797  0.0596 -0.0853  2.5673
   99SAPS   C26 9920   6.153   0.312   6.897 -0.4079 -0.7907 -0.3280
   99SAPS   H6R 9921   6.230   0.357   6.960 -1.3060  0.3612 -0.0265
   99SAPS   C27 9922   6.143   0.163   6.909 -0.5841  0.2689  0.0939
   99SAPS   H7R 9923   6.183   0.119   6.815  0.5877  0.6649  0.3911
   99SAPS   H7S 9924   6.035   0.136   6.917 -0.6332  0.4745  0.1191
   99SAPS   C28 9925   6.220   0.103   7.024 -0.0565 -0.1954  0.0929
   99SAPS   H8R 9926   6.324   0.069   7.012 -0.4394 -1.1738 -0.5946
   99SAPS   C29 9927   6.160   0.084   7.139  0.7870 -0.3194 -0.4882
   99SAPS   H9R 9928   6.219   0.035   7.218 -0.0590  3.7616  3.0574
   99SAPS  C210 9929   6.016   0.106   7.183  0.8966 -0.2072 -0.2593
   99SAPS  H10R 9930   5.947   0.018   7.177  1.8270 -0.8849 -1.4098
   99SAPS  H10S 9931   5.966   0.164   7.102 -0.4410 -0.0368  0.6560
   99SAPS  C211 9932   6.019   0.180   7.314  0.0563  0.5596 -0.5418
   99SAPS  H11R 9933   6.031   0.289   7.303 -1.6754  0.7405 -0.9682
   99SAPS  C212 9934   5.997   0.125   7.436  0.2688  0.6764 -0.0626
   99SAPS  H12R 9935   5.998   0.204   7.512  0.8351  0.5441  0.0702
   99SAPS  C213 9936   5.964  -0.013   7.478  0.2768 -0.6985 -0.4757
   99SAPS  H13R 9937   6.057  -0.046   7.528  1.6713  0.7787 -1.9645
   99SAPS  H13S 9938   5.939  -0.071   7.386  0.0094  2.0368 -2.2457
   99SAPS  C214 9939   5.849  -0.028   7.571  0.5053 -0.0075 -0.3404
   99SAPS  H14R 9940   5.758  -0.068   7.523  0.2612 -1.7308  1.4298
   99SAPS  C215 9941   5.845  -0.021   7.704 -0.1244 -0.9159  0.8338
   99SAPS  H15R 9942   5.760  -0.035   7.773 -0.5502 -0.2145  0.4623
   99SAPS  C216 9943   5.968   0.007   7.790  0.3715  0.5846  1.1050
   99SAPS  H16R 9944   5.943   0.107   7.831 -0.0788  1.1360 -0.4209
   99SAPS  H16S 9945   6.058   0.023   7.727 -0.6413 -0.1169 -0.6092
   99SAPS  C217 9946   5.982  -0.104   7.893  0.5401  0.0640 -0.5399
   99SAPS  H17R 9947   6.003  -0.197   7.836  2.3366 -1.9643  3.0630
   99SAPS  H17S 9948   5.885  -0.106   7.947  0.4574  1.2196 -0.6340
   99SAPS  C218 9949   6.109  -0.104   7.974  0.1365  0.1454 -0.2888
   99SAPS  H18R 9950   6.200  -0.089   7.910  1.1121 -2.1227  0.4673
   99SAPS  H18S 9951   6.119  -0.206   8.016 -2.1758 -0.7371 -1.7085
   99SAPS  C219 9952   6.109   0.009   8.081 -0.0114  0.5858 -0.7418
   99SAPS  H19R 9953   6.036  -0.016   8.160  1.1149  0.7853  0.3990
   99SAPS  H19S 9954   6.087   0.108   8.036 -0.0620  1.9181  2.0369
   99SAPS  C220 9955   6.251   0.024   8.144  0.1012  0.0485  0.1026
   99SAPS  H20R 9956   6.293  -0.070   8.186 -2.4422 -0.6854  1.1972
   99SAPS  H20S 9957   6.251   0.099   8.226 -0.2341 -0.3103  0.4387
   99SAPS  H20T 9958   6.319   0.063   8.065  0.9514 -1.0400  0.2692
   99SAPS   C33 9959   6.219   0.755   7.046 -0.5441  0.2803  0.0553
   99SAPS   H3X 9960   6.180   0.651   7.044  0.3619 -0.0825  0.7459
   99SAPS   H3Y 9961   6.142   0.812   6.990 -0.0837  1.9852  1.0737
   99SAPS   C34 9962   6.220   0.796   7.196  0.1561 -0.4694  0.8589
   99SAPS   H4X 9963   6.112   0.802   7.218  0.4372 -0.2894  2.2603
   99SAPS   H4Y 9964   6.267   0.896   7.207  2.2669 -0.8328 -2.8757
   99SAPS   C35 9965   6.293   0.697   7.284 -0.6047  0.2332 -0.5794
   99SAPS   H5X 9966   6.402   0.706   7.263 -0.8862 -0.4592 -2.5733
   99SAPS   H5Y 9967   6.270   0.593   7.253  0.1469 -0.1705  0.1579
   99SAPS   C36 9968   6.253   0.715   7.430  0.2293  0.2443 -1.1252
   99SAPS   H6X 9969   6.262   0.823   7.454 -0.8772  0.5334 -1.9380
   99SAPS   H6Y 9970   6.324   0.657   7.494 -1.8720 -0.2717  0.8524
   99SAPS   C37 9971   6.116   0.656   7.471 -0.4467 -1.0683  0.3307
   99SAPS   H7X 9972   6.127   0.549   7.444 -0.8208 -1.3186  1.1447
   99SAPS   H7Y 9973   6.040   0.696   7.400  0.3248  1.6600  0.9061
   99SAPS   C38 9974   6.070   0.669   7.608 -1.0867  0.6420 -0.0725
   99SAPS   H8X 9975   6.006   0.760   7.615 -0.6654  1.0065 -0.9124
   99SAPS   H8Y 9976   6.156   0.667   7.678 -0.6966  0.2325 -0.5697
   99SAPS   C39 9977   5.987   0.537   7.650  0.2399 -0.2308  0.0178
   99SAPS   H9X 9978   6.058   0.453   7.633  2.8515  1.6451  0.9624
   99SAPS   H9Y 9979   5.899   0.533   7.582  0.1404 -1.6105  0.2145
   99SAPS  C310 9980   5.920   0.538   7.790 -0.4060  0.4359  0.5980
   99SAPS  H10X 9981   5.833   0.607   7.788 -0.0446  0.8979 -1.5833
   99SAPS  H10Y 9982   5.986   0.564   7.876 -0.1539 -2.0160  1.2275
   99SAPS  C311 9983   5.868   0.393   7.830 -0.0522 -0.5450  0.2814
   99SAPS  H11X 9984   5.953   0.324   7.850 -0.6531 -1.6472 -0.8366
   99SAPS  H11Y 9985   5.817   0.361   7.737 -2.5772  3.2909  0.1096
   99SAPS  C312 9986   5.775   0.388   7.948  0.4231 -0.2346 -0.3368
   99SAPS  H12X 9987   5.682   0.445   7.931 -0.2831 -0.7903  1.5100
   99SAPS  H12Y 9988   5.825   0.442   8.030  0.5289  2.2286 -1.9221
   99SAPS  C313 9989   5.735   0.244   7.989  0.2101 -0.4061  0.4083
   99SAPS  H13X 9990   5.821   0.185   8.026  0.8635 -1.3003 -2.3152
   99SAPS  H13Y 9991   5.704   0.198   7.893 -1.2696 -2.8336  1.9230
   99SAPS  C314 9992   5.628   0.240   8.103 -0.6219 -1.0900  0.4006
   99SAPS  H14X 9993   5.540   0.302   8.074 -3.0096 -2.4977  4.0099
   99SAPS  H14Y 9994   5.667   0.269   8.202 -1.2207 -2.4672  1.0704
   99SAPS  C315 9995   5.562   0.101   8.112 -0.1147  0.1963 -0.3931
   99SAPS  H15X 9996   5.524   0.083   8.010 -1.3740 -0.4203  0.1643
   99SAPS  H15Y 9997   5.475   0.094   8.181  0.7510 -0.0385  0.6989
   99SAPS  C316 9998   5.661  -0.005   8.176 -0.9871  0.1336  0.4600
   99SAPS  H16X 9999   5.759   0.007   8.126  0.2734 -1.4009  2.3722
   99SAPS  H16Y10000   5.616  -0.107   8.177  0.7687 -0.7021  1.8995
   99SAPS  C31710001   5.699   0.031   8.320 -0.3638  0.6865  0.0441
   99SAPS  H17X10002   5.744   0.132   8.329  1.0990  0.0401  0.4046
   99SAPS  H17Y10003   5.776  -0.039   8.361 -1.8451 -0.1726  1.5085
   99SAPS  C31810004   5.579   0.011   8.410  0.1855  0.6525  0.5108
   99SAPS  H18X10005   5.587   0.034   8.519 -0.1874  1.5159  0.3618
   99SAPS  H18Y10006   5.543  -0.093   8.394  2.4211 -0.2941  1.1572
   99SAPS  H18Z10007   5.494   0.079   8.387 -0.7360 -1.0362 -1.4253
  100SAPS     N10008   2.116   2.263   6.450  0.3548  0.8365  0.4087
  100SAPS   HN110009   2.211   2.299   6.471  1.4937 -1.3386 -0.6216
  100SAPS   HN210010   2.052   2.284   6.529 -0.9418 -2.0294  0.2319
  100SAPS   HN310011   2.118   2.159   6.442 -1.1676  0.6497  1.9845
  100SAPS   C1210012   2.077   2.328   6.324  0.4204  0.3070 -0.2341
  100SAPS  H12A10013   2.116   2.276   6.237  0.8181 -1.0675  0.7261
  100SAPS   C1310014   1.921   2.318   6.309  0.0974 -0.1290  0.0621
  100SAPS  O13A10015   1.859   2.252   6.388  0.4759  0.3065  0.0215
  100SAPS  O13B10016   1.865   2.383   6.216  0.0674 -0.1734 -0.0013
  100SAPS   C1110017   2.130   2.475   6.317  0.3145  0.1349 -0.4441
  100SAPS  H11A10018   2.070   2.548   6.375 -1.2568 -1.3500 -0.1277
  100SAPS  H11B10019   2.116   2.504   6.211 -1.3892 -1.0289 -0.5880
  100SAPS     P10020   2.343   2.617   6.334  0.4489 -0.1903 -0.1595
  100SAPS   O1310021   2.489   2.604   6.360  0.1233 -0.7972 -0.0869
  100SAPS   O1410022   2.316   2.683   6.207 -0.3809  0.2281 -0.4659
  100SAPS   O1210023   2.267   2.482   6.354  0.1266  0.5915 -0.3192
  100SAPS   O1110024   2.285   2.710   6.441 -0.2297  0.3439 -0.1684
  100SAPS    C110025   2.341   2.718   6.573  0.0370 -0.2092 -0.1190
  100SAPS    HA10026   2.452   2.715   6.571  0.0897  0.9967 -2.5378
  100SAPS    HB10027   2.321   2.821   6.612 -0.0792 -0.7199  1.2278
  100SAPS    C210028   2.276   2.627   6.687 -0.0609  0.4069  0.5237
  100SAPS    HS10029   2.309   2.523   6.668  0.3411  0.7616 -0.8874
  100SAPS   O2110030   2.130   2.653   6.680  0.3366  0.5649 -0.5070
  100SAPS   C2110031   2.054   2.539   6.687 -1.5033  0.1443 -1.2219
  100SAPS   O2210032   2.099   2.420   6.689 -0.1646 -0.3730 -0.2946
  100SAPS   C2210033   1.908   2.575   6.708 -0.2146  0.3146  0.7586
  100SAPS   H2R10034   1.890   2.670   6.652  0.1935  0.3263  0.6423
  100SAPS   H2S10035   1.841   2.502   6.658 -0.5431  0.9380  0.2789
  100SAPS    C310036   2.329   2.672   6.834 -0.5399  0.0086  0.3232
  100SAPS    HX10037   2.297   2.779   6.836 -2.6512 -0.4382 -2.2862
  100SAPS    HY10038   2.438   2.654   6.826 -0.1938  1.1437  2.0260
  100SAPS   O3110039   2.257   2.596   6.936  0.2428  0.5338 -0.5460
  100SAPS   C3110040   2.314   2.595   7.058 -0.1120  0.7873 -0.0863
  100SAPS   O3210041   2.425   2.627   7.084  0.0604  0.0991  0.1001
  100SAPS   C3210042   2.217   2.530   7.153 -0.3320 -0.5147 -0.2300
  100SAPS   H2X10043   2.200   2.424   7.125 -2.0314 -0.6649  1.1544
  100SAPS   H2Y10044   2.113   2.569   7.143  0.7823  2.2970 -1.8404
  100SAPS   C2310045   1.879   2.611   6.857  0.5184  0.6905  0.1115
  100SAPS   H3R10046   1.953   2.682   6.900  0.6926 -0.5133  1.9071
  100SAPS   H3S10047   1.894   2.513   6.907 -0.0892  0.0876 -0.8537
  100SAPS   C2410048   1.728   2.657   6.887  0.1090  0.2836  0.1455
  100SAPS   H4R10049   1.719   2.767   6.870 -1.1094  0.3423  1.0457
  100SAPS   H4S10050   1.724   2.635   6.996  0.6335  0.0250  0.1116
  100SAPS   C2510051   1.615   2.586   6.820  0.2738 -0.3459 -0.4893
  100SAPS   H5R10052   1.604   2.598   6.711  1.0401  0.9580 -0.4353
  100SAPS   C2610053   1.523   2.515   6.886  0.1813 -0.4430  0.0106
  100SAPS   H6R10054   1.451   2.461   6.822 -0.9420 -0.3306  1.1356
  100SAPS   C2710055   1.508   2.516   7.036 -0.5910  0.0315  0.2317
  100SAPS   H7R10056   1.402   2.491   7.061 -0.3788 -0.0546  1.0994
  100SAPS   H7S10057   1.529   2.617   7.077  0.8670 -0.3523  0.4702
  100SAPS   C2810058   1.590   2.409   7.113 -0.4897 -0.4717 -0.3484
  100SAPS   H8R10059   1.572   2.304   7.085  0.6358 -1.3916  2.1044
  100SAPS   C2910060   1.660   2.424   7.223  1.1159  0.0140 -0.4337
  100SAPS   H9R10061   1.722   2.342   7.262  0.4691 -0.3265 -0.1021
  100SAPS  C21010062   1.685   2.561   7.293  0.1017 -0.4285  0.6506
  100SAPS  H10R10063   1.722   2.642   7.227 -1.8070 -0.2872 -0.3326
  100SAPS  H10S10064   1.767   2.534   7.362  1.0193 -0.0134 -0.2478
  100SAPS  C21110065   1.562   2.598   7.370 -0.4781 -0.2276  0.4976
  100SAPS  H11R10066   1.471   2.621   7.313  1.0456  0.8966 -1.6502
  100SAPS  C21210067   1.547   2.601   7.505  0.6536  0.4290 -0.2584
  100SAPS  H12R10068   1.446   2.618   7.547 -0.0078 -2.3913 -0.4612
  100SAPS  C21310069   1.646   2.571   7.615  0.5469  0.0003  0.5841
  100SAPS  H13R10070   1.744   2.539   7.573  0.8000  2.2603 -0.7278
  100SAPS  H13S10071   1.606   2.479   7.663  2.0634 -0.9729  0.0784
  100SAPS  C21410072   1.675   2.673   7.719 -0.3301  0.1070  0.7410
  100SAPS  H14R10073   1.720   2.757   7.664  0.8795 -1.2661 -0.4431
  100SAPS  C21510074   1.665   2.672   7.853  0.7363  0.1122  0.1416
  100SAPS  H15R10075   1.691   2.766   7.905  0.4818  1.2813 -1.7390
  100SAPS  C21610076   1.607   2.558   7.938 -0.0678  0.1745  0.0243
  100SAPS  H16R10077   1.692   2.499   7.978 -1.1827 -1.8633 -0.4929
  100SAPS  H16S10078   1.549   2.492   7.871 -0.0839  2.5223 -2.4582
  100SAPS  C21710079   1.512   2.597   8.055  0.1467  0.4495 -0.7535
  100SAPS  H17R10080   1.442   2.517   8.085  2.9944 -1.2420  1.9600
  100SAPS  H17S10081   1.451   2.683   8.020 -0.9652  0.3651  0.8910
  100SAPS  C21810082   1.597   2.649   8.183 -1.1287 -0.0867 -0.2513
  100SAPS  H18R10083   1.655   2.736   8.147  1.7752 -1.5774  0.5224
  100SAPS  H18S10084   1.665   2.576   8.230 -2.5748 -0.2489  1.7234
  100SAPS  C21910085   1.514   2.696   8.300  0.0201  0.4082  0.3953
  100SAPS  H19R10086   1.443   2.765   8.250  2.9897  2.1886 -1.6967
  100SAPS  H19S10087   1.569   2.754   8.378  1.8696 -0.2785 -0.3453
  100SAPS  C22010088   1.443   2.581   8.367  0.3348 -0.7825  0.2498
  100SAPS  H20R10089   1.506   2.490   8.371  2.8409  0.8674  0.5721
  100SAPS  H20S10090   1.349   2.559   8.312 -0.7015 -1.5625  2.2529
  100SAPS  H20T10091   1.423   2.609   8.473 -0.0895 -0.0753 -0.0077
  100SAPS   C3310092   2.279   2.549   7.290 -0.2610  0.7569  0.5884
  100SAPS   H3X10093   2.296   2.655   7.320  0.3788  0.9110 -0.2722
  100SAPS   H3Y10094   2.378   2.499   7.302 -0.2311  1.0868  1.8226
  100SAPS   C3410095   2.190   2.483   7.407  0.8236 -0.2936  0.1069
  100SAPS   H4X10096   2.152   2.387   7.366 -1.4453 -0.5760  2.5678
  100SAPS   H4Y10097   2.102   2.551   7.417 -0.4741 -1.9742  0.5526
  100SAPS   C3510098   2.249   2.451   7.545 -0.2475  0.1469  0.0937
  100SAPS   H5X10099   2.261   2.551   7.593 -0.8299  0.1650  0.2152
  100SAPS   H5Y10100   2.347   2.406   7.522  0.2693  1.1363  0.2891
  100SAPS   C3610101   2.169   2.346   7.634  0.5459 -0.5836 -0.1200
  100SAPS   H6X10102   2.234   2.300   7.711  0.9672 -1.0324 -0.7284
  100SAPS   H6Y10103   2.133   2.260   7.575 -1.3922  0.3278 -0.3320
  100SAPS   C3710104   2.054   2.404   7.710  0.1075 -0.4985 -0.6665
  100SAPS   H7X10105   1.981   2.451   7.641 -0.2214  0.7154  0.4466
  100SAPS   H7Y10106   2.083   2.496   7.765 -1.9694 -1.4831  2.3545
  100SAPS   C3810107   1.989   2.317   7.815 -0.1776  0.6973 -0.3679
  100SAPS   H8X10108   1.952   2.222   7.770  1.0306  0.4425 -0.8640
  100SAPS   H8Y10109   1.898   2.368   7.852  1.6294  2.2248  2.2920
  100SAPS   C3910110   2.073   2.278   7.935 -0.2690 -0.4432 -0.2015
  100SAPS   H9X10111   2.094   2.368   7.998  0.1484 -0.3830 -0.4209
  100SAPS   H9Y10112   2.166   2.232   7.896 -0.1987 -0.2150 -0.3098
  100SAPS  C31010113   2.009   2.169   8.023  0.0790  0.0008  0.3303
  100SAPS  H10X10114   1.954   2.100   7.956  1.5057  0.6291 -1.5778
  100SAPS  H10Y10115   1.933   2.215   8.090  0.8726 -0.5752  1.6947
  100SAPS  C31110116   2.108   2.080   8.093 -0.2221  0.5696 -0.0187
  100SAPS  H11X10117   2.157   2.135   8.177  1.2263  0.2312 -0.6205
  100SAPS  H11Y10118   2.191   2.063   8.021  1.9663 -0.5533  2.5748
  100SAPS  C31210119   2.051   1.947   8.140 -0.1017  0.3909 -0.1206
  100SAPS  H12X10120   2.134   1.884   8.180 -2.3565 -2.7592  0.0327
  100SAPS  H12Y10121   2.000   1.891   8.059  1.7059  0.3230 -1.2882
  100SAPS  C31310122   1.936   1.961   8.237 -0.1272 -0.3226  0.1716
  100SAPS  H13X10123   1.901   1.857   8.247  0.7681 -0.9616 -2.4361
  100SAPS  H13Y10124   1.859   2.018   8.182 -0.3066  0.4929  1.2260
  100SAPS  C31410125   1.969   2.014   8.372 -0.3238 -0.0975 -0.3473
  100SAPS  H14X10126   1.995   2.121   8.359 -1.6565  0.2732 -0.1042
  100SAPS  H14Y10127   2.049   1.958   8.424 -0.7387 -1.2904 -0.9340
  100SAPS  C31510128   1.849   2.023   8.471  0.0182  0.1084  0.1441
  100SAPS  H15X10129   1.789   1.930   8.459  1.9295 -1.0188 -1.1412
  100SAPS  H15Y10130   1.791   2.110   8.433  0.3187  0.3604  0.2637
  100SAPS  C31610131   1.874   2.050   8.621  0.1447  0.0372  0.1256
  100SAPS  H16X10132   1.931   2.145   8.623  1.1947 -0.5951  2.3091
  100SAPS  H16Y10133   1.926   1.962   8.665 -2.8060 -1.1103  1.6202
  100SAPS  C31710134   1.746   2.092   8.694 -0.1938 -0.3283  0.3136
  100SAPS  H17X10135   1.686   2.160   8.629 -2.1329 -1.0382  1.2826
  100SAPS  H17Y10136   1.773   2.143   8.788  1.6914 -2.2696  0.9202
  100SAPS  C31810137   1.653   1.979   8.726  0.0550 -1.3134 -0.2168
  100SAPS  H18X10138   1.627   1.917   8.638 -0.6582 -0.4787 -0.6095
  100SAPS  H18Y10139   1.565   2.015   8.784  0.0677 -2.0420  0.2738
  100SAPS  H18Z10140   1.712   1.911   8.792  1.2021  0.4702  0.6847
  101OSM      N10141   1.938   1.561  11.033 -0.2087 -0.3843 -0.7781
  101OSM    C1510142   2.016   1.696  11.036  0.4545 -0.9398  0.1550
  101OSM   H15A10143   2.067   1.705  10.942 -0.1920  2.6432  0.0019
  101OSM   H15B10144   2.082   1.712  11.120 -0.0225  1.4442  0.1329
  101OSM   H15C10145   1.956   1.786  11.037  3.0175  0.8653  0.1407
  101OSM    C1410146   2.038   1.442  11.047  0.0317  0.1455  0.2055
  101OSM   H14A10147   2.125   1.462  11.108  1.1262 -0.3076 -1.1528
  101OSM   H14B10148   2.076   1.420  10.948 -1.9718  0.9301 -0.7865
  101OSM   H14C10149   1.998   1.344  11.070  1.6089 -0.8365 -1.0174
  101OSM    C1310150   1.852   1.569  11.159 -0.0640  0.2368  0.2790
  101OSM   H13A10151   1.916   1.579  11.245  1.5142  1.1956 -0.9439
  101OSM   H13B10152   1.806   1.472  11.172 -0.5288  0.4527  0.2493
  101OSM   H13C10153   1.785   1.653  11.155 -0.1692  0.2686  2.0983
  101OSM    C1210154   1.860   1.534  10.907  0.3339  0.1920 -0.1050
  101OSM   H12A10155   1.779   1.603  10.894  0.6461  0.4452 -0.7431
  101OSM   H12B10156   1.811   1.439  10.923  0.6553  0.1859  0.9199
  101OSM    C1110157   1.926   1.535  10.765  0.0098  0.0298  0.1811
  101OSM   H11A10158   1.929   1.636  10.718  0.3287 -1.1518 -2.5231
  101OSM   H11B10159   1.856   1.476  10.702 -0.6412 -0.2047  1.1047
  101OSM      P10160   2.187   1.541  10.742  0.0814 -0.1515  0.4605
  101OSM    O1310161   2.163   1.687  10.762 -0.0351  0.0127 -0.0539
  101OSM    O1410162   2.294   1.478  10.822 -0.1517  0.2557 -0.1491
  101OSM    O1110163   2.223   1.516  10.591 -0.3310  0.3856  0.4823
  101OSM    O1210164   2.052   1.466  10.761  0.0926 -0.5413 -0.7018
  101OSM    C1S10165   2.131   1.542  10.490 -0.3616  0.3503  0.6710
  101OSM    H1S10166   2.026   1.513  10.513 -0.7967  0.1062 -1.4422
  101OSM    H1T10167   2.149   1.494  10.392  0.3268  0.9496  0.5008
  101OSM     NF10168   2.019   1.700  10.347 -0.5989  0.8774 -0.4188
  101OSM    HNF10169   2.053   1.702  10.253  1.0192  0.7317  0.1409
  101OSM    C2S10170   2.123   1.691  10.452  0.6303  0.2463  0.2681
  101OSM    H2S10171   2.084   1.744  10.541  1.4669 -2.0270  2.1131
  101OSM    C3S10172   2.268   1.738  10.415 -0.1246 -1.1311 -0.4103
  101OSM    H3S10173   2.327   1.663  10.359 -1.2814 -0.5944 -2.4308
  101OSM     O310174   2.346   1.755  10.534  0.1701 -0.5238  0.0665
  101OSM    HO310175   2.284   1.729  10.602 -0.5140  0.5610 -0.1228
  101OSM    C4S10176   2.263   1.872  10.346 -0.5537  0.5209 -0.4708
  101OSM    H4S10177   2.321   1.875  10.253  0.0855 -1.0797 -0.1494
  101OSM    C5S10178   2.211   1.990  10.395 -0.3182  0.3391  0.6949
  101OSM    H5S10179   2.159   1.984  10.492  1.0067 -3.3397  1.3264
  101OSM    C6S10180   2.234   2.121  10.322  1.1731 -1.0952  0.7410
  101OSM    H6S10181   2.252   2.108  10.213 -1.0412 -0.7868  0.2877
  101OSM    H6T10182   2.322   2.170  10.368  0.8815 -0.7459  0.9269
  101OSM    C7S10183   2.113   2.228  10.337  0.8555  0.2710 -0.7013
  101OSM    H7S10184   2.143   2.318  10.280 -1.2826 -0.1096 -2.5990
  101OSM    H7T10185   2.110   2.249  10.446  1.0161 -0.3055 -0.5796
  101OSM    C8S10186   1.978   2.184  10.295  0.3525  0.5431 -0.8474
  101OSM    H8S10187   1.912   2.272  10.284  0.7541  0.6593 -2.7224
  101OSM    H8T10188   1.941   2.110  10.369  1.2610 -0.7375 -1.6346
  101OSM    C9S10189   1.969   2.132  10.153  0.0446 -0.4229 -0.1314
  101OSM    H9S10190   2.016   2.031  10.160 -0.9086 -0.9427 -1.0036
  101OSM    H9T10191   2.033   2.195  10.088  2.1865 -1.6952  0.6223
  101OSM   C10S10192   1.826   2.116  10.090 -0.1083  0.1456 -0.5368
  101OSM   H10S10193   1.784   2.212  10.055  2.7306  1.0232 -1.7324
  101OSM   H10T10194   1.765   2.073  10.173  2.4146 -3.3362 -0.2357
  101OSM   C11S10195   1.811   2.006   9.979  0.7486 -0.1588 -0.0172
  101OSM   H11S10196   1.705   1.974   9.980  0.7455 -0.1489  1.3780
  101OSM   H11T10197   1.882   1.924  10.005 -0.9820 -1.3881  0.9878
  101OSM   C12S10198   1.832   2.080   9.843 -0.7008 -0.2708  0.3431
  101OSM   H12S10199   1.939   2.103   9.823 -0.5513 -1.1342  0.0837
  101OSM   H12T10200   1.772   2.172   9.829  1.5766  1.3825  0.8434
  101OSM   C13S10201   1.791   2.003   9.719  0.0774  0.9239 -0.2864
  101OSM   H13S10202   1.680   2.000   9.721  0.0539 -1.5442  2.6648
  101OSM   H13T10203   1.837   1.903   9.732  1.3964  1.0043 -3.3243
  101OSM   C14S10204   1.843   2.069   9.590  0.4553  0.5889 -0.3866
  101OSM   H14S10205   1.953   2.083   9.602  0.8756 -1.8406 -0.8330
  101OSM   H14T10206   1.795   2.168   9.575  1.6821  1.2210 -0.2691
  101OSM   C15S10207   1.814   1.981   9.467 -0.2939  0.5330 -0.2296
  101OSM   H15S10208   1.708   1.946   9.473 -0.0887 -0.0216  0.1708
  101OSM   H15T10209   1.889   1.900   9.479 -0.8544  0.3135  2.3385
  101OSM   C16S10210   1.810   2.045   9.328  0.2687  0.0097  0.1616
  101OSM   H16S10211   1.903   2.106   9.317 -0.1121  0.7184  0.7970
  101OSM   H16T10212   1.728   2.119   9.321  1.4292  1.1873 -2.9661
  101OSM   C17S10213   1.795   1.940   9.212 -0.2142 -0.2308 -0.5609
  101OSM   H17S10214   1.692   1.900   9.221  0.6388 -2.3297  0.7253
  101OSM   H17T10215   1.851   1.847   9.238  2.2189  1.1072 -0.7689
  101OSM   C18S10216   1.827   1.990   9.078 -0.1357  0.3290 -0.0009
  101OSM   H18S10217   1.770   2.084   9.061 -1.2936 -0.2741  0.4443
  101OSM   H18T10218   1.795   1.911   9.007  2.1479  0.5406 -1.3516
  101OSM   H18U10219   1.938   2.001   9.079 -0.2126  1.1163  0.5209
  101OSM    C1F10220   1.894   1.686  10.382 -0.0002 -0.5200 -0.2096
  101OSM     OF10221   1.862   1.709  10.499  0.2561 -0.2648 -0.6168
  101OSM    C2F10222   1.802   1.634  10.278  0.4265 -0.1302 -0.2888
  101OSM    H2F10223   1.740   1.571  10.344 -0.4249 -0.7911 -1.6747
  101OSM    H2G10224   1.864   1.574  10.208  3.1970  1.1032  0.9649
  101OSM    C3F10225   1.711   1.741  10.208 -0.1752 -0.9311 -0.0357
  101OSM    H3F10226   1.771   1.796  10.133  1.4271 -0.4247  1.5488
  101OSM    H3G10227   1.670   1.817  10.278  2.0510  0.6566 -0.3355
  101OSM    C4F10228   1.603   1.666  10.130  0.0058 -0.7928 -0.1917
  101OSM    H4F10229   1.526   1.742  10.104  0.0446 -0.4278  0.6997
  101OSM    H4G10230   1.555   1.606  10.210 -0.7357  2.3579  1.9311
  101OSM    C5F10231   1.653   1.580  10.009  0.1909  0.3591 -0.0422
  101OSM    H5F10232   1.575   1.518   9.959 -0.2165 -0.0893  1.1133
  101OSM    H5G10233   1.718   1.509  10.064 -1.1164  0.9630  2.3964
  101OSM    C6F10234   1.725   1.657   9.898 -0.1335 -0.2472 -0.0085
  101OSM    H6F10235   1.823   1.695   9.932  1.4342 -1.6380 -2.6315
  101OSM    H6G10236   1.664   1.743   9.861 -0.8657 -1.1921 -1.0804
  101OSM    C7F10237   1.746   1.565   9.773  0.1828 -0.7408 -0.5441
  101OSM    H7F10238   1.642   1.536   9.747 -0.2526  1.0269 -0.8966
  101OSM    H7G10239   1.801   1.476   9.812  0.5929  0.2543  1.2892
  101OSM    C8F10240   1.812   1.633   9.664 -0.3938  0.0265  0.6751
  101OSM    H8F10241   1.916   1.659   9.694 -0.0097 -0.9267  0.2242
  101OSM    H8G10242   1.758   1.726   9.636  0.1493  0.6168  1.5287
  101OSM    C9F10243   1.821   1.552   9.538 -0.1797  1.3605 -0.7472
  101OSM    H9F10244   1.911   1.494   9.514 -1.4593  0.0806 -2.8816
  101OSM   C10F10245   1.721   1.552   9.448  0.4376 -0.8955 -0.1958
  101OSM   H10F10246   1.736   1.485   9.362  2.9007 -0.3048 -0.3034
  101OSM   C11F10247   1.585   1.616   9.445  0.8446  0.5592 -1.3279
  101OSM   H11F10248   1.578   1.692   9.364 -2.4626  0.8652 -0.8927
  101OSM   H11G10249   1.570   1.679   9.536  0.0485 -0.9536 -0.3775
  101OSM   C12F10250   1.472   1.514   9.429  0.1298 -0.4062 -0.2573
  101OSM   H12F10251   1.380   1.577   9.423  1.8673  2.2163 -1.2116
  101OSM   H12G10252   1.463   1.443   9.513 -0.2792  0.5563  0.5298
  101OSM   C13F10253   1.467   1.447   9.293 -0.0695  0.1310 -0.2322
  101OSM   H13F10254   1.552   1.375   9.283 -0.6759 -0.4214 -1.7868
  101OSM   H13G10255   1.461   1.529   9.218 -1.2126  1.0695  0.8490
  101OSM   C14F10256   1.352   1.346   9.279  0.1849  0.3967 -0.1793
  101OSM   H14F10257   1.263   1.410   9.299  1.8465  2.4271  1.1886
  101OSM   H14G10258   1.355   1.274   9.363  0.5042 -0.4416 -0.8883
  101OSM   C15F10259   1.335   1.269   9.143  0.4216 -0.1238 -0.0243
  101OSM   H15F10260   1.369   1.338   9.063  0.0311  0.4428  0.2821
  101OSM   H15G10261   1.231   1.231   9.132  0.0992  1.2557 -2.5976
  101OSM   C16F10262   1.423   1.141   9.149  0.5370  0.7480  0.0850
  101OSM   H16F10263   1.391   1.060   9.218  0.3494  0.8071  0.0684
  101OSM   H16G10264   1.522   1.169   9.191  0.0286  1.7205  0.6677
  101OSM   C17F10265   1.429   1.073   9.011  0.3834  0.8175 -0.3887
  101OSM   H17F10266   1.452   1.157   8.943  1.6472  2.3582  1.7980
  101OSM   H17G10267   1.324   1.040   9.000  0.4010  1.3436 -2.6079
  101OSM   C18F10268   1.537   0.974   8.996 -0.1011  0.2797  0.0274
  101OSM   H18F10269   1.546   0.886   9.064 -0.3945  0.7844  0.7317
  101OSM   H18G10270   1.635   1.026   8.999 -0.3726  0.8240 -0.3945
  101OSM   H18H10271   1.534   0.930   8.894 -0.6983  0.0087  0.1546
  102OSM      N10272   0.391   1.704  10.896 -0.3371 -0.5026  0.1443
  102OSM    C1510273   0.317   1.764  11.010  0.2815 -0.3106 -0.2300
  102OSM   H15A10274   0.211   1.740  11.009  0.6597 -2.1071 -0.8294
  102OSM   H15B10275   0.321   1.872  11.019 -2.2706 -0.1497 -0.2887
  102OSM   H15C10276   0.355   1.729  11.105 -0.6978  0.1960  0.3719
  102OSM    C1410277   0.352   1.770  10.764 -0.2034 -0.0984  0.1016
  102OSM   H14A10278   0.261   1.732  10.722 -2.2171  1.4403  2.7650
  102OSM   H14B10279   0.428   1.742  10.693  0.4470  0.9073  0.3723
  102OSM   H14C10280   0.349   1.878  10.761 -1.0461 -0.1448 -1.6140
  102OSM    C1310281   0.537   1.739  10.923  0.2867  0.1396  0.3666
  102OSM   H13A10282   0.552   1.844  10.902  1.8781  0.1423  1.4173
  102OSM   H13B10283   0.589   1.683  10.847 -0.6764  2.6394 -2.3250
  102OSM   H13C10284   0.571   1.716  11.022 -1.1905  0.3560  0.9489
  102OSM    C1210285   0.393   1.551  10.890  0.3663  0.4877  0.1374
  102OSM   H12A10286   0.291   1.515  10.899  0.3695 -0.6527 -3.1043
  102OSM   H12B10287   0.455   1.516  10.972 -1.4164  1.6065  2.0571
  102OSM    C1110288   0.449   1.483  10.761 -0.3376  0.6438  0.2452
  102OSM   H11A10289   0.407   1.528  10.669  0.7627 -1.8225 -1.5674
  102OSM   H11B10290   0.411   1.380  10.746 -1.0173  0.8823  0.3109
  102OSM      P10291   0.683   1.382  10.833 -0.2564  0.3909 -0.3929
  102OSM    O1310292   0.825   1.425  10.818  0.4590  0.4181 -0.6555
  102OSM    O1410293   0.624   1.364  10.969 -0.1820  0.3928  0.2573
  102OSM    O1110294   0.655   1.249  10.749  0.0804  0.6330 -0.4170
  102OSM    O1210295   0.594   1.485  10.760 -0.0258 -0.1192 -0.5880
  102OSM    C1S10296   0.631   1.240  10.603 -0.0991  0.2701  0.2306
  102OSM    H1S10297   0.547   1.311  10.589  0.5983  1.0428 -0.1379
  102OSM    H1T10298   0.597   1.138  10.575  0.7860 -0.0744  0.3780
  102OSM     NF10299   0.706   1.282  10.373  0.1343 -0.5698 -0.5301
  102OSM    HNF10300   0.721   1.196  10.325  4.2490 -1.6683  2.1677
  102OSM    C2S10301   0.754   1.262  10.511 -0.2211  0.9534  0.3012
  102OSM    H2S10302   0.808   1.355  10.539  0.9123  0.2725  0.3953
  102OSM    C3S10303   0.838   1.134  10.532 -0.1471 -0.8835  0.7184
  102OSM    H3S10304   0.787   1.044  10.492  1.0101 -1.3420  0.2241
  102OSM     O310305   0.856   1.109  10.669  0.2972 -0.3841 -0.2278
  102OSM    HO310306   0.780   1.154  10.707 -0.6674  0.1402 -2.6090
  102OSM    C4S10307   0.965   1.145  10.450  0.2583 -0.5190 -0.3223
  102OSM    H4S10308   0.964   1.089  10.355 -1.1439 -0.6428 -0.2538
  102OSM    C5S10309   1.077   1.217  10.484 -0.1198  0.9288  0.2178
  102OSM    H5S10310   1.083   1.287  10.568 -1.9612  2.8343 -1.1291
  102OSM    C6S10311   1.205   1.235  10.409  0.3227 -0.3025  0.5270
  102OSM    H6S10312   1.273   1.149  10.429  0.0428 -0.7057 -0.2217
  102OSM    H6T10313   1.260   1.327  10.437  0.1771 -0.2529  0.6475
  102OSM    C7S10314   1.192   1.247  10.251 -0.1583 -0.4038  0.4333
  102OSM    H7S10315   1.134   1.165  10.203  1.5787 -0.6164 -1.4509
  102OSM    H7T10316   1.294   1.246  10.206 -0.5660  0.3959 -0.5668
  102OSM    C8S10317   1.136   1.386  10.209 -0.5094  0.1492 -0.3003
  102OSM    H8S10318   1.174   1.462  10.281  1.2012  0.6513 -1.6648
  102OSM    H8T10319   1.025   1.379  10.220 -0.4036 -0.2886  0.5814
  102OSM    C9S10320   1.178   1.425  10.064 -0.6736  0.6367  0.3089
  102OSM    H9S10321   1.280   1.469  10.061  0.0326 -0.9461 -2.0356
  102OSM    H9T10322   1.110   1.510  10.043 -3.8866 -0.5788  4.3079
  102OSM   C10S10323   1.153   1.317   9.960 -0.6618  0.2880 -0.3514
  102OSM   H10S10324   1.047   1.284   9.971 -1.0575  1.0165 -1.7430
  102OSM   H10T10325   1.202   1.220   9.984 -1.1959 -0.2383 -1.3009
  102OSM   C11S10326   1.201   1.347   9.822  0.0156  0.2784 -0.2485
  102OSM   H11S10327   1.184   1.255   9.762  0.2526 -1.1553  1.7964
  102OSM   H11T10328   1.309   1.370   9.816  0.2909 -0.4782  1.3171
  102OSM   C12S10329   1.109   1.453   9.755 -0.8008  0.2677 -0.3231
  102OSM   H12S10330   1.148   1.549   9.794  0.0783  0.3916 -1.4393
  102OSM   H12T10331   1.001   1.443   9.778 -0.9885 -1.8073 -1.7954
  102OSM   C13S10332   1.112   1.464   9.600  0.5057  0.1729  0.1289
  102OSM   H13S10333   1.060   1.379   9.550  1.1367  0.9386 -1.9212
  102OSM   H13T10334   1.217   1.473   9.565  0.3164  0.2884 -0.4204
  102OSM   C14S10335   1.048   1.598   9.553  0.2028 -0.0451 -0.0542
  102OSM   H14S10336   1.098   1.686   9.599 -0.3843 -0.7585  2.0738
  102OSM   H14T10337   0.949   1.613   9.602  0.9639 -0.6140  1.7460
  102OSM   C15S10338   1.049   1.619   9.401 -0.4118  0.4871  0.6578
  102OSM   H15S10339   1.157   1.617   9.373 -0.3355  0.8315  0.9278
  102OSM   H15T10340   1.004   1.714   9.366  0.2495  0.9660  1.0939
  102OSM   C16S10341   0.977   1.502   9.337 -0.0998  0.4141  0.7146
  102OSM   H16S10342   0.882   1.473   9.387  0.6561 -2.2900  0.7526
  102OSM   H16T10343   1.037   1.410   9.351 -0.2139  0.0637 -0.8886
  102OSM   C17S10344   0.954   1.536   9.182 -0.1996 -0.2031 -0.8293
  102OSM   H17S10345   1.045   1.586   9.142  0.8604 -1.8769 -0.5965
  102OSM   H17T10346   0.877   1.617   9.181  0.9933  1.0310  0.8919
  102OSM   C18S10347   0.906   1.419   9.098  0.1469 -0.9639 -0.0825
  102OSM   H18S10348   0.977   1.333   9.095  0.0793 -0.9911 -2.0354
  102OSM   H18T10349   0.882   1.463   8.999  2.1683 -1.8942 -1.0502
  102OSM   H18U10350   0.810   1.376   9.134  0.0944 -0.9618 -0.2207
  102OSM    C1F10351   0.674   1.397  10.326  0.3921 -0.0446 -0.0754
  102OSM     OF10352   0.654   1.498  10.396 -0.1449 -0.1425 -0.5235
  102OSM    C2F10353   0.661   1.403  10.174  0.2623  0.3270  0.6876
  102OSM    H2F10354   0.584   1.331  10.137 -0.4931  1.1742  0.5745
  102OSM    H2G10355   0.759   1.371  10.132  0.1623  0.1077  0.6195
  102OSM    C3F10356   0.630   1.554  10.130  0.7762 -0.6156 -0.1879
  102OSM    H3F10357   0.695   1.621  10.190 -2.3984  2.1492  0.4816
  102OSM    H3G10358   0.522   1.581  10.139  0.5882 -1.2809 -0.4054
  102OSM    C4F10359   0.666   1.565   9.987  0.2928  0.0713 -0.0657
  102OSM    H4F10360   0.774   1.540   9.975  0.5726  0.9757  0.4797
  102OSM    H4G10361   0.657   1.672   9.959 -1.1990 -0.2519 -0.9366
  102OSM    C5F10362   0.563   1.504   9.892  0.0003 -0.1484  0.6660
  102OSM    H5F10363   0.470   1.563   9.908 -0.4689 -0.8969  0.7148
  102OSM    H5G10364   0.546   1.398   9.921 -0.4921 -0.3611 -0.3319
  102OSM    C6F10365   0.616   1.519   9.748  0.6286 -0.5781  0.4545
  102OSM    H6F10366   0.722   1.487   9.736  1.1015  1.5071 -1.6764
  102OSM    H6G10367   0.619   1.629   9.730 -2.6100 -0.3832  0.4537
  102OSM    C7F10368   0.530   1.443   9.649  0.8934  0.7105  0.5307
  102OSM    H7F10369   0.421   1.459   9.663  0.7506 -0.8741  1.5502
  102OSM    H7G10370   0.548   1.335   9.672 -0.2167  0.5902  0.8601
  102OSM    C8F10371   0.574   1.470   9.509  0.0950  0.4431  0.0273
  102OSM    H8F10372   0.677   1.431   9.496 -0.4764 -0.8879 -0.7600
  102OSM    H8G10373   0.567   1.581   9.498 -1.1308  0.2437 -1.5847
  102OSM    C9F10374   0.491   1.399   9.403  0.1655 -1.0081 -0.0801
  102OSM    H9F10375   0.455   1.301   9.437 -2.3519  0.9700  3.7338
  102OSM   C10F10376   0.453   1.450   9.286 -0.2890 -0.4840 -0.4584
  102OSM   H10F10377   0.387   1.390   9.221  0.9172 -1.2318 -1.0386
  102OSM   C11F10378   0.495   1.580   9.231 -0.2962  0.5879  0.5445
  102OSM   H11F10379   0.562   1.634   9.301  0.1773 -0.2480  0.7464
  102OSM   H11G10380   0.400   1.636   9.212 -1.8377 -2.8042 -3.1229
  102OSM   C12F10381   0.576   1.549   9.109  0.6255 -0.0047  0.2817
  102OSM   H12F10382   0.642   1.461   9.124 -2.1615 -2.4305 -0.7365
  102OSM   H12G10383   0.649   1.633   9.102  0.2685  0.2988  0.2154
  102OSM   C13F10384   0.503   1.534   8.975  0.0802 -0.5307 -0.4391
  102OSM   H13F10385   0.444   1.625   8.951  1.8291  0.8779  0.4235
  102OSM   H13G10386   0.430   1.451   8.986 -0.4356  0.1678  1.8988
  102OSM   C14F10387   0.598   1.517   8.857 -0.0964  0.2098 -0.3599
  102OSM   H14F10388   0.541   1.498   8.764  0.4411  1.2931 -0.9319
  102OSM   H14G10389   0.656   1.424   8.876  0.7356  0.4049 -1.7866
  102OSM   C15F10390   0.681   1.645   8.833 -0.5912  1.0005 -0.6058
  102OSM   H15F10391   0.751   1.643   8.919 -0.3456 -0.5076 -0.8296
  102OSM   H15G10392   0.617   1.736   8.840 -1.1540  0.9025 -3.2435
  102OSM   C16F10393   0.755   1.640   8.696 -0.0134  0.2437 -0.4147
  102OSM   H16F10394   0.811   1.544   8.701 -1.3402 -0.5206  1.1017
  102OSM   H16G10395   0.833   1.718   8.700 -1.7562  2.0406  0.2301
  102OSM   C17F10396   0.671   1.665   8.572  1.0447  0.6297 -0.2470
  102OSM   H17F10397   0.638   1.770   8.562  0.4012  1.1541  4.6780
  102OSM   H17G10398   0.575   1.610   8.586  2.1955 -1.5683 -0.4571
  102OSM   C18F10399   0.733   1.603   8.442  0.7682 -1.0974 -0.1229
  102OSM   H18F10400   0.682   1.645   8.353 -0.6962 -2.4102  0.0613
  102OSM   H18G10401   0.743   1.493   8.444  0.5079 -1.1181  0.2701
  102OSM   H18H10402   0.836   1.641   8.429  1.0498 -1.6424  0.4479
  103OSM      N10403   1.818   5.307  11.110 -0.0730  0.5303  0.0524
  103OSM    C1510404   1.778   5.415  11.013 -0.4627 -0.3756 -0.8949
  103OSM   H15A10405   1.783   5.517  11.048  0.1014 -0.9610  0.8544
  103OSM   H15B10406   1.674   5.407  10.989 -0.4360  2.0277 -2.1402
  103OSM   H15C10407   1.826   5.415  10.916  0.5114 -1.9770 -0.4552
  103OSM    C1410408   1.743   5.326  11.238 -0.2367 -0.5484  0.4571
  103OSM   H14A10409   1.780   5.261  11.316 -1.2077 -1.9213 -0.1853
  103OSM   H14B10410   1.638   5.305  11.223 -0.3563  1.3467 -2.3515
  103OSM   H14C10411   1.760   5.428  11.270  1.0828  0.2438 -2.4152
  103OSM    C1310412   1.781   5.171  11.056  0.8177 -0.2527 -0.4103
  103OSM   H13A10413   1.851   5.151  10.976  1.0927  2.3202 -0.8893
  103OSM   H13B10414   1.681   5.179  11.017  0.7442  0.6926 -0.0530
  103OSM   H13C10415   1.785   5.090  11.127  4.1002 -0.6205 -0.8345
  103OSM    C1210416   1.964   5.312  11.132  0.5873  0.4985  0.1793
  103OSM   H12A10417   1.993   5.253  11.217  2.2797  1.1734  0.1185
  103OSM   H12B10418   1.983   5.409  11.174 -1.8424 -0.8388  5.0501
  103OSM    C1110419   2.054   5.272  11.014 -0.3186  0.5205 -0.0045
  103OSM   H11A10420   2.153   5.314  11.041 -0.8282  1.7160  0.0344
  103OSM   H11B10421   2.032   5.316  10.914 -2.4097  0.3682  0.3445
  103OSM      P10422   2.180   5.043  10.989 -0.3238  0.1194 -0.0803
  103OSM    O1310423   2.292   5.116  11.044  0.0529 -0.1100 -0.1712
  103OSM    O1410424   2.155   4.914  11.054 -0.2401 -1.0019  0.0019
  103OSM    O1110425   2.208   5.017  10.836 -0.7566  0.2539  0.0472
  103OSM    O1210426   2.045   5.131  10.982  0.1436  0.8321 -0.0993
  103OSM    C1S10427   2.122   5.069  10.737  0.6802 -0.3191  0.3943
  103OSM    H1S10428   2.109   5.179  10.742 -0.5597 -0.4251 -0.2651
  103OSM    H1T10429   2.019   5.028  10.748  0.8007 -0.3990  1.3776
  103OSM     NF10430   2.104   5.109  10.496 -0.1292 -0.8860  0.0179
  103OSM    HNF10431   2.022   5.059  10.468  0.1648 -0.4937 -1.5918
  103OSM    C2S10432   2.166   5.029  10.600 -0.2331  0.2722 -0.0167
  103OSM    H2S10433   2.273   5.056  10.588  0.7645 -2.7751  1.0388
  103OSM    C3S10434   2.152   4.872  10.587 -0.6136  0.5376  0.1320
  103OSM    H3S10435   2.041   4.863  10.588 -0.5389 -0.9637  2.4334
  103OSM     O310436   2.196   4.795  10.699  0.1668  0.2230 -0.3609
  103OSM    HO310437   2.226   4.863  10.761  0.3473  0.8027 -1.0717
  103OSM    C4S10438   2.217   4.823  10.448 -0.6178  0.0427 -0.1190
  103OSM    H4S10439   2.143   4.830  10.367 -3.1298  0.0676  2.0440
  103OSM    C5S10440   2.339   4.775  10.419  0.4218  0.1430  0.0314
  103OSM    H5S10441   2.416   4.772  10.497 -1.2952  0.6690  1.8312
  103OSM    C6S10442   2.388   4.730  10.284  0.1210  0.8955  0.0594
  103OSM    H6S10443   2.449   4.638  10.292 -2.5078 -0.8464  1.8698
  103OSM    H6T10444   2.460   4.809  10.254  1.3542 -0.1152  0.2400
  103OSM    C7S10445   2.292   4.705  10.166 -0.9257  0.7896 -0.5990
  103OSM    H7S10446   2.225   4.793  10.164 -0.6397  1.1322 -5.0415
  103OSM    H7T10447   2.223   4.621  10.186 -2.6283  2.5439  1.2773
  103OSM    C8S10448   2.367   4.689  10.029  0.2759  0.3611 -0.5035
  103OSM    H8S10449   2.417   4.590  10.033  1.8113  1.1194 -0.1128
  103OSM    H8T10450   2.450   4.764  10.026 -0.6765  1.4406 -0.4018
  103OSM    C9S10451   2.270   4.702   9.913 -0.3020 -0.1301 -0.3051
  103OSM    H9S10452   2.209   4.795   9.913  0.1375  0.2367 -2.7111
  103OSM    H9T10453   2.200   4.617   9.928  0.6986 -1.0075 -0.4822
  103OSM   C10S10454   2.346   4.697   9.776  0.4060  0.5719 -0.0213
  103OSM   H10S10455   2.418   4.614   9.763 -2.2145 -1.9093  0.4056
  103OSM   H10T10456   2.398   4.796   9.776  0.3896  0.5837 -0.3473
  103OSM   C11S10457   2.244   4.704   9.664  0.4455 -0.2216  0.4342
  103OSM   H11S10458   2.178   4.793   9.655  1.7562  0.5837 -2.4525
  103OSM   H11T10459   2.170   4.622   9.656  1.8493 -1.3953 -1.6237
  103OSM   C12S10460   2.312   4.712   9.533 -0.5257  0.2156 -0.8117
  103OSM   H12S10461   2.382   4.627   9.518 -0.6059 -0.5717  2.6292
  103OSM   H12T10462   2.360   4.813   9.527 -3.1978  1.6449  0.3110
  103OSM   C13S10463   2.214   4.696   9.424  0.3577  0.0876  0.6574
  103OSM   H13S10464   2.135   4.775   9.418  0.7925  0.4371 -1.0500
  103OSM   H13T10465   2.153   4.604   9.436 -0.2721  0.1868 -1.3787
  103OSM   C14S10466   2.283   4.684   9.283  0.2922  0.0577  0.0251
  103OSM   H14S10467   2.209   4.645   9.210  0.3370  1.3800 -0.7404
  103OSM   H14T10468   2.363   4.607   9.287 -0.6461 -0.9521  0.0034
  103OSM   C15S10469   2.332   4.821   9.241  0.0114 -0.3650 -0.3113
  103OSM   H15S10470   2.427   4.850   9.291 -1.0960 -1.1846  2.4890
  103OSM   H15T10471   2.258   4.901   9.262 -0.1036 -0.5117 -0.1514
  103OSM   C16S10472   2.352   4.823   9.090  0.0013  0.0493  0.0766
  103OSM   H16S10473   2.382   4.927   9.067 -1.5885  0.8284  1.3163
  103OSM   H16T10474   2.254   4.810   9.039  0.5164 -0.2191 -0.8720
  103OSM   C17S10475   2.452   4.710   9.051  0.3232  0.1257  0.1611
  103OSM   H17S10476   2.408   4.610   9.031  0.1109 -0.0418  1.4382
  103OSM   H17T10477   2.519   4.700   9.139  0.8611 -0.0535 -0.2584
  103OSM   C18S10478   2.532   4.745   8.930  0.6983 -0.4142  0.2719
  103OSM   H18S10479   2.612   4.668   8.926  2.1976  1.0129  1.4019
  103OSM   H18T10480   2.580   4.844   8.940  0.3008 -0.3407  1.5590
  103OSM   H18U10481   2.471   4.760   8.838  1.5254  3.0020  0.1588
  103OSM    C1F10482   2.117   5.243  10.484  0.0144 -0.5114 -0.0423
  103OSM     OF10483   2.189   5.302  10.562  0.0546 -0.0349 -0.1337
  103OSM    C2F10484   2.028   5.314  10.386 -0.7494  0.5926  1.0337
  103OSM    H2F10485   1.955   5.376  10.442 -0.0535  1.4494  1.0064
  103OSM    H2G10486   1.963   5.250  10.322 -1.2618  0.9156  1.2223
  103OSM    C3F10487   2.104   5.404  10.287 -0.1657  0.0637  0.0557
  103OSM    H3F10488   2.168   5.473  10.347 -0.4934 -1.0502  1.7575
  103OSM    H3G10489   2.030   5.462  10.229 -0.3772 -0.0765  0.1837
  103OSM    C4F10490   2.178   5.315  10.183 -0.3090 -0.0516 -0.1678
  103OSM    H4F10491   2.105   5.241  10.143 -1.9829  0.9715  0.8630
  103OSM    H4G10492   2.259   5.263  10.239  0.0453 -1.3495 -1.8018
  103OSM    C5F10493   2.253   5.405  10.078  0.7422  0.3521 -0.0485
  103OSM    H5F10494   2.341   5.359  10.030  0.4545 -1.7839  1.3282
  103OSM    H5G10495   2.279   5.502  10.126 -1.1626  0.1224  1.6186
  103OSM    C6F10496   2.156   5.432   9.959  0.5196 -0.0839 -0.7731
  103OSM    H6F10497   2.055   5.456   9.997  0.6717 -1.7020  0.8176
  103OSM    H6G10498   2.137   5.335   9.907  0.1350  0.0759 -0.9283
  103OSM    C7F10499   2.215   5.540   9.872 -0.0597 -0.1728 -0.0807
  103OSM    H7F10500   2.322   5.518   9.850 -0.0106  0.2642 -0.3031
  103OSM    H7G10501   2.208   5.635   9.930 -1.8022  0.6517 -1.5403
  103OSM    C8F10502   2.142   5.561   9.735 -0.3518  0.6588  0.3136
  103OSM    H8F10503   2.044   5.605   9.762 -0.8187 -0.5019  0.5410
  103OSM    H8G10504   2.137   5.473   9.667 -1.2268  1.6347 -0.9389
  103OSM    C9F10505   2.212   5.679   9.658 -0.5456  0.3849 -0.4249
  103OSM    H9F10506   2.208   5.778   9.706  2.1902  0.2909  0.2036
  103OSM   C10F10507   2.293   5.679   9.549  0.0875 -0.3217 -0.1878
  103OSM   H10F10508   2.340   5.775   9.526  1.7181 -1.1473 -0.4472
  103OSM   C11F10509   2.329   5.560   9.455  0.0111 -0.2205 -0.8818
  103OSM   H11F10510   2.307   5.464   9.506 -0.1182 -1.0979 -2.5351
  103OSM   H11G10511   2.433   5.558   9.416  0.3757  0.1417  0.0338
  103OSM   C12F10512   2.251   5.558   9.322 -0.0816  0.2625  0.7676
  103OSM   H12F10513   2.146   5.592   9.332 -0.0588  0.4793  0.3077
  103OSM   H12G10514   2.242   5.448   9.310 -2.5050  0.5197 -0.4548
  103OSM   C13F10515   2.313   5.626   9.202  0.0884  0.1058 -0.4477
  103OSM   H13F10516   2.318   5.737   9.204  2.6463  0.0790 -1.2926
  103OSM   H13G10517   2.419   5.599   9.185  0.3683  1.1747 -0.4721
  103OSM   C14F10518   2.232   5.588   9.080 -0.5145  0.3725  0.7680
  103OSM   H14F10519   2.123   5.603   9.089 -0.6959 -0.6545  0.2925
  103OSM   H14G10520   2.244   5.479   9.068  1.7585  0.1170  3.9891
  103OSM   C15F10521   2.284   5.662   8.947 -0.4457 -0.0235 -0.1256
  103OSM   H15F10522   2.395   5.653   8.936 -0.5851 -0.5113 -1.2437
  103OSM   H15G10523   2.261   5.771   8.951 -1.7097 -0.3048  0.8595
  103OSM   C16F10524   2.226   5.604   8.822 -0.0138  0.5075  1.1143
  103OSM   H16F10525   2.130   5.657   8.810 -0.9288 -0.8355  2.1566
  103OSM   H16G10526   2.201   5.498   8.843 -1.4341  0.8280  1.1149
  103OSM   C17F10527   2.307   5.625   8.693 -0.4102  0.2344  0.2565
  103OSM   H17F10528   2.253   5.577   8.608 -0.0283  0.2680 -0.0087
  103OSM   H17G10529   2.405   5.575   8.699 -0.4598  0.1118  0.0657
  103OSM   C18F10530   2.337   5.768   8.646  0.1368  0.2434 -0.5593
  103OSM   H18F10531   2.245   5.806   8.596  0.8863  0.1318 -2.0964
  103OSM   H18G10532   2.418   5.773   8.571  0.8983  1.2365  0.2991
  103OSM   H18H10533   2.367   5.833   8.731  2.7122 -2.2505  0.5976
  104OSM      N10534   6.713   3.586  10.900  0.1146 -0.1099  0.9109
  104OSM    C1510535   6.699   3.704  10.811 -0.6193  0.4986 -0.5443
  104OSM   H15A10536   6.718   3.679  10.708 -2.0425  0.1978 -0.7507
  104OSM   H15B10537   6.765   3.782  10.844  0.8443 -0.6863 -0.5353
  104OSM   H15C10538   6.598   3.741  10.810 -0.7358  0.1760 -0.9550
  104OSM    C1410539   6.860   3.552  10.913  0.0413 -0.5492  0.1488
  104OSM   H14A10540   6.890   3.500  10.822 -1.8020  2.7241 -2.5604
  104OSM   H14B10541   6.880   3.485  10.995  0.9635 -0.0015  0.3813
  104OSM   H14C10542   6.923   3.637  10.936 -0.7329  0.3089 -0.8200
  104OSM    C1310543   6.662   3.636  11.032 -0.4243 -0.3421  0.6897
  104OSM   H13A10544   6.674   3.568  11.115 -1.5794  0.9651  1.9773
  104OSM   H13B10545   6.559   3.666  11.016 -0.0229  2.3637  2.6035
  104OSM   H13C10546   6.719   3.724  11.056  0.2030 -0.6876  0.4966
  104OSM    C1210547   6.633   3.475  10.837  0.5889  0.0723 -0.3713
  104OSM   H12A10548   6.531   3.507  10.826  1.3944  2.5909 -1.2463
  104OSM   H12B10549   6.633   3.394  10.909  1.1523 -0.4905 -0.9895
  104OSM    C1110550   6.694   3.414  10.711 -0.6896 -0.0951  0.3519
  104OSM   H11A10551   6.720   3.489  10.633 -2.7077  0.3754  0.0678
  104OSM   H11B10552   6.622   3.345  10.661  1.0003 -0.2916 -1.9755
  104OSM      P10553   6.805   3.194  10.798  0.0174  0.0429  0.2545
  104OSM    O1310554   6.943   3.168  10.835  0.0591  0.5637  0.1899
  104OSM    O1410555   6.704   3.185  10.911 -0.5452  0.1336  0.1029
  104OSM    O1110556   6.762   3.093  10.680  0.3714  0.2712 -0.9319
  104OSM    O1210557   6.810   3.342  10.742 -0.1864  0.1365  0.1436
  104OSM    C1S10558   6.765   3.129  10.544 -0.4153 -0.8198  0.6384
  104OSM    H1S10559   6.868   3.106  10.510 -0.6551 -0.0116 -0.7006
  104OSM    H1T10560   6.740   3.233  10.516 -1.2232 -1.7462 -2.5027
  104OSM     NF10561   6.674   3.077  10.323  0.3020  0.1438  0.1860
  104OSM    HNF10562   6.596   3.129  10.292 -0.3794  1.1243  3.1969
  104OSM    C2S10563   6.670   3.035  10.460  0.1947 -0.0418  0.0091
  104OSM    H2S10564   6.718   2.936  10.476  0.6285  0.0053 -0.8868
  104OSM    C3S10565   6.527   3.030  10.526  0.0959  0.6945  0.0321
  104OSM    H3S10566   6.481   3.131  10.533  0.9047  1.6184 -4.7790
  104OSM     O310567   6.531   2.978  10.656 -1.0997 -0.1323 -0.0428
  104OSM    HO310568   6.624   2.967  10.676 -1.3227  0.9294  1.8458
  104OSM    C4S10569   6.428   2.947  10.448  1.1694  0.0346 -0.5881
  104OSM    H4S10570   6.355   3.014  10.400  1.1745  0.0986 -0.5078
  104OSM    C5S10571   6.404   2.812  10.439 -0.5079 -0.3120  0.4579
  104OSM    H5S10572   6.467   2.744  10.498  1.7861  0.1718 -1.2651
  104OSM    C6S10573   6.306   2.752  10.345  0.3474  0.0219 -0.0728
  104OSM    H6S10574   6.219   2.818  10.323 -0.9335 -1.6680 -0.2939
  104OSM    H6T10575   6.280   2.669  10.414  1.8334  0.6435  1.3160
  104OSM    C7S10576   6.365   2.706  10.209  0.1173 -0.0577 -0.2747
  104OSM    H7S10577   6.281   2.656  10.158  0.8777 -1.3881 -0.2692
  104OSM    H7T10578   6.442   2.629  10.233 -3.0013 -2.9261  1.4586
  104OSM    C8S10579   6.432   2.818  10.123  0.5797  0.9594 -0.2221
  104OSM    H8S10580   6.534   2.853  10.151  0.3508  2.0719 -0.7143
  104OSM    H8T10581   6.369   2.906  10.146  2.6579  1.8846  2.5073
  104OSM    C9S10582   6.409   2.777   9.970  0.2785  1.0486 -0.0720
  104OSM    H9S10583   6.299   2.762   9.963  0.2342  1.3573 -0.0857
  104OSM    H9T10584   6.453   2.678   9.948 -0.9306  0.4176  0.2358
  104OSM   C10S10585   6.461   2.876   9.872  1.0038  0.1356 -0.0279
  104OSM   H10S10586   6.570   2.885   9.889  1.0303 -0.2358  0.0134
  104OSM   H10T10587   6.418   2.976   9.893  2.2498  1.0998 -1.7819
  104OSM   C11S10588   6.446   2.832   9.724  0.8726  0.1466 -0.5346
  104OSM   H11S10589   6.337   2.830   9.700  0.2786  0.4546  1.8295
  104OSM   H11T10590   6.484   2.728   9.716 -0.7707 -0.3955 -1.9783
  104OSM   C12S10591   6.533   2.907   9.624  0.6516  0.9108 -0.1118
  104OSM   H12S10592   6.639   2.889   9.651 -0.6494 -1.4408  4.5460
  104OSM   H12T10593   6.502   3.013   9.617  1.2789  1.1503  0.6838
  104OSM   C13S10594   6.513   2.851   9.481  0.8366  0.0275 -0.0419
  104OSM   H13S10595   6.408   2.863   9.447  1.1783  1.5629 -0.6333
  104OSM   H13T10596   6.522   2.740   9.486  0.5522  0.0082  0.0207
  104OSM   C14S10597   6.613   2.889   9.376  0.2547 -0.1451  0.5867
  104OSM   H14S10598   6.714   2.848   9.395  0.3304  0.1853  0.9108
  104OSM   H14T10599   6.624   2.999   9.364  1.8082 -0.5217 -2.2032
  104OSM   C15S10600   6.562   2.838   9.236  0.6014  0.1360  0.2295
  104OSM   H15S10601   6.466   2.892   9.220 -0.6890 -1.5410  1.7620
  104OSM   H15T10602   6.533   2.731   9.245  0.7697  0.0793  0.0908
  104OSM   C16S10603   6.660   2.858   9.123  0.2979  0.4225 -0.2277
  104OSM   H16S10604   6.756   2.821   9.165  0.1956  0.9008  0.4561
  104OSM   H16T10605   6.672   2.962   9.085 -3.2423  0.9501 -0.2420
  104OSM   C17S10606   6.620   2.784   8.994  1.0710 -0.5938 -0.2552
  104OSM   H17S10607   6.516   2.814   8.969  0.2406 -0.7048  2.6596
  104OSM   H17T10608   6.631   2.676   9.022  1.4641 -0.4900  0.0125
  104OSM   C18S10609   6.715   2.813   8.876 -0.3260  0.3158 -0.1611
  104OSM   H18S10610   6.682   2.756   8.786 -0.6210 -1.7886  1.2182
  104OSM   H18T10611   6.818   2.783   8.905 -0.5286 -0.7812 -0.5143
  104OSM   H18U10612   6.721   2.921   8.854  0.2031  0.1168 -1.0681
  104OSM    C1F10613   6.777   3.052  10.249 -0.4706 -0.6360  0.3193
  104OSM     OF10614   6.866   2.979  10.284 -0.5640 -0.0329  0.0475
  104OSM    C2F10615   6.767   3.116  10.115  0.6108  0.2312 -0.0692
  104OSM    H2F10616   6.742   3.223  10.132  0.9265  0.1711  0.8305
  104OSM    H2G10617   6.676   3.080  10.062 -0.1728  0.6657  0.9301
  104OSM    C3F10618   6.888   3.078  10.025  0.4360 -0.0126 -0.1387
  104OSM    H3F10619   6.891   2.971   9.995 -1.3302  0.2217 -1.3410
  104OSM    H3G10620   6.980   3.092  10.085 -0.8357 -0.4796  2.0328
  104OSM    C4F10621   6.893   3.152   9.894  0.2674 -0.6816  0.2756
  104OSM    H4F10622   6.997   3.140   9.860  0.7762 -0.9966  1.8384
  104OSM    H4G10623   6.872   3.260   9.905  0.4362 -0.5595 -0.5966
  104OSM    C5F10624   6.814   3.082   9.779  0.0987 -0.2309  0.1748
  104OSM    H5F10625   6.710   3.072   9.819  0.1164  0.5277  0.4413
  104OSM    H5G10626   6.843   2.976   9.772  1.6037  0.1717  0.0937
  104OSM    C6F10627   6.824   3.152   9.639  0.0338  0.6157  0.4079
  104OSM    H6F10628   6.817   3.065   9.570 -1.3300 -0.1331  1.4417
  104OSM    H6G10629   6.924   3.200   9.632  2.6718 -4.1682  0.8149
  104OSM    C7F10630   6.708   3.250   9.626 -0.1250 -0.0636 -0.5733
  104OSM    H7F10631   6.740   3.331   9.694  2.1546 -0.0564 -1.5715
  104OSM    H7G10632   6.610   3.208   9.656  1.0049 -1.5698  1.2044
  104OSM    C8F10633   6.695   3.324   9.488  0.8321  0.3187 -0.1233
  104OSM    H8F10634   6.608   3.393   9.489  0.5619  0.0033 -0.9869
  104OSM    H8G10635   6.680   3.240   9.417 -2.4534  0.1012  0.6496
  104OSM    C9F10636   6.817   3.402   9.444  0.3331  0.0379  0.4108
  104OSM    H9F10637   6.870   3.459   9.522 -0.7126  0.0125  1.1682
  104OSM   C10F10638   6.861   3.405   9.315 -0.4102  0.4765  0.7259
  104OSM   H10F10639   6.940   3.475   9.287 -0.6605  0.1986 -0.7717
  104OSM   C11F10640   6.795   3.331   9.201 -0.3410  0.3333  0.7314
  104OSM   H11F10641   6.805   3.369   9.097  0.3126 -1.0860  0.2425
  104OSM   H11G10642   6.684   3.326   9.202 -0.4979  1.8013 -1.5863
  104OSM   C12F10643   6.854   3.186   9.177 -0.1202 -0.1218 -0.9119
  104OSM   H12F10644   6.791   3.124   9.111 -0.4600 -0.5205 -0.2243
  104OSM   H12G10645   6.851   3.139   9.278  0.2675 -0.3796 -1.0219
  104OSM   C13F10646   7.007   3.180   9.137 -0.2288 -0.2109 -0.0505
  104OSM   H13F10647   7.040   3.074   9.124 -2.1592 -0.7459 -0.9808
  104OSM   H13G10648   7.072   3.211   9.221  1.1202 -1.7851 -0.4364
  104OSM   C14F10649   7.036   3.257   9.004 -1.2084  0.0217 -0.5592
  104OSM   H14F10650   7.143   3.232   8.988 -0.4957 -1.1097  4.2762
  104OSM   H14G10651   7.019   3.366   9.004 -1.9107 -0.0784  0.1733
  104OSM   C15F10652   6.956   3.193   8.889 -0.0337  0.4725  0.4288
  104OSM   H15F10653   6.983   3.263   8.808 -1.4166 -0.1805 -0.6302
  104OSM   H15G10654   6.849   3.212   8.913  0.0358  1.6189 -0.1226
  104OSM   C16F10655   6.976   3.043   8.855  0.5172 -0.3362 -0.6480
  104OSM   H16F10656   6.904   3.031   8.771 -2.3727  1.6848  1.3913
  104OSM   H16G10657   6.931   2.989   8.941 -0.7788  1.1934 -0.3319
  104OSM   C17F10658   7.120   2.989   8.823  0.1598 -0.1257  0.1736
  104OSM   H17F10659   7.110   2.883   8.792  1.2184 -0.6241  1.4261
  104OSM   H17G10660   7.182   2.997   8.915 -0.4735  0.5046  0.5539
  104OSM   C18F10661   7.186   3.072   8.704 -0.7375 -0.5532  0.0368
  104OSM   H18F10662   7.281   3.023   8.676  0.3208 -0.0428  2.4875
  104OSM   H18G10663   7.205   3.176   8.739 -1.9538 -0.4672  0.5145
  104OSM   H18H10664   7.118   3.084   8.617 -0.3354  0.2717 -0.1670
  105OSM      N10665   6.406   2.677  11.033  1.0939 -0.4002 -0.2615
  105OSM    C1510666   6.507   2.658  11.142 -0.3001 -0.3860 -0.4124
  105OSM   H15A10667   6.589   2.726  11.120 -0.8567  0.5750  0.4031
  105OSM   H15B10668   6.547   2.559  11.161 -0.3176  0.1363  2.9495
  105OSM   H15C10669   6.461   2.688  11.235  1.0962 -1.9066  0.8347
  105OSM    C1410670   6.287   2.595  11.075  0.0369 -0.1628 -0.2865
  105OSM   H14A10671   6.311   2.491  11.056  0.2635  0.1099 -1.5599
  105OSM   H14B10672   6.205   2.627  11.014  0.7114 -1.1058 -1.7462
  105OSM   H14C10673   6.246   2.602  11.175 -3.6599 -1.3966 -1.5728
  105OSM    C1310674   6.349   2.817  11.028  0.1817  0.1714 -0.0632
  105OSM   H13A10675   6.275   2.827  10.949  0.7730  0.2589 -0.6126
  105OSM   H13B10676   6.428   2.889  11.016 -1.3052  1.6214 -1.7622
  105OSM   H13C10677   6.299   2.839  11.122 -1.7777 -1.6440 -0.5911
  105OSM    C1210678   6.455   2.628  10.896 -0.3324  0.6680 -0.2787
  105OSM   H12A10679   6.376   2.613  10.824  0.1926 -2.3159 -0.3635
  105OSM   H12B10680   6.494   2.528  10.900 -0.7651  0.5339  1.8089
  105OSM    C1110681   6.548   2.720  10.821 -0.4716  0.0708 -0.1873
  105OSM   H11A10682   6.526   2.826  10.848  1.2924  0.3733  0.2131
  105OSM   H11B10683   6.534   2.695  10.714  0.7346 -0.4530 -0.2429
  105OSM      P10684   6.761   2.557  10.828  0.1821  0.5790 -0.3330
  105OSM    O1310685   6.890   2.559  10.904  0.3125  0.3137  0.0805
  105OSM    O1410686   6.666   2.449  10.856  0.5314  0.2413 -0.0580
  105OSM    O1110687   6.784   2.569  10.675  0.5006 -0.1615 -0.0163
  105OSM    O1210688   6.683   2.694  10.858 -0.3402  0.5263  0.4526
  105OSM    C1S10689   6.852   2.681  10.616 -0.5582 -0.3310  0.1049
  105OSM    H1S10690   6.938   2.711  10.680 -1.3653  0.4872  0.8270
  105OSM    H1T10691   6.795   2.776  10.621 -0.7805 -0.5171  1.6656
  105OSM     NF10692   6.975   2.773  10.420  0.1664  0.1068 -0.4136
  105OSM    HNF10693   6.934   2.854  10.380 -0.0848  0.4939  0.6083
  105OSM    C2S10694   6.882   2.665  10.463 -0.4729 -0.3357  0.7474
  105OSM    H2S10695   6.937   2.569  10.461 -0.7425 -0.4925  0.8596
  105OSM    C3S10696   6.752   2.650  10.379  0.7372  0.3425  0.5336
  105OSM    H3S10697   6.683   2.735  10.399  0.3178  0.3028 -0.6810
  105OSM     O310698   6.678   2.533  10.415  0.3954  0.1907  0.3685
  105OSM    HO310699   6.711   2.502  10.499  0.2213  1.0999  0.7873
  105OSM    C4S10700   6.787   2.648  10.229  0.1050 -0.6159  0.3640
  105OSM    H4S10701   6.762   2.747  10.189 -1.0146 -1.2569 -0.5825
  105OSM    C5S10702   6.848   2.565  10.146  0.0828  0.9064 -0.0044
  105OSM    H5S10703   6.882   2.468  10.187  1.2025  1.2721 -0.0329
  105OSM    C6S10704   6.883   2.599  10.000 -0.8622 -0.4591 -0.1024
  105OSM    H6S10705   6.893   2.507   9.938  0.6508 -1.4497  1.5187
  105OSM    H6T10706   6.985   2.642   9.991 -1.4102  1.0923  0.6844
  105OSM    C7S10707   6.780   2.684   9.920 -0.4514 -0.0413 -0.3640
  105OSM    H7S10708   6.789   2.788   9.956  0.6101  0.0390 -0.8379
  105OSM    H7T10709   6.680   2.640   9.940 -0.0747 -2.2409 -2.7660
  105OSM    C8S10710   6.795   2.669   9.770  0.2216  0.1958 -0.5607
  105OSM    H8S10711   6.905   2.685   9.759  0.0845  0.5187 -1.5111
  105OSM    H8T10712   6.753   2.755   9.714  0.3721  0.9371  0.4406
  105OSM    C9S10713   6.746   2.534   9.718 -0.8130  0.7323 -0.0291
  105OSM    H9S10714   6.643   2.506   9.751  0.3708 -1.9563  1.7060
  105OSM    H9T10715   6.801   2.448   9.760  0.6222  1.3334 -0.6144
  105OSM   C10S10716   6.754   2.519   9.562  0.1123 -0.5822  0.7111
  105OSM   H10S10717   6.714   2.612   9.516 -0.8051 -0.4224  1.7891
  105OSM   H10T10718   6.687   2.436   9.530  0.9846 -1.7119  1.7142
  105OSM   C11S10719   6.894   2.477   9.505  0.0254  0.2689 -0.4380
  105OSM   H11S10720   6.929   2.395   9.570 -0.4346 -0.5327 -1.1833
  105OSM   H11T10721   6.962   2.560   9.533 -0.0640 -0.1815  1.1724
  105OSM   C12S10722   6.902   2.426   9.360  0.7966 -0.5933 -0.1940
  105OSM   H12S10723   6.826   2.345   9.354 -0.1088  0.0704  1.6789
  105OSM   H12T10724   7.000   2.379   9.336  0.6203 -0.0775 -2.0809
  105OSM   C13S10725   6.879   2.539   9.258  0.0195 -0.1301  0.0817
  105OSM   H13S10726   6.940   2.624   9.294  0.8954 -1.5663  2.1997
  105OSM   H13T10727   6.778   2.585   9.259  0.9992  2.2896  3.1011
  105OSM   C14S10728   6.920   2.497   9.116 -0.0753  0.4614  1.0547
  105OSM   H14S10729   7.031   2.487   9.127 -0.2801 -1.8171  1.6876
  105OSM   H14T10730   6.899   2.580   9.045  0.6098 -0.6818 -0.5677
  105OSM   C15S10731   6.870   2.363   9.063  0.5586 -0.0203  0.9656
  105OSM   H15S10732   6.759   2.361   9.053  0.4880  1.0390  1.4296
  105OSM   H15T10733   6.880   2.277   9.132 -0.6776 -0.5846  0.4869
  105OSM   C16S10734   6.934   2.324   8.930  0.4760  0.1245  0.7608
  105OSM   H16S10735   6.900   2.223   8.899 -0.1862  0.1850  1.2668
  105OSM   H16T10736   7.045   2.328   8.932  0.4929  0.0329  0.1797
  105OSM   C17S10737   6.893   2.423   8.819 -0.4368  0.1763 -0.2741
  105OSM   H17S10738   6.915   2.530   8.841 -0.9036  0.2687 -0.2420
  105OSM   H17T10739   6.783   2.431   8.807 -0.3795  1.7674  0.0214
  105OSM   C18S10740   6.938   2.382   8.674  0.1160  0.0626  0.0269
  105OSM   H18S10741   6.886   2.438   8.594 -0.9681 -2.6317 -1.2405
  105OSM   H18T10742   6.911   2.278   8.648 -0.3984  0.0060  0.7682
  105OSM   H18U10743   7.047   2.405   8.673 -0.0204  0.8563  1.0360
  105OSM    C1F10744   7.100   2.779  10.445  0.1994  0.4061 -0.2044
  105OSM     OF10745   7.147   2.686  10.512  0.1609  0.2800  0.5903
  105OSM    C2F10746   7.183   2.894  10.397 -0.3216 -0.2297  0.4522
  105OSM    H2F10747   7.243   2.929  10.484 -3.8095 -2.0026  3.8568
  105OSM    H2G10748   7.112   2.977  10.376 -0.4860 -0.6371 -0.6841
  105OSM    C3F10749   7.272   2.875  10.273 -0.4814  0.7389  0.7025
  105OSM    H3F10750   7.338   2.786  10.279 -1.4932 -0.0461  0.4508
  105OSM    H3G10751   7.349   2.954  10.256  0.7919 -0.3773  1.0772
  105OSM    C4F10752   7.187   2.852  10.150  0.2490  0.5866 -0.0756
  105OSM    H4F10753   7.129   2.946  10.138  1.1064  0.9781 -1.3450
  105OSM    H4G10754   7.122   2.763  10.165  0.3634  0.5634  0.2953
  105OSM    C5F10755   7.267   2.826  10.023 -0.5832  0.7736 -0.4086
  105OSM    H5F10756   7.305   2.722  10.033  3.2007  2.1049  0.4802
  105OSM    H5G10757   7.347   2.903  10.021 -0.7005  0.9108  0.0825
  105OSM    C6F10758   7.197   2.835   9.885 -0.2422  0.5167  0.8481
  105OSM    H6F10759   7.159   2.939   9.871  0.7637  0.8375  0.4206
  105OSM    H6G10760   7.112   2.765   9.871  0.7302 -0.1144 -2.7463
  105OSM    C7F10761   7.276   2.781   9.760  0.1341 -0.3739  0.3133
  105OSM    H7F10762   7.312   2.680   9.788 -1.2525 -0.8796  0.3313
  105OSM    H7G10763   7.369   2.843   9.758 -1.6610  2.5115 -1.2684
  105OSM    C8F10764   7.198   2.790   9.629 -0.1084  0.2755 -0.4197
  105OSM    H8F10765   7.165   2.895   9.615 -2.0511  0.4826  3.9180
  105OSM    H8G10766   7.103   2.737   9.651  0.7479 -0.9021  0.5505
  105OSM    C9F10767   7.260   2.720   9.521  0.6234 -0.2144 -0.3124
  105OSM    H9F10768   7.294   2.622   9.555 -0.6561  0.1803  2.4186
  105OSM   C10F10769   7.268   2.756   9.393 -0.6707  0.1902 -0.1327
  105OSM   H10F10770   7.305   2.688   9.314  3.0053  0.1093  1.4753
  105OSM   C11F10771   7.218   2.877   9.322  0.1473 -0.1887 -0.6271
  105OSM   H11F10772   7.200   2.965   9.389 -0.2522  0.0247 -1.0047
  105OSM   H11G10773   7.114   2.869   9.285 -1.4584  1.7339  2.8742
  105OSM   C12F10774   7.307   2.925   9.212 -0.2645 -0.2871  0.8698
  105OSM   H12F10775   7.268   3.021   9.170  2.9421  0.8385  0.2137
  105OSM   H12G10776   7.313   2.853   9.128 -1.1896  2.0838 -1.3813
  105OSM   C13F10777   7.446   2.957   9.265 -0.2637 -0.0552 -0.1550
  105OSM   H13F10778   7.513   2.870   9.246 -0.6984 -0.7984  1.5561
  105OSM   H13G10779   7.440   2.965   9.376  0.3932  3.7960 -0.2555
  105OSM   C14F10780   7.502   3.081   9.189 -0.5080 -0.3991 -0.0408
  105OSM   H14F10781   7.420   3.154   9.171  0.4097  0.4325 -1.0117
  105OSM   H14G10782   7.531   3.044   9.088  0.6558 -0.6963  0.3826
  105OSM   C15F10783   7.627   3.156   9.252 -0.5208 -0.0732  0.7958
  105OSM   H15F10784   7.719   3.096   9.236 -1.0244 -0.6974  0.1869
  105OSM   H15G10785   7.606   3.175   9.360 -1.1105  2.2418  0.3346
  105OSM   C16F10786   7.650   3.291   9.186  0.6376  0.2837  0.2833
  105OSM   H16F10787   7.560   3.352   9.205 -0.7776 -1.2249 -1.2698
  105OSM   H16G10788   7.654   3.278   9.076  0.1770 -1.2267  0.4189
  105OSM   C17F10789   7.772   3.367   9.239 -0.2716 -0.2649  0.3719
  105OSM   H17F10790   7.861   3.307   9.212  0.0413  1.2812 -2.3796
  105OSM   H17G10791   7.776   3.358   9.349  0.8636 -0.7767  0.2965
  105OSM   C18F10792   7.792   3.507   9.181  0.3110  0.3475  0.4527
  105OSM   H18F10793   7.704   3.571   9.204  1.7062  2.1847  1.0060
  105OSM   H18G10794   7.810   3.505   9.072  0.8003 -2.1682  0.5302
  105OSM   H18H10795   7.879   3.554   9.233  0.8358 -1.7554  1.5759
  106OSM      N10796   5.542   2.124  11.019  0.7867  0.1323  0.3768
  106OSM    C1510797   5.530   2.264  11.075 -0.2976  0.8526 -0.0963
  106OSM   H15A10798   5.445   2.309  11.026  0.3949 -0.8639 -3.1249
  106OSM   H15B10799   5.620   2.317  11.050  0.9939  0.8733  3.8521
  106OSM   H15C10800   5.514   2.274  11.181  0.4420  1.7053 -0.0490
  106OSM    C1410801   5.653   2.043  11.076  0.1818  0.0563 -0.3353
  106OSM   H14A10802   5.747   2.097  11.066 -0.2546  0.5573 -1.9290
  106OSM   H14B10803   5.664   1.947  11.027 -0.8668  0.0684 -0.6084
  106OSM   H14C10804   5.623   2.024  11.178 -2.2456  1.5198 -0.7010
  106OSM    C1310805   5.413   2.053  11.065 -0.2663 -0.8036 -0.5832
  106OSM   H13A10806   5.324   2.109  11.039 -0.3731 -0.4769  0.4595
  106OSM   H13B10807   5.430   2.031  11.169 -1.8997 -0.5255 -0.2378
  106OSM   H13C10808   5.405   1.958  11.013 -2.3539 -1.4942  0.8466
  106OSM    C1210809   5.544   2.126  10.864  0.0915 -0.5338 -0.4061
  106OSM   H12A10810   5.455   2.166  10.818 -0.6085 -1.9046 -0.3083
  106OSM   H12B10811   5.539   2.022  10.835 -0.3690  0.0313 -2.4507
  106OSM    C1110812   5.662   2.195  10.791 -0.4184 -0.4447 -0.2673
  106OSM   H11A10813   5.640   2.297  10.829 -0.1544 -1.4594  2.8808
  106OSM   H11B10814   5.668   2.212  10.681  1.1268  0.0295 -0.1266
  106OSM      P10815   5.841   2.017  10.782 -0.2081  0.2671 -0.1357
  106OSM    O1310816   5.979   1.992  10.835  0.4538 -0.3187 -0.3482
  106OSM    O1410817   5.732   1.915  10.804  0.2528 -0.3643  0.5570
  106OSM    O1110818   5.858   2.043  10.628 -0.7723 -0.0020  0.7449
  106OSM    O1210819   5.797   2.159  10.835  0.2157 -1.1662 -0.7572
  106OSM    C1S10820   5.943   2.147  10.572 -0.3836 -0.2782 -0.4087
  106OSM    H1S10821   6.044   2.147  10.620 -0.2058  0.1823 -0.7683
  106OSM    H1T10822   5.913   2.249  10.604 -0.3322  0.0527 -1.3740
  106OSM     NF10823   6.022   2.237  10.354 -0.1793 -0.8496  0.3910
  106OSM    HNF10824   5.969   2.308  10.309  2.4394  0.0888 -1.4768
  106OSM    C2S10825   5.948   2.139  10.416  0.2483  0.0721 -0.1249
  106OSM    H2S10826   5.990   2.037  10.400 -0.1185  0.0440 -0.9202
  106OSM    C3S10827   5.808   2.134  10.359 -0.4361 -0.4656 -0.5570
  106OSM    H3S10828   5.752   2.223  10.395 -3.3072 -0.8731 -3.6037
  106OSM     O310829   5.730   2.023  10.414 -0.5599  0.4767  0.0882
  106OSM    HO310830   5.789   2.000  10.485 -1.3152 -0.7475  0.3353
  106OSM    C4S10831   5.792   2.134  10.208 -0.1181  0.4446  0.0772
  106OSM    H4S10832   5.746   2.222  10.160 -3.2879  0.8373  3.3652
  106OSM    C5S10833   5.826   2.023  10.138 -0.2146 -0.4108 -0.1484
  106OSM    H5S10834   5.864   1.938  10.196 -0.0151 -1.7319 -2.1117
  106OSM    C6S10835   5.803   2.010   9.984 -0.2340 -0.5240 -0.2277
  106OSM    H6S10836   5.702   1.967   9.963 -0.6281 -0.0038  0.5439
  106OSM    H6T10837   5.886   1.947   9.945  0.9850  1.0657 -0.2592
  106OSM    C7S10838   5.802   2.131   9.890 -0.0016  0.2168 -0.4584
  106OSM    H7S10839   5.894   2.190   9.912 -0.3139  0.9594 -1.1130
  106OSM    H7T10840   5.716   2.200   9.901  1.1416  1.6770 -0.3752
  106OSM    C8S10841   5.801   2.086   9.738 -0.2825  0.0056 -0.7344
  106OSM    H8S10842   5.695   2.089   9.703 -0.9590  3.0234  1.1765
  106OSM    H8T10843   5.835   1.981   9.734  0.5629  0.2662 -0.5355
  106OSM    C9S10844   5.902   2.158   9.651 -0.0939  0.2229 -0.2651
  106OSM    H9S10845   6.000   2.108   9.637 -0.0654  0.3452 -0.5041
  106OSM    H9T10846   5.930   2.258   9.691  0.9492  0.6505 -1.9509
  106OSM   C10S10847   5.845   2.183   9.511 -0.2583 -0.4921 -0.1945
  106OSM   H10S10848   5.735   2.193   9.521 -0.4917 -2.4582 -0.5575
  106OSM   H10T10849   5.855   2.087   9.456 -0.0832 -0.3285 -0.4491
  106OSM   C11S10850   5.906   2.296   9.430 -0.2400 -0.7971 -0.3920
  106OSM   H11S10851   6.017   2.291   9.432 -0.1263  0.5537 -1.3399
  106OSM   H11T10852   5.892   2.394   9.481  2.6919  0.4026 -1.6205
  106OSM   C12S10853   5.844   2.307   9.289 -0.0051 -0.2307 -0.3146
  106OSM   H12S10854   5.733   2.304   9.299 -0.2002  1.3666 -1.6357
  106OSM   H12T10855   5.880   2.223   9.226  1.5496  0.2502 -0.1051
  106OSM   C13S10856   5.875   2.432   9.197 -0.2266 -0.4326 -0.5457
  106OSM   H13S10857   5.986   2.441   9.192 -0.0786 -2.0410 -0.5780
  106OSM   H13T10858   5.845   2.521   9.258 -2.1436 -2.0525  1.0421
  106OSM   C14S10859   5.806   2.418   9.061 -0.3829 -0.9207 -0.0499
  106OSM   H14S10860   5.704   2.391   9.092 -0.8057 -0.7159 -1.1974
  106OSM   H14T10861   5.846   2.336   8.997  1.0511 -2.0071  2.0997
  106OSM   C15S10862   5.805   2.562   8.999  0.0262 -0.8315 -0.0069
  106OSM   H15S10863   5.908   2.602   8.986 -0.5256  0.8538  0.4792
  106OSM   H15T10864   5.748   2.631   9.066  3.3586 -0.5938  2.9209
  106OSM   C16S10865   5.736   2.570   8.861  0.1350 -0.2824 -0.2367
  106OSM   H16S10866   5.635   2.526   8.876  2.1762 -4.9452  1.8421
  106OSM   H16T10867   5.776   2.505   8.781  2.0147  0.1928  0.2774
  106OSM   C17S10868   5.746   2.718   8.796  0.1998  0.1971 -0.2398
  106OSM   H17S10869   5.849   2.740   8.760  1.2267  0.1229  2.4777
  106OSM   H17T10870   5.722   2.794   8.873  1.4274 -0.5649  0.9311
  106OSM   C18S10871   5.662   2.735   8.667 -0.4786  0.9269 -0.3703
  106OSM   H18S10872   5.701   2.673   8.583 -0.1460  1.8702 -0.9380
  106OSM   H18T10873   5.665   2.843   8.638 -0.7334  0.8509 -0.6843
  106OSM   H18U10874   5.555   2.711   8.685 -0.4642  2.5153  2.2242
  106OSM    C1F10875   6.155   2.263  10.384 -0.0067  0.5215  0.2940
  106OSM     OF10876   6.215   2.192  10.459 -0.3182  0.5011  0.0863
  106OSM    C2F10877   6.221   2.388  10.318  0.1777 -0.0636 -0.3432
  106OSM    H2F10878   6.248   2.453  10.404 -1.6415  0.2949 -0.0009
  106OSM    H2G10879   6.141   2.446  10.268  0.6221 -1.4295 -2.8299
  106OSM    C3F10880   6.328   2.341  10.220 -0.1294 -0.0928  0.5016
  106OSM    H3F10881   6.393   2.270  10.274  0.3338  0.0937  0.1927
  106OSM    H3G10882   6.387   2.421  10.171  2.8093 -3.1703 -1.3620
  106OSM    C4F10883   6.274   2.251  10.109 -0.5201  0.0890  0.1939
  106OSM    H4F10884   6.240   2.159  10.162 -0.5105  0.7858  1.4600
  106OSM    H4G10885   6.364   2.227  10.048 -1.2804 -2.1523 -0.1133
  106OSM    C5F10886   6.170   2.305  10.009  0.1490  0.4563 -0.2689
  106OSM    H5F10887   6.079   2.326  10.070  0.5719 -1.5633  1.1533
  106OSM    H5G10888   6.146   2.239   9.922  2.9311  2.7014 -2.9433
  106OSM    C6F10889   6.232   2.432   9.948  0.8191  0.7788 -0.1264
  106OSM    H6F10890   6.251   2.505  10.029  2.2169  0.2117  0.0786
  106OSM    H6G10891   6.153   2.491   9.896 -1.4675 -1.0027  1.1108
  106OSM    C7F10892   6.345   2.409   9.845 -0.4940  0.0872 -1.1671
  106OSM    H7F10893   6.436   2.356   9.881 -0.0467  1.1491 -0.6815
  106OSM    H7G10894   6.382   2.509   9.814 -0.1018  0.5713  0.7367
  106OSM    C8F10895   6.296   2.326   9.717 -0.1479  0.5988 -0.7207
  106OSM    H8F10896   6.260   2.231   9.761 -0.4660  0.7706 -0.6107
  106OSM    H8G10897   6.391   2.300   9.665  2.0630  0.2402  3.0794
  106OSM    C9F10898   6.200   2.387   9.619  0.5186 -0.2058  0.1299
  106OSM    H9F10899   6.092   2.379   9.638  0.2069 -1.6450 -1.8437
  106OSM   C10F10900   6.231   2.477   9.517 -1.0213  0.0990  0.3128
  106OSM   H10F10901   6.150   2.521   9.457  0.3105  3.0336  0.4988
  106OSM   C11F10902   6.370   2.519   9.481  0.3679 -0.6072  0.7083
  106OSM   H11F10903   6.452   2.504   9.555 -1.6005 -3.3227  2.5265
  106OSM   H11G10904   6.358   2.626   9.455 -0.0861 -1.0563 -1.0134
  106OSM   C12F10905   6.415   2.442   9.353  0.2463 -0.5670 -0.1797
  106OSM   H12F10906   6.401   2.333   9.368 -2.4495 -0.1760  0.5035
  106OSM   H12G10907   6.519   2.468   9.322 -0.3188  0.6228 -1.1562
  106OSM   C13F10908   6.338   2.468   9.222  0.1930  0.1836 -0.8550
  106OSM   H13F10909   6.313   2.574   9.203 -1.4573  0.2102  1.0904
  106OSM   H13G10910   6.240   2.431   9.260  1.0112 -2.1463 -0.8538
  106OSM   C14F10911   6.392   2.409   9.096 -0.1326 -0.1890  0.4713
  106OSM   H14F10912   6.343   2.312   9.072 -1.2475  0.5048 -0.1000
  106OSM   H14G10913   6.501   2.393   9.110  0.5223 -0.0460 -3.4218
  106OSM   C15F10914   6.373   2.502   8.981  0.2476 -0.8992  0.5678
  106OSM   H15F10915   6.419   2.600   9.005  2.3659 -1.7995  0.3424
  106OSM   H15G10916   6.263   2.514   8.969  0.3601  0.9998  1.1355
  106OSM   C16F10917   6.429   2.444   8.844 -0.0857  0.0710 -1.0499
  106OSM   H16F10918   6.373   2.350   8.826  1.3303 -1.3845  1.5640
  106OSM   H16G10919   6.538   2.428   8.863 -0.4876 -0.4198  1.1326
  106OSM   C17F10920   6.408   2.551   8.736  0.0948 -0.1992 -0.5588
  106OSM   H17F10921   6.434   2.646   8.787  0.3188 -1.2462  1.3873
  106OSM   H17G10922   6.299   2.542   8.717 -0.0099 -1.4714  0.4760
  106OSM   C18F10923   6.484   2.530   8.605 -0.4054  0.7047  0.4574
  106OSM   H18F10924   6.467   2.432   8.555 -0.6109  0.0905  1.6968
  106OSM   H18G10925   6.594   2.541   8.606 -0.2946 -0.3487  1.7476
  106OSM   H18H10926   6.433   2.600   8.535  2.2603 -0.1031 -2.5079
  107OSM      N10927   1.849   4.633  11.041  0.2514 -0.4004  0.6411
  107OSM    C1510928   1.972   4.542  11.028  1.0586 -0.8707 -0.1329
  107OSM   H15A10929   1.998   4.538  10.923 -1.6881  3.7745 -1.3016
  107OSM   H15B10930   1.941   4.451  11.076 -0.9781  0.1572  0.6307
  107OSM   H15C10931   2.050   4.590  11.085 -1.2532  2.5659  0.4480
  107OSM    C1410932   1.884   4.762  10.973  0.3465 -0.0626 -0.1160
  107OSM   H14A10933   1.898   4.740  10.868  1.4448  1.3666 -0.2983
  107OSM   H14B10934   1.963   4.821  11.018 -1.1212  1.7591  0.2167
  107OSM   H14C10935   1.800   4.831  10.970 -0.2220 -0.7684 -0.7862
  107OSM    C1310936   1.740   4.558  10.966 -0.2554  0.1878 -0.5745
  107OSM   H13A10937   1.661   4.624  10.936  0.4961  1.4850  0.2066
  107OSM   H13B10938   1.697   4.478  11.025  1.9412 -0.4883  0.2330
  107OSM   H13C10939   1.778   4.518  10.874  1.8235  0.3652  0.1477
  107OSM    C1210940   1.805   4.649  11.184  0.6209  0.3717 -0.5564
  107OSM   H12A10941   1.879   4.681  11.255  1.1198  0.2935 -1.0343
  107OSM   H12B10942   1.780   4.548  11.215  1.0655  0.0663 -1.1629
  107OSM    C1110943   1.675   4.734  11.214 -0.4506 -0.5776  0.0735
  107OSM   H11A10944   1.700   4.843  11.211 -3.0487  0.1285  1.3291
  107OSM   H11B10945   1.652   4.715  11.321 -2.1177  0.1893 -0.1281
  107OSM      P10946   1.455   4.600  11.170 -0.0230 -0.1558  0.1756
  107OSM    O1310947   1.523   4.494  11.252 -0.5374 -0.4040 -0.0413
  107OSM    O1410948   1.353   4.672  11.245 -0.1529 -0.6287  0.2108
  107OSM    O1110949   1.402   4.536  11.037 -0.2746 -0.2525 -0.3888
  107OSM    O1210950   1.565   4.706  11.129  0.5623 -0.1785  0.0098
  107OSM    C1S10951   1.354   4.625  10.935 -0.3469 -0.3810  0.0591
  107OSM    H1S10952   1.443   4.666  10.882 -1.3005 -0.0382 -1.3283
  107OSM    H1T10953   1.288   4.708  10.970 -0.5454 -0.0341 -1.0942
  107OSM     NF10954   1.239   4.623  10.717 -0.0911  0.1447 -0.2479
  107OSM    HNF10955   1.140   4.637  10.719 -0.2610 -0.9850  0.8301
  107OSM    C2S10956   1.285   4.539  10.820  0.8146 -0.2303 -0.2458
  107OSM    H2S10957   1.371   4.483  10.779 -0.9761 -1.0295 -3.2576
  107OSM    C3S10958   1.177   4.445  10.875  0.6368  0.1184 -0.6528
  107OSM    H3S10959   1.084   4.501  10.900  0.8285 -0.1108  0.6659
  107OSM     O310960   1.202   4.382  11.001 -0.5574 -0.0287 -0.3175
  107OSM    HO310961   1.292   4.409  11.018 -0.5306 -0.7820  0.7588
  107OSM    C4S10962   1.146   4.331  10.784 -0.3474 -0.6636  0.2995
  107OSM    H4S10963   1.240   4.301  10.735 -1.7767 -1.4166 -2.2038
  107OSM    C5S10964   1.032   4.272  10.747 -0.6917  0.4182  0.1053
  107OSM    H5S10965   0.939   4.322  10.779 -0.2511  0.8646  0.7232
  107OSM    C6S10966   1.025   4.151  10.649 -0.2585 -0.2577  0.4282
  107OSM    H6S10967   0.919   4.150  10.618 -0.3274  0.8887  0.5618
  107OSM    H6T10968   1.055   4.055  10.695 -2.4694 -1.4382 -0.4671
  107OSM    C7S10969   1.111   4.166  10.513 -0.0387  0.1354 -0.6192
  107OSM    H7S10970   1.218   4.182  10.540 -0.2430  1.5559 -0.5985
  107OSM    H7T10971   1.081   4.249  10.445 -0.7669  1.1517  0.8965
  107OSM    C8S10972   1.080   4.046  10.421 -0.9496 -0.3942 -0.2443
  107OSM    H8S10973   0.983   4.080  10.379 -1.2424 -0.8345  0.0722
  107OSM    H8T10974   1.068   3.945  10.465  0.4556 -1.2885 -1.7654
  107OSM    C9S10975   1.180   4.018  10.305  0.5825 -1.0371 -0.1539
  107OSM    H9S10976   1.276   3.981  10.349  1.7602  1.0097 -0.8671
  107OSM    H9T10977   1.202   4.112  10.250 -1.7980  0.5470  1.4309
  107OSM   C10S10978   1.132   3.906  10.203  0.6212  0.1045 -0.3940
  107OSM   H10S10979   1.027   3.924  10.172  0.8119  0.6868 -0.7140
  107OSM   H10T10980   1.131   3.814  10.266  1.9434  0.7676  0.6664
  107OSM   C11S10981   1.223   3.894  10.078  0.3372  0.0133 -0.3219
  107OSM   H11S10982   1.324   3.882  10.123 -0.4474 -0.1940  1.4764
  107OSM   H11T10983   1.223   3.991  10.025  4.2508  0.3798  0.0279
  107OSM   C12S10984   1.208   3.775   9.980 -0.5948 -0.4038 -0.3443
  107OSM   H12S10985   1.102   3.756   9.955 -0.5503  0.3648 -1.1487
  107OSM   H12T10986   1.251   3.679  10.018 -3.4562 -1.8213 -0.4065
  107OSM   C13S10987   1.284   3.822   9.854  0.3630  0.0366  0.5516
  107OSM   H13S10988   1.380   3.871   9.881 -1.2529  4.0853 -0.2867
  107OSM   H13T10989   1.214   3.893   9.803  0.9054 -0.6421 -1.2199
  107OSM   C14S10990   1.305   3.711   9.752 -0.5115 -0.0238  0.0705
  107OSM   H14S10991   1.227   3.631   9.758 -0.1394 -0.3213  1.2028
  107OSM   H14T10992   1.405   3.667   9.772 -0.9227 -1.5616 -1.0081
  107OSM   C15S10993   1.312   3.770   9.613  0.1248 -0.0042  0.2334
  107OSM   H15S10994   1.392   3.848   9.615  3.2016 -2.8575 -1.2172
  107OSM   H15T10995   1.214   3.815   9.588 -0.0762 -0.1345  0.7889
  107OSM   C16S10996   1.344   3.667   9.497  1.2878 -0.1335 -0.4793
  107OSM   H16S10997   1.273   3.582   9.495  0.8587  0.2423 -1.7480
  107OSM   H16T10998   1.442   3.619   9.516  0.5410 -1.5642 -0.0813
  107OSM   C17S10999   1.346   3.734   9.362 -0.1857  0.7261  0.0513
  107OSM   H17S11000   1.421   3.816   9.369 -0.9202  1.3674  0.6124
  107OSM   H17T11001   1.247   3.778   9.337  0.3251  1.7690 -0.1866
  107OSM   C18S11002   1.386   3.659   9.235  0.2373  0.8964 -0.7992
  107OSM   H18S11003   1.363   3.716   9.143 -2.2015 -0.1022 -0.8909
  107OSM   H18T11004   1.318   3.571   9.238  0.1554  0.9485 -1.1659
  107OSM   H18U11005   1.490   3.620   9.244 -0.7341 -1.5964  0.6274
  107OSM    C1F11006   1.319   4.688  10.631 -0.0183  0.0471  0.3871
  107OSM     OF11007   1.446   4.675  10.632 -0.0474 -0.1292 -0.2212
  107OSM    C2F11008   1.248   4.779  10.527  0.0512  0.1121 -0.5507
  107OSM    H2F11009   1.318   4.853  10.481 -0.6444  0.7394 -0.6294
  107OSM    H2G11010   1.168   4.836  10.579 -0.0515 -0.1373 -0.4330
  107OSM    C3F11011   1.180   4.691  10.412  0.1021  0.2481  0.3164
  107OSM    H3F11012   1.126   4.748  10.334 -2.1748 -2.1997 -0.0415
  107OSM    H3G11013   1.098   4.637  10.465  0.2800 -1.0997 -0.7289
  107OSM    C4F11014   1.272   4.591  10.341 -0.7687 -0.3924 -0.3060
  107OSM    H4F11015   1.311   4.505  10.399  0.4916  0.6410  0.4237
  107OSM    H4G11016   1.355   4.662  10.322  1.1812 -3.0016 -2.2442
  107OSM    C5F11017   1.208   4.544  10.213 -0.1626 -0.3001  0.6159
  107OSM    H5F11018   1.127   4.614  10.181  0.5899  0.8591  1.1659
  107OSM    H5G11019   1.159   4.445  10.225 -0.7758  0.0360  0.9541
  107OSM    C6F11020   1.299   4.537  10.088  0.1434  0.6877 -0.5291
  107OSM    H6F11021   1.399   4.501  10.119 -0.7354 -1.6350 -0.1880
  107OSM    H6G11022   1.312   4.642  10.056  0.7233  0.3398 -1.4480
  107OSM    C7F11023   1.240   4.447   9.989  0.2408 -0.6147  0.2126
  107OSM    H7F11024   1.207   4.355  10.041 -0.8105 -1.2462 -1.4683
  107OSM    H7G11025   1.315   4.406   9.918  2.4151 -0.7870  2.4714
  107OSM    C8F11026   1.125   4.502   9.905  0.1402 -0.3852 -0.1325
  107OSM    H8F11027   1.144   4.606   9.873 -2.0444 -0.3870 -1.6378
  107OSM    H8G11028   1.036   4.493   9.971 -1.4563 -2.1638 -2.3985
  107OSM    C9F11029   1.088   4.417   9.788 -0.5236 -0.3218 -0.4689
  107OSM    H9F11030   1.073   4.309   9.803 -0.9728 -0.9736 -4.4731
  107OSM   C10F11031   1.048   4.460   9.669  0.2226  0.6778  0.1421
  107OSM   H10F11032   1.028   4.390   9.587  0.6977  0.6301  0.0642
  107OSM   C11F11033   1.032   4.602   9.628 -0.0419 -0.8936 -0.2648
  107OSM   H11F11034   1.078   4.620   9.529 -1.3535  0.2045 -0.6993
  107OSM   H11G11035   1.068   4.666   9.711 -1.1845  1.2507 -1.3463
  107OSM   C12F11036   0.882   4.636   9.600 -0.7741  0.4787 -0.2398
  107OSM   H12F11037   0.818   4.618   9.689  0.4829 -0.2264  0.5368
  107OSM   H12G11038   0.842   4.574   9.517  0.3958 -0.4838 -0.1015
  107OSM   C13F11039   0.869   4.786   9.551 -0.6121  0.0689  0.3690
  107OSM   H13F11040   0.948   4.813   9.478  1.1394 -0.5527  1.9652
  107OSM   H13G11041   0.863   4.861   9.633  0.8180  0.7153 -0.0927
  107OSM   C14F11042   0.738   4.801   9.470 -0.0740 -1.3200  0.8061
  107OSM   H14F11043   0.653   4.757   9.528  0.4676 -1.3818  1.5765
  107OSM   H14G11044   0.746   4.743   9.376  3.4610  0.3782 -0.1112
  107OSM   C15F11045   0.710   4.950   9.430  1.0884 -0.6877 -0.3799
  107OSM   H15F11046   0.701   5.018   9.518 -0.4564 -1.6739  0.2610
  107OSM   H15G11047   0.618   4.957   9.368 -1.5481 -2.4072  3.0009
  107OSM   C16F11048   0.817   4.998   9.327 -0.9746  0.2932  0.5837
  107OSM   H16F11049   0.829   4.928   9.241 -2.4163 -0.6045  1.0850
  107OSM   H16G11050   0.914   5.012   9.379 -0.2050  0.9528 -0.9521
  107OSM   C17F11051   0.794   5.145   9.294  0.3465  0.4077  0.0458
  107OSM   H17F11052   0.811   5.205   9.386  0.7641  0.1564  0.1363
  107OSM   H17G11053   0.697   5.164   9.244 -0.5903 -1.1041  1.2052
  107OSM   C18F11054   0.908   5.195   9.197  0.3904  0.3574  0.3296
  107OSM   H18F11055   1.012   5.161   9.212 -0.0117 -1.4058 -0.5734
  107OSM   H18G11056   0.893   5.305   9.190  0.6873  0.4445  1.0118
  107OSM   H18H11057   0.889   5.150   9.097 -2.9471  3.0169 -0.4268
  108OSM      N11058   3.440   3.375  10.951  0.4455  0.5365  0.9419
  108OSM    C1511059   3.496   3.484  11.029  0.3753 -0.3025  0.2636
  108OSM   H15A11060   3.528   3.562  10.961 -0.7854 -1.3659 -1.5837
  108OSM   H15B11061   3.569   3.449  11.100 -0.5622 -0.3944  1.2199
  108OSM   H15C11062   3.416   3.535  11.081  0.1390 -0.6179  0.2077
  108OSM    C1411063   3.539   3.329  10.843  0.0347 -0.5739  0.3884
  108OSM   H14A11064   3.568   3.413  10.782 -1.6787 -2.6836 -3.7254
  108OSM   H14B11065   3.509   3.252  10.774  0.1889 -0.5517  0.2960
  108OSM   H14C11066   3.625   3.298  10.899  0.4698  1.8955  1.2080
  108OSM    C1311067   3.400   3.266  11.042  1.0002 -1.0369  0.1893
  108OSM   H13A11068   3.480   3.206  11.083  0.5946 -0.4893  1.8528
  108OSM   H13B11069   3.330   3.193  11.003 -0.1113 -0.4537  1.0547
  108OSM   H13C11070   3.345   3.310  11.123  0.4326  0.7112 -1.0764
  108OSM    C1211071   3.312   3.420  10.886 -0.7707 -0.2575 -0.1906
  108OSM   H12A11072   3.243   3.444  10.965  1.3945 -0.5013  1.8902
  108OSM   H12B11073   3.274   3.330  10.838  0.1147 -0.7515  0.0150
  108OSM    C1111074   3.305   3.528  10.777 -0.1897 -0.8006 -0.6217
  108OSM   H11A11075   3.195   3.535  10.761  0.0102  1.1529 -1.3875
  108OSM   H11B11076   3.346   3.498  10.678  0.5435 -0.7263 -0.3432
  108OSM      P11077   3.286   3.746  10.922 -0.3950  0.4535  0.4355
  108OSM    O1311078   3.210   3.667  11.023 -0.8666  0.1486 -0.4139
  108OSM    O1411079   3.382   3.835  10.988 -0.5826  0.2133 -0.1872
  108OSM    O1111080   3.182   3.825  10.826 -0.7380 -0.6225 -0.8108
  108OSM    O1211081   3.362   3.654  10.819 -0.3541 -0.2698  0.1321
  108OSM    C1S11082   3.224   3.930  10.748 -0.8698 -0.0147  0.6723
  108OSM    H1S11083   3.306   3.985  10.800  0.8594 -1.2351 -0.6558
  108OSM    H1T11084   3.129   3.985  10.734 -2.6443 -3.1245 -0.4193
  108OSM     NF11085   3.316   3.982  10.516 -0.2785 -0.2980  0.3616
  108OSM    HNF11086   3.254   4.023  10.449 -1.0540 -0.9868  0.6395
  108OSM    C2S11087   3.257   3.875  10.601 -0.2233 -0.2894  0.7476
  108OSM    H2S11088   3.342   3.804  10.615  0.6237  0.7749  1.2128
  108OSM    C3S11089   3.132   3.812  10.534  0.2557 -0.7858 -0.3704
  108OSM    H3S11090   3.063   3.893  10.502  0.0505 -0.1309  1.5966
  108OSM     O311091   3.046   3.737  10.622 -0.0739  0.3913 -0.5180
  108OSM    HO311092   3.079   3.757  10.710  1.5395  2.0100 -1.4197
  108OSM    C4S11093   3.176   3.727  10.418  0.0632  0.7179  0.2758
  108OSM    H4S11094   3.220   3.631  10.452  0.4415  2.2242  4.6847
  108OSM    C5S11095   3.153   3.763  10.291  0.4558 -0.9181 -0.4346
  108OSM    H5S11096   3.108   3.863  10.279  3.1262  0.4885  0.4515
  108OSM    C6S11097   3.190   3.684  10.173 -0.6516  0.0759  0.2980
  108OSM    H6S11098   3.243   3.588  10.190  2.5254  1.3075 -1.8590
  108OSM    H6T11099   3.266   3.750  10.127 -1.7631  0.7515 -0.6389
  108OSM    C7S11100   3.071   3.664  10.085 -0.3425 -0.6976  0.5698
  108OSM    H7S11101   3.004   3.751  10.100 -0.9427 -1.2546  1.1709
  108OSM    H7T11102   3.020   3.571  10.118  1.0622 -1.5217  0.4910
  108OSM    C8S11103   3.100   3.655   9.936 -0.0443 -1.0024 -0.0247
  108OSM    H8S11104   3.147   3.561   9.901 -0.5548 -0.5342 -2.0812
  108OSM    H8T11105   3.160   3.739   9.895  0.0273 -0.3845  1.3064
  108OSM    C9S11106   2.962   3.670   9.860  0.0266 -0.0263  0.8224
  108OSM    H9S11107   2.904   3.764   9.871 -1.1384 -0.7552  1.0625
  108OSM    H9T11108   2.891   3.586   9.877  1.2506 -1.6693 -1.5724
  108OSM   C10S11109   3.000   3.659   9.710  0.2850 -0.1653 -0.3091
  108OSM   H10S11110   3.072   3.577   9.689  3.5320  2.0727  1.2593
  108OSM   H10T11111   3.052   3.752   9.679  0.0249 -0.4591 -1.6796
  108OSM   C11S11112   2.876   3.649   9.620 -0.3552  0.0950 -0.4223
  108OSM   H11S11113   2.796   3.708   9.669 -1.3768  0.6446 -2.6163
  108OSM   H11T11114   2.854   3.542   9.639  1.1456 -0.1501  0.1191
  108OSM   C12S11115   2.893   3.673   9.466 -0.6407 -0.0216 -0.7808
  108OSM   H12S11116   2.988   3.624   9.436  1.6303  1.9906  2.4858
  108OSM   H12T11117   2.920   3.778   9.440  1.1771 -1.1692 -4.2790
  108OSM   C13S11118   2.778   3.623   9.381 -0.5317  0.1978 -0.3962
  108OSM   H13S11119   2.697   3.698   9.397  0.6872  1.1117  2.0930
  108OSM   H13T11120   2.746   3.520   9.408  0.2902  0.2020  0.6255
  108OSM   C14S11121   2.823   3.622   9.234  0.0458 -0.3713  0.1295
  108OSM   H14S11122   2.904   3.550   9.212 -0.3757 -1.7013  2.6238
  108OSM   H14T11123   2.871   3.721   9.216  0.0646 -0.1480  1.3031
  108OSM   C15S11124   2.713   3.606   9.129  0.1361 -0.0245  0.0677
  108OSM   H15S11125   2.616   3.619   9.181 -0.7217  0.7390 -1.6208
  108OSM   H15T11126   2.724   3.502   9.092  1.1055 -0.4323  1.4199
  108OSM   C16S11127   2.721   3.705   9.004 -0.5214 -0.5212 -0.0031
  108OSM   H16S11128   2.812   3.678   8.945  0.4176  1.3510  0.5064
  108OSM   H16T11129   2.736   3.811   9.036  0.6245 -1.5089  3.1158
  108OSM   C17S11130   2.615   3.677   8.893 -0.1426 -0.1491  0.4456
  108OSM   H17S11131   2.632   3.573   8.859 -0.4317 -0.7152  1.9584
  108OSM   H17T11132   2.645   3.740   8.807  1.7016 -0.6659  0.6716
  108OSM   C18S11133   2.462   3.688   8.926 -0.2536  0.0418 -0.2380
  108OSM   H18S11134   2.442   3.640   9.024  0.2198  0.3361  0.0037
  108OSM   H18T11135   2.402   3.632   8.850  0.4454 -0.5337 -0.3739
  108OSM   H18U11136   2.421   3.790   8.939 -3.5530 -0.8116 -2.6050
  108OSM    C1F11137   3.444   4.016  10.537  0.4571 -0.1360 -0.0345
  108OSM     OF11138   3.516   3.941  10.601  0.3235  0.5410  0.3455
  108OSM    C2F11139   3.487   4.146  10.494 -0.2243  0.3605  0.4254
  108OSM    H2F11140   3.565   4.179  10.566 -0.9519 -0.3637  1.5794
  108OSM    H2G11141   3.395   4.207  10.497  1.2478  2.7905 -1.0710
  108OSM    C3F11142   3.543   4.137  10.344 -0.6034 -0.1026  0.4529
  108OSM    H3F11143   3.630   4.067  10.348 -2.0959 -1.9944  2.4006
  108OSM    H3G11144   3.587   4.236  10.320 -3.1773  0.8009 -0.8563
  108OSM    C4F11145   3.459   4.089  10.222 -0.9765  1.1087 -0.3398
  108OSM    H4F11146   3.367   4.151  10.234 -1.8514 -0.3625  1.0875
  108OSM    H4G11147   3.447   3.979  10.227 -0.8239  1.1302  1.1394
  108OSM    C5F11148   3.542   4.105  10.090  0.2735 -0.5471 -1.1142
  108OSM    H5F11149   3.641   4.053  10.091  0.6823  0.0501  2.3333
  108OSM    H5G11150   3.570   4.207  10.058  2.1141 -1.4038 -2.4478
  108OSM    C6F11151   3.446   4.066   9.973 -0.7540 -0.3387 -0.8189
  108OSM    H6F11152   3.355   4.124   9.999 -0.2525 -0.2338  0.7601
  108OSM    H6G11153   3.430   3.957   9.984  0.1928 -0.4334 -0.3030
  108OSM    C7F11154   3.488   4.085   9.826  0.7820  0.0770  0.3484
  108OSM    H7F11155   3.586   4.036   9.810  1.3176  1.4128 -0.7018
  108OSM    H7G11156   3.508   4.194   9.821  0.7890  0.0853  0.5638
  108OSM    C8F11157   3.390   4.056   9.714  0.1355 -0.1669  0.1416
  108OSM    H8F11158   3.428   4.089   9.615  0.1760  0.8782  0.4915
  108OSM    H8G11159   3.300   4.114   9.743  0.0010 -0.8234  1.0885
  108OSM    C9F11160   3.356   3.906   9.715 -0.7516 -0.2549  0.8422
  108OSM    H9F11161   3.333   3.871   9.817  1.7115 -4.4026  0.1931
  108OSM   C10F11162   3.352   3.823   9.610  0.2774  0.7874  0.1923
  108OSM   H10F11163   3.334   3.719   9.643  1.0107  1.0631  1.5411
  108OSM   C11F11164   3.393   3.841   9.470  0.7223  0.2914 -0.0068
  108OSM   H11F11165   3.499   3.813   9.459  0.8398  1.0147 -0.8033
  108OSM   H11G11166   3.386   3.950   9.450  1.0132  0.5796  1.3647
  108OSM   C12F11167   3.287   3.761   9.393 -0.0674  0.2110 -0.3824
  108OSM   H12F11168   3.182   3.795   9.405 -0.7011 -1.6800 -0.1807
  108OSM   H12G11169   3.278   3.655   9.423 -2.4939  0.3393 -0.4786
  108OSM   C13F11170   3.314   3.751   9.240 -0.9235  0.1485  0.3548
  108OSM   H13F11171   3.403   3.692   9.211  0.6216  1.9349  1.2660
  108OSM   H13G11172   3.332   3.854   9.202 -0.7257  0.1658  0.5000
  108OSM   C14F11173   3.196   3.692   9.156 -0.7014 -0.3166 -0.3770
  108OSM   H14F11174   3.128   3.778   9.139  0.5009  0.3756 -1.9770
  108OSM   H14G11175   3.150   3.608   9.212  3.0129 -0.8346  2.2790
  108OSM   C15F11176   3.236   3.641   9.016 -0.0936 -0.4341  0.2158
  108OSM   H15F11177   3.137   3.615   8.972  0.0293  1.4866 -1.3057
  108OSM   H15G11178   3.292   3.545   9.022 -0.6034 -0.8579 -1.3320
  108OSM   C16F11179   3.303   3.757   8.937 -1.1099  0.8786  0.0663
  108OSM   H16F11180   3.386   3.812   8.985 -0.5578  0.0220  0.1172
  108OSM   H16G11181   3.235   3.839   8.908  0.9549  2.3436 -0.8506
  108OSM   C17F11182   3.362   3.692   8.803 -0.4672  0.1502 -0.2813
  108OSM   H17F11183   3.290   3.620   8.760 -1.4700  1.1428 -0.3216
  108OSM   H17G11184   3.455   3.637   8.827 -0.0837  1.6506  2.0583
  108OSM   C18F11185   3.394   3.802   8.699  0.8987  0.4743 -0.5368
  108OSM   H18F11186   3.484   3.854   8.739  0.8728  0.0109  0.1427
  108OSM   H18G11187   3.302   3.864   8.693  2.1591  2.3355 -1.3647
  108OSM   H18H11188   3.412   3.755   8.600  1.1593 -2.7557  0.9278
  109OSM      N11189   5.562   5.545  10.881  0.0816 -0.1068 -0.3154
  109OSM    C1511190   5.410   5.525  10.881  0.9704 -0.8691  0.0290
  109OSM   H15A11191   5.371   5.571  10.792  0.5317 -1.0883  0.1083
  109OSM   H15B11192   5.366   5.571  10.968 -0.7457 -1.5939 -0.4225
  109OSM   H15C11193   5.388   5.420  10.879 -0.6274 -0.5825  0.9688
  109OSM    C1411194   5.581   5.684  10.920  0.4925 -0.2957 -0.5822
  109OSM   H14A11195   5.685   5.706  10.937  0.8118 -2.5223  0.8683
  109OSM   H14B11196   5.535   5.706  11.016  2.9352 -0.8049  0.7750
  109OSM   H14C11197   5.540   5.751  10.846 -0.2040  0.3303  0.3311
  109OSM    C1311198   5.619   5.455  10.981 -0.2032  0.8489  0.3974
  109OSM   H13A11199   5.725   5.457  10.961 -0.3230 -0.2859 -0.4919
  109OSM   H13B11200   5.590   5.351  10.972  1.4149  0.4769 -0.8993
  109OSM   H13C11201   5.599   5.476  11.085  1.0903 -2.9165  1.5450
  109OSM    C1211202   5.628   5.522  10.747  0.1807 -0.0991  0.6162
  109OSM   H12A11203   5.587   5.596  10.680  0.4555 -0.7835 -0.3287
  109OSM   H12B11204   5.608   5.424  10.707 -0.1670  0.8855 -1.7632
  109OSM    C1111205   5.783   5.552  10.733  0.9552 -0.8091  0.2921
  109OSM   H11A11206   5.795   5.655  10.772 -2.6380  0.0474 -0.5007
  109OSM   H11B11207   5.811   5.565  10.626  1.3334 -1.5388  0.2996
  109OSM      P11208   5.891   5.324  10.731  0.0461  0.0263 -0.2753
  109OSM    O1311209   5.999   5.268  10.810 -0.4610  0.3944  0.5995
  109OSM    O1411210   5.766   5.247  10.712  0.1251 -0.4173 -0.4132
  109OSM    O1111211   5.946   5.368  10.595 -0.2532 -0.7994  0.6420
  109OSM    O1211212   5.861   5.459  10.806  0.1566  0.0559  0.3556
  109OSM    C1S11213   6.065   5.445  10.580 -0.1407 -0.4326 -0.3322
  109OSM    H1S11214   6.149   5.391  10.630 -0.2311  0.5763  0.9829
  109OSM    H1T11215   6.061   5.542  10.633  0.6337 -1.9302  2.6981
  109OSM     NF11216   6.246   5.547  10.430 -0.0682  0.6044  0.0562
  109OSM    HNF11217   6.251   5.641  10.400 -1.2259  0.8255  0.5208
  109OSM    C2S11218   6.117   5.473  10.435  0.6052 -0.2441 -0.2214
  109OSM    H2S11219   6.145   5.378  10.385  1.3781 -0.4935  0.6504
  109OSM    C3S11220   5.997   5.538  10.350  0.5596 -0.0454 -0.3745
  109OSM    H3S11221   5.960   5.636  10.386  0.7447  0.3579 -1.2489
  109OSM     O311222   5.883   5.460  10.343  0.2795 -0.2674 -0.0293
  109OSM    HO311223   5.904   5.384  10.399  2.5892  1.0543  1.0641
  109OSM    C4S11224   6.042   5.552  10.217 -0.0837 -0.4463  0.5778
  109OSM    H4S11225   6.054   5.454  10.168  0.0801 -0.0513 -0.1883
  109OSM    C5S11226   6.068   5.662  10.146  0.1969 -0.0552 -0.0720
  109OSM    H5S11227   6.062   5.759  10.198 -0.0055 -1.0333  1.8485
  109OSM    C6S11228   6.113   5.660  10.007 -0.6867 -0.0128 -0.2363
  109OSM    H6S11229   6.156   5.560   9.987  0.1230  0.3604 -0.3861
  109OSM    H6T11230   6.185   5.741   9.983 -1.8354  1.6988  1.7342
  109OSM    C7S11231   5.994   5.699   9.910 -0.3883  1.3887 -0.5835
  109OSM    H7S11232   5.965   5.804   9.934  0.8466  1.7372 -0.5364
  109OSM    H7T11233   5.916   5.626   9.940  1.4231  0.2842  1.8258
  109OSM    C8S11234   6.040   5.673   9.763  0.2245 -0.0886 -0.0121
  109OSM    H8S11235   6.058   5.566   9.743 -2.0852 -0.8374  1.5192
  109OSM    H8T11236   6.134   5.730   9.748 -1.6186  2.7584 -1.9129
  109OSM    C9S11237   5.938   5.722   9.659 -0.1060 -0.3547  0.4137
  109OSM    H9S11238   5.936   5.833   9.657  1.1244 -0.2426 -3.7807
  109OSM    H9T11239   5.834   5.692   9.686 -1.1502  2.7108  0.0910
  109OSM   C10S11240   5.979   5.661   9.522 -0.2167 -0.7339 -0.8379
  109OSM   H10S11241   5.986   5.550   9.529  2.1411 -0.5160  2.0315
  109OSM   H10T11242   6.080   5.698   9.496 -0.8914  1.8196 -0.1010
  109OSM   C11S11243   5.871   5.693   9.423 -0.6760  0.0118 -0.2292
  109OSM   H11S11244   5.857   5.803   9.429  2.5030  0.4343  1.4419
  109OSM   H11T11245   5.780   5.642   9.462  0.0214 -1.4694 -0.4711
  109OSM   C12S11246   5.914   5.652   9.278 -0.0738  0.0122  0.1493
  109OSM   H12S11247   5.939   5.544   9.277  0.3657  0.0848  1.2700
  109OSM   H12T11248   6.008   5.706   9.254  0.2348  0.2636  1.7598
  109OSM   C13S11249   5.812   5.689   9.168  0.6927 -0.0633 -0.5313
  109OSM   H13S11250   5.763   5.785   9.196 -3.1493 -2.1767  0.7490
  109OSM   H13T11251   5.726   5.620   9.177  1.4631 -0.9588  0.2044
  109OSM   C14S11252   5.875   5.680   9.034  0.2969 -0.0830  0.8270
  109OSM   H14S11253   5.905   5.577   9.004 -1.1596 -0.1869 -0.3601
  109OSM   H14T11254   5.976   5.723   9.047  0.6833 -1.3813  2.4981
  109OSM   C15S11255   5.804   5.768   8.931  0.1953  0.0640 -0.2218
  109OSM   H15S11256   5.769   5.862   8.980  0.1156 -0.2165  0.2664
  109OSM   H15T11257   5.710   5.715   8.905 -0.7617  1.5740 -0.0008
  109OSM   C16S11258   5.891   5.804   8.812  0.3810  0.4179 -0.1552
  109OSM   H16S11259   5.900   5.715   8.746  1.5268  1.6549 -1.7797
  109OSM   H16T11260   5.992   5.829   8.850  0.5983 -1.6993  0.7675
  109OSM   C17S11261   5.822   5.914   8.731  0.1154 -0.0753 -0.4014
  109OSM   H17S11262   5.832   6.008   8.790  2.9940 -0.9356  0.6279
  109OSM   H17T11263   5.715   5.891   8.710 -1.3645  2.1917  3.5816
  109OSM   C18S11264   5.895   5.914   8.602  0.1084 -0.2175  0.0187
  109OSM   H18S11265   5.881   5.815   8.553 -0.4933 -1.3478  2.3118
  109OSM   H18T11266   6.003   5.935   8.616  0.0833 -0.0807  0.0053
  109OSM   H18U11267   5.863   5.995   8.534 -2.4848 -0.2168  1.1140
  109OSM    C1F11268   6.357   5.483  10.469  0.2059  0.0042 -0.7484
  109OSM     OF11269   6.353   5.372  10.520 -0.6578  0.0784  0.0256
  109OSM    C2F11270   6.490   5.549  10.436 -0.0782  0.0092  0.4387
  109OSM    H2F11271   6.550   5.571  10.527  3.1592 -1.3566 -1.1901
  109OSM    H2G11272   6.479   5.645  10.382 -3.3332  0.4473  1.6695
  109OSM    C3F11273   6.594   5.461  10.365  0.7124  0.2636  0.2666
  109OSM    H3F11274   6.601   5.364  10.419  1.3853 -0.1161 -0.4816
  109OSM    H3G11275   6.691   5.512  10.380  0.0381  1.7620 -0.2617
  109OSM    C4F11276   6.582   5.439  10.212  0.4861  0.2360 -0.0330
  109OSM    H4F11277   6.488   5.489  10.178  0.5627  0.3974 -0.0090
  109OSM    H4G11278   6.578   5.330  10.193 -1.0185  0.1022  0.8274
  109OSM    C5F11279   6.696   5.507  10.133  0.2867  0.5555 -0.1952
  109OSM    H5F11280   6.800   5.469  10.143  0.2141  0.3499 -0.2196
  109OSM    H5G11281   6.693   5.612  10.169 -0.0303  0.7236 -0.7017
  109OSM    C6F11282   6.662   5.495   9.984  0.7218  0.1631  0.1196
  109OSM    H6F11283   6.623   5.392   9.968  0.6154 -0.4210  3.3214
  109OSM    H6G11284   6.752   5.504   9.921 -0.5731 -1.4813 -2.1065
  109OSM    C7F11285   6.554   5.588   9.927 -0.5308 -0.2269  0.0165
  109OSM    H7F11286   6.588   5.691   9.952  2.1860 -1.0201 -0.0880
  109OSM    H7G11287   6.451   5.557   9.955 -0.2801 -1.2623 -0.1829
  109OSM    C8F11288   6.571   5.583   9.768 -0.2019 -0.3933  0.2944
  109OSM    H8F11289   6.577   5.476   9.737  3.6364 -1.0790  2.7387
  109OSM    H8G11290   6.666   5.628   9.735 -0.3372  0.2009  0.7008
  109OSM    C9F11291   6.456   5.660   9.705  0.7028  0.1784  0.0702
  109OSM    H9F11292   6.420   5.755   9.747  1.6820  0.1155  1.1185
  109OSM   C10F11293   6.396   5.615   9.590  0.1375 -0.1059 -0.4808
  109OSM   H10F11294   6.317   5.677   9.546  1.5429 -0.6162 -4.0313
  109OSM   C11F11295   6.426   5.487   9.519  0.0893 -0.2076  0.1681
  109OSM   H11F11296   6.393   5.404   9.585 -3.2442  0.9282  0.1116
  109OSM   H11G11297   6.534   5.482   9.493 -0.0109  0.8795 -0.4866
  109OSM   C12F11298   6.349   5.475   9.384  0.5964  0.3733  0.4720
  109OSM   H12F11299   6.243   5.498   9.405  1.3013  1.7296  2.8827
  109OSM   H12G11300   6.360   5.367   9.358 -1.0835 -0.0798  1.4608
  109OSM   C13F11301   6.398   5.562   9.266  0.2376 -0.2213  0.1969
  109OSM   H13F11302   6.471   5.502   9.208  1.1033  0.0330  0.9914
  109OSM   H13G11303   6.453   5.652   9.302 -0.8588  0.3166  0.5773
  109OSM   C14F11304   6.287   5.615   9.174 -0.1657  0.3142 -0.3893
  109OSM   H14F11305   6.225   5.689   9.228 -1.1247 -0.5229 -0.3081
  109OSM   H14G11306   6.225   5.526   9.147  0.2037  0.3829 -1.4911
  109OSM   C15F11307   6.344   5.679   9.050  0.2690 -0.1727 -0.0611
  109OSM   H15F11308   6.440   5.623   9.042 -0.3707 -1.3402  0.0750
  109OSM   H15G11309   6.377   5.782   9.075  0.4196 -0.4590  0.9732
  109OSM   C16F11310   6.253   5.658   8.926 -0.8735 -0.4533  0.0655
  109OSM   H16F11311   6.152   5.687   8.961  0.8426  3.1252  2.6500
  109OSM   H16G11312   6.265   5.549   8.905  1.0736 -0.0711 -1.0309
  109OSM   C17F11313   6.293   5.756   8.813 -0.0625 -0.2642 -0.2572
  109OSM   H17F11314   6.271   5.864   8.830 -0.6871 -0.6298  1.4540
  109OSM   H17G11315   6.222   5.715   8.738 -1.2272  1.3218 -0.0726
  109OSM   C18F11316   6.437   5.739   8.761  0.6573 -0.0496 -0.0291
  109OSM   H18F11317   6.516   5.765   8.834  0.3598  1.1506 -0.1053
  109OSM   H18G11318   6.457   5.804   8.672 -0.6789 -1.1299 -1.1737
  109OSM   H18H11319   6.458   5.635   8.729 -1.1529 -1.0710  1.8490
  110OSM      N11320   1.465   2.480  10.860  0.4457  0.2881 -0.4947
  110OSM    C1511321   1.450   2.348  10.792 -0.2925  0.7204  0.2319
  110OSM   H15A11322   1.540   2.291  10.800  1.0791  2.3737 -2.0969
  110OSM   H15B11323   1.422   2.361  10.688 -3.0885  0.8555  0.9134
  110OSM   H15C11324   1.367   2.296  10.839 -0.3525  0.5240 -0.0872
  110OSM    C1411325   1.514   2.445  10.999 -0.0750 -0.0051 -0.2489
  110OSM   H14A11326   1.524   2.531  11.064  0.1224 -0.5912  0.4984
  110OSM   H14B11327   1.606   2.389  11.001  0.4884  0.9094  0.9066
  110OSM   H14C11328   1.444   2.373  11.037 -0.1208  0.1238 -0.0878
  110OSM    C1311329   1.570   2.548  10.783 -0.0083  0.4782 -0.2279
  110OSM   H13A11330   1.666   2.500  10.793 -0.4705 -0.6074 -0.7965
  110OSM   H13B11331   1.572   2.651  10.816  2.2110  0.8957 -1.4928
  110OSM   H13C11332   1.545   2.553  10.678 -2.2424 -0.6835  0.1760
  110OSM    C1211333   1.339   2.561  10.870 -0.6301  0.5429  0.5932
  110OSM   H12A11334   1.263   2.501  10.919 -0.8515  0.7061  0.4543
  110OSM   H12B11335   1.299   2.579  10.771  1.5901 -0.0024 -0.4736
  110OSM    C1111336   1.352   2.698  10.940  0.4771  0.6376  0.7742
  110OSM   H11A11337   1.420   2.694  11.027 -2.1667  3.0831  3.1579
  110OSM   H11B11338   1.255   2.731  10.983 -0.9355  0.0146 -1.7426
  110OSM      P11339   1.455   2.925  10.871 -0.4761  0.3380  0.1449
  110OSM    O1311340   1.348   3.024  10.842 -0.1351 -0.5057  0.0034
  110OSM    O1411341   1.510   2.930  11.008 -0.0591 -0.3520  0.2664
  110OSM    O1111342   1.577   2.930  10.775  0.0037  0.4311  0.4753
  110OSM    O1211343   1.390   2.779  10.832  0.2963 -0.7010  0.3808
  110OSM    C1S11344   1.571   2.883  10.638  0.0486 -0.7496  0.4851
  110OSM    H1S11345   1.495   2.804  10.622  0.2385 -0.5780 -1.6117
  110OSM    H1T11346   1.667   2.835  10.610  0.8378  0.7421  0.5027
  110OSM     NF11347   1.514   2.948  10.418  0.1251 -0.5502 -0.5573
  110OSM    HNF11348   1.580   2.964  10.345 -1.5376  1.1261 -1.7909
  110OSM    C2S11349   1.546   3.007  10.550 -0.0151  0.5446  1.0335
  110OSM    H2S11350   1.455   3.057  10.589  0.2210  1.0741  0.9168
  110OSM    C3S11351   1.656   3.117  10.559 -0.5171  0.3436  0.5482
  110OSM    H3S11352   1.753   3.075  10.526 -1.0981  0.0822 -0.8939
  110OSM     O311353   1.679   3.165  10.686  0.0921 -0.4161 -0.1186
  110OSM    HO311354   1.663   3.090  10.744 -0.1028 -0.8589 -0.7322
  110OSM    C4S11355   1.626   3.233  10.474 -0.5852 -0.3464  0.2095
  110OSM    H4S11356   1.534   3.287  10.503 -0.9820 -0.9037  0.0113
  110OSM    C5S11357   1.711   3.268  10.376  0.2617 -0.4853 -0.3378
  110OSM    H5S11358   1.799   3.209  10.343  2.2702  1.4737  1.1992
  110OSM    C6S11359   1.698   3.390  10.291 -0.7665 -0.4704  0.7526
  110OSM    H6S11360   1.753   3.384  10.195 -0.1380  2.9695  0.7418
  110OSM    H6T11361   1.750   3.474  10.343  2.3942 -1.7910 -0.0444
  110OSM    C7S11362   1.550   3.427  10.263 -0.8672 -0.3115 -0.1036
  110OSM    H7S11363   1.500   3.446  10.360  0.3921  1.3805  0.2545
  110OSM    H7T11364   1.484   3.352  10.214 -2.1507  1.2688 -0.8637
  110OSM    C8S11365   1.547   3.571  10.193 -0.7468  0.7686  0.1507
  110OSM    H8S11366   1.601   3.643  10.259  0.4672 -2.1287  2.5656
  110OSM    H8T11367   1.440   3.600  10.189 -0.6944  0.8645 -0.6780
  110OSM    C9S11368   1.587   3.579  10.051 -0.0863  0.4383 -0.3710
  110OSM    H9S11369   1.695   3.555  10.043 -0.2889  0.0654 -2.2519
  110OSM    H9T11370   1.574   3.680  10.006  1.5744 -0.3605 -2.8033
  110OSM   C10S11371   1.506   3.483   9.957  0.0436 -0.4940  0.1498
  110OSM   H10S11372   1.405   3.530   9.950 -0.2918 -1.1678  0.2801
  110OSM   H10T11373   1.494   3.382  10.003 -0.0578 -0.6317 -0.1793
  110OSM   C11S11374   1.575   3.457   9.821 -0.2662 -0.1720  0.2375
  110OSM   H11S11375   1.683   3.431   9.830  0.3139  1.2852 -1.8059
  110OSM   H11T11376   1.574   3.549   9.758 -1.2466 -0.2799  0.0925
  110OSM   C12S11377   1.493   3.346   9.750  0.0963 -0.6606 -0.4988
  110OSM   H12S11378   1.383   3.364   9.744 -0.1608 -1.7154  0.7008
  110OSM   H12T11379   1.510   3.256   9.812  0.5391 -2.4030 -3.0021
  110OSM   C13S11380   1.539   3.318   9.604 -0.5949 -0.4236 -0.3806
  110OSM   H13S11381   1.630   3.255   9.613 -0.0404  0.1455 -1.7668
  110OSM   H13T11382   1.592   3.411   9.575 -2.0283  0.7215  0.5604
  110OSM   C14S11383   1.434   3.282   9.502  0.3535  1.3619 -0.2629
  110OSM   H14S11384   1.341   3.336   9.534  0.1275  1.9267 -1.8033
  110OSM   H14T11385   1.416   3.173   9.510  0.9643  1.2528 -0.3742
  110OSM   C15S11386   1.467   3.297   9.357 -0.3428  0.1905 -0.5034
  110OSM   H15S11387   1.569   3.261   9.333 -0.0707  0.4781  0.2020
  110OSM   H15T11388   1.465   3.406   9.333 -4.0685  0.3614  0.0566
  110OSM   C16S11389   1.368   3.232   9.261  0.2778 -0.3350 -0.5204
  110OSM   H16S11390   1.277   3.289   9.289  2.0377  2.3789  0.0937
  110OSM   H16T11391   1.362   3.123   9.280 -0.5439  0.0498  1.8433
  110OSM   C17S11392   1.400   3.270   9.123  0.0962  0.6318  0.5718
  110OSM   H17S11393   1.500   3.230   9.094 -0.7296 -2.8134  1.9337
  110OSM   H17T11394   1.398   3.380   9.110 -1.4036  0.3406 -2.7009
  110OSM   C18S11395   1.293   3.206   9.028  0.0322  0.2490  0.5314
  110OSM   H18S11396   1.318   3.200   8.920  0.3252 -1.4537  0.6688
  110OSM   H18T11397   1.202   3.268   9.043 -0.3153 -0.2753  0.6026
  110OSM   H18U11398   1.266   3.101   9.053  0.4856 -0.6024 -2.2715
  110OSM    C1F11399   1.397   2.894  10.384 -0.3116 -0.9392  0.7378
  110OSM     OF11400   1.307   2.870  10.465 -0.2520  0.6191  0.3838
  110OSM    C2F11401   1.389   2.861  10.241 -0.1664  0.4011  0.4068
  110OSM    H2F11402   1.478   2.803  10.206 -1.6635 -0.7391 -1.7139
  110OSM    H2G11403   1.389   2.951  10.176  0.6163  0.3522  0.3240
  110OSM    C3F11404   1.261   2.776  10.218 -0.2677  0.5231 -0.2340
  110OSM    H3F11405   1.176   2.841  10.247 -1.5251 -0.8745 -0.6754
  110OSM    H3G11406   1.246   2.682  10.276  0.2562 -0.4826 -1.6569
  110OSM    C4F11407   1.244   2.752  10.067 -1.1844 -0.5472  0.9454
  110OSM    H4F11408   1.238   2.849  10.013 -1.0313 -0.0167  1.8542
  110OSM    H4G11409   1.151   2.692  10.056 -0.3806 -1.8561  1.0698
  110OSM    C5F11410   1.361   2.672  10.008 -0.0595  0.1593  0.5365
  110OSM    H5F11411   1.412   2.601  10.076 -1.4708 -1.4614  0.0026
  110OSM    H5G11412   1.441   2.738   9.967 -0.1725 -0.8069 -1.3598
  110OSM    C6F11413   1.312   2.579   9.899 -0.1775  0.1390  0.1843
  110OSM    H6F11414   1.277   2.652   9.823  3.4412  2.0232  0.1112
  110OSM    H6G11415   1.223   2.520   9.929 -0.6363  0.4131 -0.6091
  110OSM    C7F11416   1.406   2.478   9.847  0.1448  0.3197 -0.2094
  110OSM    H7F11417   1.446   2.411   9.926 -0.2894  1.1773  0.7513
  110OSM    H7G11418   1.494   2.524   9.798  0.2954 -0.3612 -0.5971
  110OSM    C8F11419   1.333   2.384   9.754  0.7587  0.2990  0.0156
  110OSM    H8F11420   1.271   2.448   9.688 -0.3162  0.6298  1.2811
  110OSM    H8G11421   1.255   2.330   9.812 -1.3133  2.3813 -0.6765
  110OSM    C9F11422   1.428   2.289   9.681  0.0544  0.6654  0.0708
  110OSM    H9F11423   1.455   2.200   9.740 -1.5026 -0.9867 -1.5633
  110OSM   C10F11424   1.491   2.308   9.569  0.0903 -0.1009 -0.1594
  110OSM   H10F11425   1.562   2.232   9.533  0.2474  0.0102 -0.0839
  110OSM   C11F11426   1.477   2.436   9.494 -0.8106 -0.0969 -0.0265
  110OSM   H11F11427   1.447   2.521   9.559 -0.8182 -0.2687  0.1934
  110OSM   H11G11428   1.394   2.436   9.420 -0.9623  0.4546  0.1388
  110OSM   C12F11429   1.603   2.484   9.417 -0.1961  0.5138 -0.4187
  110OSM   H12F11430   1.694   2.467   9.479 -0.3893  2.4054  0.4596
  110OSM   H12G11431   1.595   2.593   9.401 -1.1675  0.5564  0.2573
  110OSM   C13F11432   1.617   2.421   9.278  0.3905  0.1245  0.5409
  110OSM   H13F11433   1.535   2.452   9.210 -1.3433  0.6941  2.7712
  110OSM   H13G11434   1.635   2.311   9.282  0.4748 -0.0311 -2.0200
  110OSM   C14F11435   1.752   2.461   9.212  0.8711 -0.5232  0.5682
  110OSM   H14F11436   1.834   2.421   9.274  0.7296 -1.2156  0.3196
  110OSM   H14G11437   1.750   2.572   9.205  0.9527 -0.5479  0.0866
  110OSM   C15F11438   1.766   2.411   9.062  0.2126 -0.2066  0.2874
  110OSM   H15F11439   1.733   2.306   9.047  0.8789 -0.2833 -0.7713
  110OSM   H15G11440   1.874   2.416   9.036  0.4814 -0.1373  1.3910
  110OSM   C16F11441   1.696   2.507   8.961  0.7400 -0.4840 -0.3383
  110OSM   H16F11442   1.724   2.613   8.979 -2.7804  0.4504  0.3386
  110OSM   H16G11443   1.585   2.508   8.967  0.8461  0.0688  3.0625
  110OSM   C17F11444   1.719   2.481   8.809 -0.0808 -0.1313  0.4174
  110OSM   H17F11445   1.686   2.380   8.776  0.5576 -0.3685  0.4851
  110OSM   H17G11446   1.828   2.481   8.790 -0.1526  0.8723 -0.0297
  110OSM   C18F11447   1.655   2.585   8.714 -0.8535 -0.2793  0.3219
  110OSM   H18F11448   1.660   2.546   8.610 -0.7341 -1.0162  0.5940
  110OSM   H18G11449   1.717   2.676   8.701  0.0924 -1.2318 -2.8954
  110OSM   H18H11450   1.551   2.620   8.732 -0.7538 -0.1311  0.6138
  111OSM      N11451   5.582   0.686  10.889 -0.1864 -0.1157  0.4107
  111OSM    C1511452   5.685   0.657  11.000  0.3339 -0.2712  0.4677
  111OSM   H15A11453   5.774   0.616  10.956  0.7836  0.3367  0.7956
  111OSM   H15B11454   5.643   0.594  11.077 -1.0693  2.1605  1.8149
  111OSM   H15C11455   5.717   0.752  11.041  1.0723  0.0649 -0.8510
  111OSM    C1411456   5.543   0.572  10.807 -0.1110  0.5979 -0.7575
  111OSM   H14A11457   5.489   0.499  10.866 -1.2102  2.4556  0.6563
  111OSM   H14B11458   5.634   0.532  10.764  0.7036 -0.3925  1.7166
  111OSM   H14C11459   5.483   0.601  10.722  3.0952  0.4745 -3.2625
  111OSM    C1311460   5.459   0.742  10.957 -0.1889 -0.4084  0.3021
  111OSM   H13A11461   5.480   0.820  11.030 -1.9285 -0.1566  0.5610
  111OSM   H13B11462   5.422   0.658  11.013  0.8207 -0.1610  1.4011
  111OSM   H13C11463   5.391   0.781  10.883 -0.3441 -0.9562  0.1542
  111OSM    C1211464   5.633   0.787  10.795 -0.1768 -0.3080 -1.0542
  111OSM   H12A11465   5.645   0.878  10.852 -3.0634 -0.1354 -0.5574
  111OSM   H12B11466   5.547   0.822  10.739 -2.4991 -3.2362  0.3739
  111OSM    C1111467   5.748   0.749  10.708  0.0425  0.3674  0.3527
  111OSM   H11A11468   5.795   0.839  10.662  1.9789 -0.1322  1.2582
  111OSM   H11B11469   5.714   0.684  10.624  0.1415  0.3209  0.3488
  111OSM      P11470   5.963   0.587  10.682 -0.2900  0.6260 -0.4385
  111OSM    O1311471   6.064   0.541  10.786 -0.0991 -0.0803  0.5991
  111OSM    O1411472   5.887   0.481  10.613  0.3158  0.3689  0.4837
  111OSM    O1111473   6.018   0.689  10.583  0.0494 -0.9002  0.3648
  111OSM    O1211474   5.858   0.680  10.770  0.2342 -0.1680  0.0647
  111OSM    C1S11475   6.156   0.719  10.566 -0.2009 -0.0300 -0.1170
  111OSM    H1S11476   6.217   0.626  10.568 -0.8668 -0.4927  2.1932
  111OSM    H1T11477   6.193   0.778  10.653  0.2603 -1.4258  0.6781
  111OSM     NF11478   6.321   0.795  10.400  0.0083  0.3887  0.0871
  111OSM    HNF11479   6.367   0.883  10.408  0.8810 -0.1919  1.8439
  111OSM    C2S11480   6.183   0.793  10.434  0.7975  0.5602  0.6115
  111OSM    H2S11481   6.132   0.739  10.351  0.3861  1.0482  0.5417
  111OSM    C3S11482   6.125   0.927  10.438 -0.1026  0.2239  0.0675
  111OSM    H3S11483   6.167   0.987  10.521  1.6020  1.1906 -1.4077
  111OSM     O311484   5.986   0.920  10.463  0.0183 -0.4103 -0.3671
  111OSM    HO311485   5.982   0.831  10.500  1.6030 -0.6067 -0.5845
  111OSM    C4S11486   6.153   1.001  10.308  0.1795  0.4023 -0.0954
  111OSM    H4S11487   6.206   1.096  10.325  2.2558 -0.9224  1.3676
  111OSM    C5S11488   6.127   0.964  10.185  0.1980  0.2421  0.6248
  111OSM    H5S11489   6.071   0.870  10.174  1.2593 -0.4758  1.1978
  111OSM    C6S11490   6.154   1.044  10.060 -0.1299 -0.1034 -0.3071
  111OSM    H6S11491   6.214   1.135  10.081 -0.2542 -0.0133 -0.3422
  111OSM    H6T11492   6.060   1.090  10.022 -0.8111 -0.0476  1.3444
  111OSM    C7S11493   6.227   0.966   9.952 -0.4625 -0.4292 -0.2287
  111OSM    H7S11494   6.161   0.880   9.927  0.8262 -1.8784  1.1014
  111OSM    H7T11495   6.319   0.916   9.989 -0.5894 -1.5254 -1.3156
  111OSM    C8S11496   6.246   1.043   9.823 -0.3007  0.5404  0.7775
  111OSM    H8S11497   6.300   1.139   9.837 -3.0996  2.4755 -0.6278
  111OSM    H8T11498   6.145   1.081   9.794 -0.4822  0.2332  1.0085
  111OSM    C9S11499   6.310   0.956   9.718 -0.0805 -0.3472  0.2921
  111OSM    H9S11500   6.251   0.862   9.712 -0.9787  0.2020  0.3292
  111OSM    H9T11501   6.411   0.929   9.756  0.5532  1.1495 -0.2796
  111OSM   C10S11502   6.318   1.017   9.580 -0.2982  0.7200  0.8622
  111OSM   H10S11503   6.389   1.100   9.563  0.1100 -0.0102 -1.2197
  111OSM   H10T11504   6.216   1.056   9.559 -0.9109 -0.6064  1.2079
  111OSM   C11S11505   6.363   0.912   9.476 -1.0493 -0.0208  0.2037
  111OSM   H11S11506   6.309   0.818   9.497 -0.3183  0.2400  3.8984
  111OSM   H11T11507   6.471   0.896   9.495 -1.2737 -0.6884  0.9602
  111OSM   C12S11508   6.344   0.953   9.332 -0.3222 -0.3346  0.1107
  111OSM   H12S11509   6.391   1.052   9.313  2.0704 -1.3069  0.5811
  111OSM   H12T11510   6.234   0.961   9.318 -0.0822 -0.6616 -2.3850
  111OSM   C13S11511   6.396   0.849   9.230  0.1697  0.0585  0.4543
  111OSM   H13S11512   6.339   0.754   9.238 -1.8058  0.9425 -1.9472
  111OSM   H13T11513   6.503   0.840   9.260  0.4808  1.9990  0.0614
  111OSM   C14S11514   6.390   0.872   9.083 -0.3092  0.2110  0.2643
  111OSM   H14S11515   6.288   0.847   9.045 -0.1353  0.8924 -0.6956
  111OSM   H14T11516   6.457   0.796   9.037 -0.7841 -0.2491  0.3254
  111OSM   C15S11517   6.444   1.010   9.043  0.1083  0.4136  1.2273
  111OSM   H15S11518   6.553   1.010   9.061  0.2375 -3.1546  1.2200
  111OSM   H15T11519   6.411   1.091   9.112 -1.4736  0.4644  0.4578
  111OSM   C16S11520   6.427   1.039   8.893  0.1066 -0.4523  0.5557
  111OSM   H16S11521   6.321   1.028   8.861  0.6251  1.5183 -2.1699
  111OSM   H16T11522   6.507   0.990   8.834  3.0462  3.8199  0.5512
  111OSM   C17S11523   6.462   1.186   8.863  0.1794  0.0708 -0.8082
  111OSM   H17S11524   6.409   1.261   8.926  1.8356 -0.2821  1.0678
  111OSM   H17T11525   6.430   1.210   8.759  0.4054  0.8482 -0.7032
  111OSM   C18S11526   6.616   1.208   8.872 -0.1458  0.4523  0.2265
  111OSM   H18S11527   6.685   1.145   8.812  2.2858  1.6820  1.5591
  111OSM   H18T11528   6.656   1.197   8.976  0.2525 -1.6665 -0.1037
  111OSM   H18U11529   6.643   1.311   8.840  0.8978  0.3973  0.8586
  111OSM    C1F11530   6.386   0.684  10.368  0.4597  0.3481  0.7825
  111OSM     OF11531   6.331   0.573  10.375 -0.5428 -0.4657  0.0308
  111OSM    C2F11532   6.531   0.712  10.339  0.7690  0.7282  0.7815
  111OSM    H2F11533   6.580   0.613  10.352 -0.6346 -0.2729 -0.9656
  111OSM    H2G11534   6.584   0.775  10.413  0.4956 -1.2397  2.7387
  111OSM    C3F11535   6.558   0.762  10.195 -0.2378  0.0439  0.5741
  111OSM    H3F11536   6.519   0.865  10.176 -1.4269 -0.4128  0.4669
  111OSM    H3G11537   6.523   0.690  10.119  0.2997 -1.4860  1.7251
  111OSM    C4F11538   6.713   0.778  10.170 -0.4429 -0.0863  0.1538
  111OSM    H4F11539   6.765   0.687  10.206 -1.7165 -0.7648  0.3370
  111OSM    H4G11540   6.749   0.855  10.242  1.2033 -0.6543 -0.0188
  111OSM    C5F11541   6.743   0.823  10.020 -0.2148  0.1083  1.0330
  111OSM    H5F11542   6.854   0.825  10.016 -0.2026  0.6744 -3.3425
  111OSM    H5G11543   6.720   0.932  10.011  2.6284  0.8065  1.2391
  111OSM    C6F11544   6.691   0.736   9.904 -0.4090 -0.4685  0.0178
  111OSM    H6F11545   6.581   0.728   9.921 -0.0963 -0.0465  2.5466
  111OSM    H6G11546   6.718   0.628   9.912  0.8255 -0.2000 -0.3762
  111OSM    C7F11547   6.714   0.796   9.764  0.1285  0.2203  0.3799
  111OSM    H7F11548   6.823   0.787   9.744 -0.0079 -2.3189  0.4759
  111OSM    H7G11549   6.691   0.905   9.760 -1.5849 -0.0883  0.8320
  111OSM    C8F11550   6.634   0.713   9.658 -0.4992 -0.3569  1.1814
  111OSM    H8F11551   6.647   0.755   9.556  0.3710 -1.4630  0.8113
  111OSM    H8G11552   6.530   0.725   9.694 -0.7180  1.8838 -0.0382
  111OSM    C9F11553   6.668   0.566   9.652  0.3961  0.4266  0.2102
  111OSM    H9F11554   6.623   0.501   9.729  0.8927  0.0019  0.1458
  111OSM   C10F11555   6.755   0.514   9.563 -0.2322  1.0089 -0.9437
  111OSM   H10F11556   6.763   0.404   9.561  0.9676  1.0878 -0.8444
  111OSM   C11F11557   6.835   0.568   9.443 -0.3355  0.0076 -0.1794
  111OSM   H11F11558   6.933   0.518   9.433 -0.0988  0.4743 -0.2385
  111OSM   H11G11559   6.871   0.673   9.455  4.6308 -1.4558 -0.3981
  111OSM   C12F11560   6.750   0.559   9.323 -0.0836  0.1035  0.6163
  111OSM   H12F11561   6.658   0.621   9.329 -0.6432  0.3395 -5.0600
  111OSM   H12G11562   6.727   0.451   9.309  0.5998 -0.0812  0.8606
  111OSM   C13F11563   6.813   0.620   9.192  0.0454  0.2309  0.4080
  111OSM   H13F11564   6.873   0.534   9.156  1.4531  0.5158  1.9580
  111OSM   H13G11565   6.871   0.707   9.230  0.5958 -0.5210  1.3201
  111OSM   C14F11566   6.710   0.655   9.081  0.4647 -0.7385  0.1419
  111OSM   H14F11567   6.663   0.750   9.115  0.4046 -0.5648 -0.4210
  111OSM   H14G11568   6.634   0.574   9.075 -0.8233  0.4185  0.3691
  111OSM   C15F11569   6.777   0.678   8.946 -0.7088  0.6316 -0.1576
  111OSM   H15F11570   6.831   0.584   8.922 -3.3092 -1.3926  1.3798
  111OSM   H15G11571   6.859   0.751   8.965  0.3535 -0.7118  0.6312
  111OSM   C16F11572   6.680   0.718   8.829  0.8301  0.2457  0.8082
  111OSM   H16F11573   6.657   0.824   8.849  0.8927  0.4231 -0.0117
  111OSM   H16G11574   6.596   0.645   8.836  0.3356  0.8879  1.7743
  111OSM   C17F11575   6.752   0.703   8.689 -0.2163 -0.2096 -0.7278
  111OSM   H17F11576   6.841   0.768   8.697 -1.0510  0.9032 -0.1803
  111OSM   H17G11577   6.698   0.750   8.604  1.9312  1.7530 -1.1087
  111OSM   C18F11578   6.786   0.563   8.650 -0.1863  0.4577  0.5908
  111OSM   H18F11579   6.697   0.497   8.640  0.0316  0.0798  1.1234
  111OSM   H18G11580   6.856   0.509   8.717 -2.1079 -1.2107  1.3760
  111OSM   H18H11581   6.836   0.573   8.552 -1.6076 -0.6055 -0.2824
  112OSM      N11582   0.287   4.007  11.314 -0.1519  1.3646 -0.1130
  112OSM    C1511583   0.419   4.068  11.358 -0.2796 -0.4289  0.1561
  112OSM   H15A11584   0.492   4.091  11.283  0.0368  1.5393  1.0193
  112OSM   H15B11585   0.471   4.004  11.428 -0.8330 -0.4039  0.5984
  112OSM   H15C11586   0.391   4.158  11.412  1.3052  0.0120  0.2711
  112OSM    C1411587   0.318   3.883  11.241 -0.1891 -0.1272  0.1771
  112OSM   H14A11588   0.229   3.826  11.219  0.4014 -0.5979 -1.0966
  112OSM   H14B11589   0.395   3.825  11.290  0.1273  0.2030  0.0753
  112OSM   H14C11590   0.367   3.911  11.149  0.0234 -0.1882  0.2707
  112OSM    C1311591   0.197   3.964  11.428 -0.4849  0.4093  0.4675
  112OSM   H13A11592   0.137   3.880  11.398 -0.0477  0.3337 -0.2306
  112OSM   H13B11593   0.136   4.045  11.466  0.1313  1.8007 -1.3110
  112OSM   H13C11594   0.257   3.928  11.511  0.6927  0.6555 -0.2517
  112OSM    C1211595   0.215   4.097  11.222 -0.0538 -0.3515  0.3600
  112OSM   H12A11596   0.177   4.179  11.281 -4.9949 -2.8299  1.1470
  112OSM   H12B11597   0.125   4.051  11.183 -0.3427 -0.3762  1.0389
  112OSM    C1111598   0.295   4.164  11.104  0.3328 -0.0420  1.1404
  112OSM   H11A11599   0.377   4.217  11.156  1.1804  0.2957 -0.5017
  112OSM   H11B11600   0.237   4.240  11.048 -0.8910 -0.4747  1.7653
  112OSM      P11601   0.272   4.014  10.890  0.0066  0.4313 -0.3278
  112OSM    O1311602   0.364   3.939  10.803 -0.1014  0.3481  0.0517
  112OSM    O1411603   0.155   3.930  10.927  0.3903 -0.0968 -0.5188
  112OSM    O1111604   0.218   4.144  10.812 -0.5369 -0.6537 -0.2779
  112OSM    O1211605   0.349   4.070  11.012  0.0302  0.6518  0.0767
  112OSM    C1S11606   0.314   4.239  10.754  0.2807 -0.4112 -0.3208
  112OSM    H1S11607   0.416   4.228  10.798 -0.4511 -2.5766  0.9581
  112OSM    H1T11608   0.277   4.341  10.778 -0.1132  0.1076 -2.8820
  112OSM     NF11609   0.445   4.309  10.543 -0.2630 -0.6430  0.8454
  112OSM    HNF11610   0.418   4.387  10.488 -1.2844 -0.2432  1.8678
  112OSM    C2S11611   0.332   4.226  10.593  0.2732  0.0451  0.1050
  112OSM    H2S11612   0.361   4.122  10.566  1.0013  0.7294 -1.8995
  112OSM    C3S11613   0.193   4.272  10.531 -0.6115  0.1531 -0.0888
  112OSM    H3S11614   0.181   4.375  10.570  0.4532  0.0299  0.6174
  112OSM     O311615   0.085   4.202  10.583 -0.1466 -0.0497 -0.4242
  112OSM    HO311616   0.117   4.166  10.666  1.9846  1.6017 -0.4366
  112OSM    C4S11617   0.189   4.250  10.380  0.3889 -0.4751  0.3295
  112OSM    H4S11618   0.199   4.146  10.345 -0.7102  0.5877 -3.7152
  112OSM    C5S11619   0.173   4.345  10.285 -0.4551 -0.2092  0.8049
  112OSM    H5S11620   0.175   4.454  10.302 -2.1769 -0.0131 -0.0136
  112OSM    C6S11621   0.180   4.308  10.131  0.8914  0.9565 -0.0001
  112OSM    H6S11622   0.148   4.206  10.103  1.0004  0.9853 -0.2263
  112OSM    H6T11623   0.277   4.323  10.079  2.5377 -0.9239  2.2850
  112OSM    C7S11624   0.075   4.390  10.049 -0.9367  0.3878  0.3423
  112OSM    H7S11625   0.102   4.497  10.063 -1.4243  0.4232  1.0846
  112OSM    H7T11626  -0.034   4.389  10.069 -1.2074  3.3978 -0.4695
  112OSM    C8S11627   0.097   4.370   9.896  0.0784  0.3168  0.2403
  112OSM    H8S11628   0.077   4.263   9.873  1.0403 -0.2688  1.9253
  112OSM    H8T11629   0.207   4.380   9.887  0.3429 -0.6934  1.9258
  112OSM    C9S11630   0.034   4.472   9.799 -0.8182  0.6791  0.1157
  112OSM    H9S11631   0.065   4.573   9.832  2.1040  0.2183 -0.9578
  112OSM    H9T11632  -0.077   4.469   9.810 -0.7353 -1.1960  0.8601
  112OSM   C10S11633   0.074   4.444   9.652  0.1617 -0.8620 -0.5548
  112OSM   H10S11634   0.062   4.339   9.617 -1.2103 -0.7486 -0.4939
  112OSM   H10T11635   0.182   4.468   9.648  0.0855 -0.4631 -0.2572
  112OSM   C11S11636  -0.007   4.535   9.562 -0.3139  0.4134  0.3667
  112OSM   H11S11637   0.012   4.637   9.602  1.1839 -0.1247  1.1195
  112OSM   H11T11638  -0.115   4.516   9.574 -0.9233  1.6476 -2.4078
  112OSM   C12S11639   0.033   4.529   9.411  0.4841  0.1207 -0.3350
  112OSM   H12S11640   0.032   4.422   9.380  1.9663 -0.2079  0.6704
  112OSM   H12T11641   0.138   4.565   9.409  1.0672 -1.4770  0.0802
  112OSM   C13S11642  -0.056   4.599   9.313  0.0985  0.2221 -0.5120
  112OSM   H13S11643  -0.066   4.709   9.329 -1.6044  0.3281 -1.9524
  112OSM   H13T11644  -0.154   4.554   9.339  1.5804 -1.7671  2.1606
  112OSM   C14S11645  -0.005   4.576   9.173 -0.2036  0.0746 -0.8718
  112OSM   H14S11646  -0.083   4.607   9.101 -2.2366  0.8353  1.5319
  112OSM   H14T11647   0.014   4.468   9.151  0.0063 -0.0232 -0.2192
  112OSM   C15S11648   0.128   4.652   9.141 -0.3370 -0.2475  0.3382
  112OSM   H15S11649   0.203   4.616   9.214  2.0397  2.9979 -0.2646
  112OSM   H15T11650   0.100   4.754   9.174 -2.0081 -1.2591  2.2331
  112OSM   C16S11651   0.187   4.651   9.001 -0.2821 -0.7550 -0.0009
  112OSM   H16S11652   0.222   4.548   8.981  2.4613  0.3016 -1.1052
  112OSM   H16T11653   0.274   4.719   9.001 -1.0335  0.4574  3.8819
  112OSM   C17S11654   0.103   4.718   8.889  0.5304 -0.7084  0.2529
  112OSM   H17S11655   0.006   4.665   8.893  1.3707 -2.2506  1.2830
  112OSM   H17T11656   0.153   4.701   8.791  0.1613 -2.2179  0.3023
  112OSM   C18S11657   0.048   4.859   8.916  0.3995  0.4775  0.3325
  112OSM   H18S11658  -0.028   4.867   8.996  0.3963  0.2643  0.3509
  112OSM   H18T11659   0.017   4.898   8.816  3.2764  0.4895 -0.6507
  112OSM   H18U11660   0.133   4.924   8.946 -0.8494  2.0805  0.5413
  112OSM    C1F11661   0.569   4.292  10.583 -0.2765  0.1803 -0.6422
  112OSM     OF11662   0.603   4.178  10.621  0.3715 -0.6204 -0.6158
  112OSM    C2F11663   0.664   4.407  10.581 -0.2589  0.0632 -0.0168
  112OSM    H2F11664   0.693   4.415  10.688 -0.8418 -1.4416  0.2801
  112OSM    H2G11665   0.602   4.493  10.548  2.4591  1.4661 -1.7454
  112OSM    C3F11666   0.779   4.386  10.480 -0.0884 -0.5779 -0.1541
  112OSM    H3F11667   0.866   4.331  10.521 -0.6607 -0.6188  1.0579
  112OSM    H3G11668   0.819   4.489  10.470  2.7629 -1.3679  1.8979
  112OSM    C4F11669   0.739   4.320  10.353 -0.4646  0.3318  0.4800
  112OSM    H4F11670   0.644   4.357  10.312 -0.2448  0.9758  0.5394
  112OSM    H4G11671   0.720   4.211  10.365 -2.1963  0.2659 -2.2342
  112OSM    C5F11672   0.852   4.330  10.246  0.7516  0.0242  0.7846
  112OSM    H5F11673   0.940   4.275  10.284 -1.1589 -2.7126  1.5484
  112OSM    H5G11674   0.874   4.438  10.231  1.4430 -0.2507 -0.3226
  112OSM    C6F11675   0.812   4.279  10.110  0.3225  0.5866 -0.1163
  112OSM    H6F11676   0.880   4.312  10.029  2.0670  0.0877  1.0921
  112OSM    H6G11677   0.709   4.318  10.098 -0.4675 -1.1289  0.7408
  112OSM    C7F11678   0.814   4.124  10.103 -0.2219  0.1492  0.1526
  112OSM    H7F11679   0.743   4.089  10.180 -2.4586  1.0312 -1.4076
  112OSM    H7G11680   0.915   4.086  10.130  0.3110 -0.1092 -2.0030
  112OSM    C8F11681   0.757   4.067   9.973 -0.3232 -0.0149  0.7306
  112OSM    H8F11682   0.658   4.115   9.962  0.9866  3.7779  3.4744
  112OSM    H8G11683   0.739   3.957   9.982 -3.0040  0.3699  0.8725
  112OSM    C9F11684   0.840   4.084   9.847 -0.5458  0.1349 -0.3241
  112OSM    H9F11685   0.941   4.041   9.839 -0.0116  1.5284 -1.5032
  112OSM   C10F11686   0.807   4.172   9.747  0.2049  0.5967  0.8005
  112OSM   H10F11687   0.869   4.190   9.658 -0.6866  0.5710  0.1590
  112OSM   C11F11688   0.687   4.265   9.738  0.5438 -0.2252  0.0992
  112OSM   H11F11689   0.718   4.364   9.777  1.7349 -0.5886  0.1078
  112OSM   H11G11690   0.596   4.235   9.793  0.9206 -0.8390  0.3950
  112OSM   C12F11691   0.659   4.294   9.589 -0.0669 -0.2052  0.5145
  112OSM   H12F11692   0.640   4.204   9.526  1.0871 -3.6643  4.5982
  112OSM   H12G11693   0.740   4.346   9.535 -0.0243 -0.1122  0.6696
  112OSM   C13F11694   0.539   4.390   9.581 -0.1689  0.0304 -0.3389
  112OSM   H13F11695   0.563   4.484   9.634 -0.4418 -0.3989  0.5784
  112OSM   H13G11696   0.450   4.353   9.636 -1.3426  1.4825 -1.1875
  112OSM   C14F11697   0.485   4.402   9.441 -0.0112 -0.6675  1.1692
  112OSM   H14F11698   0.389   4.456   9.429 -0.4508 -1.8794 -1.4141
  112OSM   H14G11699   0.458   4.298   9.412 -0.5018 -0.0864 -0.5285
  112OSM   C15F11700   0.585   4.468   9.337  0.2374  0.5328  0.1336
  112OSM   H15F11701   0.664   4.395   9.311 -0.0800 -0.0644  0.8310
  112OSM   H15G11702   0.639   4.554   9.383  0.4333  1.6368 -2.0308
  112OSM   C16F11703   0.515   4.515   9.207 -0.0620 -0.1065  0.4616
  112OSM   H16F11704   0.431   4.581   9.237  1.0020  1.5866 -0.1769
  112OSM   H16G11705   0.476   4.426   9.153 -2.9245  1.9829 -1.1904
  112OSM   C17F11706   0.614   4.582   9.113  0.7540  0.1194  0.1483
  112OSM   H17F11707   0.686   4.503   9.083 -0.3930 -1.1647  0.6235
  112OSM   H17G11708   0.661   4.671   9.160 -0.1256  1.7112 -1.8747
  112OSM   C18F11709   0.557   4.621   8.974  0.3795  0.2057 -0.0812
  112OSM   H18F11710   0.631   4.660   8.900  0.8759 -0.4964  0.0472
  112OSM   H18G11711   0.473   4.694   8.976  1.3824  1.4641 -1.2960
  112OSM   H18H11712   0.512   4.529   8.931  2.7597 -0.5692 -1.0511
  113OSM      N11713   4.868   1.594  10.851  0.1166  0.1444  0.4458
  113OSM    C1511714   4.720   1.615  10.873 -0.0750  0.1073 -0.6629
  113OSM   H15A11715   4.665   1.592  10.782 -1.1481 -0.5485  0.1256
  113OSM   H15B11716   4.692   1.715  10.903  0.3051  0.6039 -1.8941
  113OSM   H15C11717   4.680   1.549  10.949 -1.2449  1.1526 -0.3374
  113OSM    C1411718   4.940   1.603  10.979  0.1886  0.0848  0.4933
  113OSM   H14A11719   5.041   1.567  10.971  0.1716  0.2398 -0.4704
  113OSM   H14B11720   4.898   1.546  11.061  0.7968 -1.1484 -0.0336
  113OSM   H14C11721   4.944   1.709  11.004 -0.2655 -0.0683  1.2801
  113OSM    C1311722   4.861   1.448  10.810  0.1808  1.1086 -0.1869
  113OSM   H13A11723   4.820   1.433  10.711  0.0258  0.3608 -0.0187
  113OSM   H13B11724   4.795   1.403  10.883 -0.8768  1.4013 -0.9377
  113OSM   H13C11725   4.961   1.408  10.821  0.4107  1.5885 -0.5082
  113OSM    C1211726   4.929   1.686  10.735  0.1065 -0.7709 -0.3623
  113OSM   H12A11727   4.932   1.785  10.777 -0.8703 -0.1092 -1.7396
  113OSM   H12B11728   4.861   1.689  10.650 -0.0076  0.6846 -0.2447
  113OSM    C1111729   5.068   1.658  10.691 -0.0327 -0.4327  0.5239
  113OSM   H11A11730   5.086   1.715  10.597 -1.6133  0.3391  0.6584
  113OSM   H11B11731   5.088   1.551  10.670  0.8691 -0.2013  0.1423
  113OSM      P11732   5.201   1.845  10.824  0.2803  0.3043 -0.0837
  113OSM    O1311733   5.082   1.923  10.864 -0.0822  0.2212  0.4071
  113OSM    O1411734   5.322   1.846  10.906 -0.4184  0.4673  0.1758
  113OSM    O1111735   5.233   1.911  10.683  0.1382  0.3536  0.4194
  113OSM    O1211736   5.156   1.697  10.788 -0.1657  0.1051  0.0581
  113OSM    C1S11737   5.352   1.878  10.606  0.0143  0.3089  0.5565
  113OSM    H1S11738   5.340   1.781  10.553 -0.2418  0.6035  0.0663
  113OSM    H1T11739   5.435   1.857  10.676  0.1965 -3.0866 -0.5045
  113OSM     NF11740   5.468   1.917  10.396  0.4784  0.2684  0.1013
  113OSM    HNF11741   5.556   1.963  10.399  0.1577  1.0245 -1.2217
  113OSM    C2S11742   5.366   1.974  10.483 -0.2874 -0.4044 -0.0555
  113OSM    H2S11743   5.276   1.971  10.417  0.3247 -0.3401 -0.8976
  113OSM    C3S11744   5.393   2.112  10.536 -0.2230  0.0839  0.5360
  113OSM    H3S11745   5.493   2.113  10.584  1.4880  1.4440 -2.7166
  113OSM     O311746   5.294   2.167  10.614  0.6905 -0.1524 -0.4074
  113OSM    HO311747   5.245   2.096  10.657  0.1014  2.1403  3.1511
  113OSM    C4S11748   5.410   2.200  10.415 -0.1771 -0.8888  0.6418
  113OSM    H4S11749   5.515   2.224  10.391  0.0911 -1.8036  0.8552
  113OSM    C5S11750   5.330   2.255  10.333 -0.2287 -0.5513 -0.1093
  113OSM    H5S11751   5.222   2.239  10.347  0.1227 -3.4092 -0.1891
  113OSM    C6S11752   5.380   2.351  10.226  0.7952  1.1436 -0.4562
  113OSM    H6S11753   5.475   2.403  10.251  2.2584 -1.4481 -0.3009
  113OSM    H6T11754   5.303   2.431  10.215 -1.3670 -0.5963  1.1360
  113OSM    C7S11755   5.399   2.285  10.086 -0.0808  0.4161 -0.9027
  113OSM    H7S11756   5.301   2.247  10.054 -0.6318  1.0360 -0.0237
  113OSM    H7T11757   5.461   2.195  10.102 -2.2437 -1.2198 -1.3319
  113OSM    C8S11758   5.462   2.373   9.980  0.5765 -0.4032  0.0451
  113OSM    H8S11759   5.565   2.400  10.012  0.3192 -1.2940  1.7413
  113OSM    H8T11760   5.416   2.475   9.989 -0.0385 -0.6754  0.0762
  113OSM    C9S11761   5.464   2.306   9.849  0.3033  0.4441 -0.0118
  113OSM    H9S11762   5.479   2.196   9.859  4.7563  0.5262 -2.9653
  113OSM    H9T11763   5.550   2.350   9.793 -0.2479 -0.3529 -1.5665
  113OSM   C10S11764   5.340   2.332   9.764 -0.7814 -0.6626 -0.5006
  113OSM   H10S11765   5.331   2.442   9.748 -0.7072 -0.4502  0.8007
  113OSM   H10T11766   5.249   2.292   9.814 -0.9693  0.2920 -0.0549
  113OSM   C11S11767   5.343   2.247   9.636 -0.4965  0.7507 -0.7390
  113OSM   H11S11768   5.242   2.237   9.590  0.0028 -1.9398 -1.3913
  113OSM   H11T11769   5.375   2.142   9.652  0.2810  1.2260  1.1118
  113OSM   C12S11770   5.430   2.290   9.524 -0.1238  0.3158  0.0141
  113OSM   H12S11771   5.536   2.281   9.555 -0.0605  0.2290 -0.2288
  113OSM   H12T11772   5.396   2.394   9.503 -0.9627 -0.0374 -0.4121
  113OSM   C13S11773   5.415   2.213   9.393  0.1846 -0.1075 -0.3703
  113OSM   H13S11774   5.440   2.109   9.424 -0.0472 -0.4119 -1.1738
  113OSM   H13T11775   5.498   2.237   9.324 -0.2571 -0.7227 -1.1253
  113OSM   C14S11776   5.278   2.216   9.329 -0.0817  0.2523  0.3826
  113OSM   H14S11777   5.253   2.323   9.312 -0.8166  0.3039  1.6782
  113OSM   H14T11778   5.194   2.172   9.387  0.1949 -1.5273 -0.4759
  113OSM   C15S11779   5.282   2.143   9.193  0.4247  0.0792 -0.0372
  113OSM   H15S11780   5.184   2.105   9.156  1.3936  0.9036 -3.8541
  113OSM   H15T11781   5.346   2.054   9.211  0.5456  0.3504  0.8917
  113OSM   C16S11782   5.337   2.242   9.097 -0.0058  1.0227  0.0409
  113OSM   H16S11783   5.446   2.262   9.114  0.5127 -2.1963  1.1657
  113OSM   H16T11784   5.284   2.340   9.104  2.3959  2.7159 -2.9870
  113OSM   C17S11785   5.331   2.198   8.948 -0.0422  0.0317 -0.3717
  113OSM   H17S11786   5.229   2.161   8.925 -0.1207 -0.4306  0.6473
  113OSM   H17T11787   5.381   2.099   8.943  0.1591  0.1267 -0.2651
  113OSM   C18S11788   5.372   2.310   8.852 -0.1005 -0.6556 -0.4697
  113OSM   H18S11789   5.472   2.349   8.879 -0.1474  0.6856 -2.0959
  113OSM   H18T11790   5.294   2.389   8.852  0.7298  0.1826 -1.3135
  113OSM   H18U11791   5.379   2.275   8.746 -0.5763 -0.0401 -0.7107
  113OSM    C1F11792   5.445   1.813  10.310  0.4239  0.1379 -0.0994
  113OSM     OF11793   5.334   1.767  10.281  0.3069 -0.0421 -0.0775
  113OSM    C2F11794   5.570   1.776  10.240  0.2781 -0.4955 -0.0904
  113OSM    H2F11795   5.618   1.702  10.308 -0.5567 -0.0225  1.0346
  113OSM    H2G11796   5.636   1.865  10.233 -0.0414 -0.3060 -0.7758
  113OSM    C3F11797   5.532   1.710  10.104  0.3421 -0.3407 -0.1603
  113OSM    H3F11798   5.498   1.786  10.030  0.9287 -0.0609 -0.1493
  113OSM    H3G11799   5.456   1.631  10.122 -0.8898  0.9260  0.4895
  113OSM    C4F11800   5.658   1.642  10.034  0.0038  0.6590 -0.5172
  113OSM    H4F11801   5.681   1.552  10.096  0.0067  1.6622  0.9755
  113OSM    H4G11802   5.747   1.707  10.046  0.0509  0.2259  2.0494
  113OSM    C5F11803   5.642   1.617   9.888 -0.1997  0.1800  0.6621
  113OSM    H5F11804   5.536   1.592   9.865 -0.0472 -0.5352  0.7139
  113OSM    H5G11805   5.701   1.527   9.861 -0.1694  0.1025  0.9915
  113OSM    C6F11806   5.685   1.729   9.783 -0.2245 -0.3783 -0.2014
  113OSM    H6F11807   5.775   1.769   9.835 -0.5730 -0.4373  0.4617
  113OSM    H6G11808   5.607   1.808   9.780  1.2879  1.1817  0.2846
  113OSM    C7F11809   5.715   1.661   9.652  0.0606  0.1530  0.8168
  113OSM    H7F11810   5.636   1.590   9.620  0.2781  0.8278 -1.3193
  113OSM    H7G11811   5.809   1.606   9.674  0.8067  1.9543  2.4340
  113OSM    C8F11812   5.759   1.765   9.548 -0.4526  0.3005  0.2036
  113OSM    H8F11813   5.815   1.716   9.466  0.8097 -0.0391  1.2330
  113OSM    H8G11814   5.833   1.837   9.589  0.7040 -1.0468  0.5552
  113OSM    C9F11815   5.642   1.843   9.508  0.2179 -0.3729  0.6770
  113OSM    H9F11816   5.626   1.938   9.560 -0.6258  0.0416 -0.3172
  113OSM   C10F11817   5.552   1.816   9.409 -0.0062  0.2667  0.0893
  113OSM   H10F11818   5.461   1.873   9.387  0.9583  2.1850  0.8670
  113OSM   C11F11819   5.569   1.693   9.315  0.4702  0.3248 -0.0446
  113OSM   H11F11820   5.477   1.631   9.313  0.9873 -0.4454 -1.2183
  113OSM   H11G11821   5.646   1.622   9.352 -1.6114 -1.1958  1.6633
  113OSM   C12F11822   5.593   1.738   9.170  0.7127 -0.1783  0.5346
  113OSM   H12F11823   5.519   1.818   9.147  1.2826  0.7710  1.8744
  113OSM   H12G11824   5.576   1.649   9.106 -1.8090 -1.3113  2.5977
  113OSM   C13F11825   5.727   1.811   9.151 -0.2425 -0.1004 -0.6401
  113OSM   H13F11826   5.796   1.738   9.197 -0.2373 -1.1913 -2.2705
  113OSM   H13G11827   5.742   1.908   9.201  1.1357  0.0302 -1.2497
  113OSM   C14F11828   5.761   1.834   9.010 -0.0491 -0.4617  0.0100
  113OSM   H14F11829   5.780   1.735   8.963 -1.1615 -0.3222 -0.7963
  113OSM   H14G11830   5.857   1.889   9.006  1.2574 -2.6263  0.4178
  113OSM   C15F11831   5.667   1.911   8.918  0.4009 -0.5983  0.2222
  113OSM   H15F11832   5.615   1.995   8.968 -0.3063 -0.1658 -1.1942
  113OSM   H15G11833   5.579   1.843   8.914 -0.7003  0.8354 -0.7128
  113OSM   C16F11834   5.733   1.951   8.785  0.3624  0.0405  0.6463
  113OSM   H16F11835   5.791   1.863   8.752 -1.2057 -0.7354 -0.1898
  113OSM   H16G11836   5.808   2.031   8.804  2.0754 -1.5982  1.0107
  113OSM   C17F11837   5.637   1.996   8.676  0.2894 -0.3011 -0.3335
  113OSM   H17F11838   5.690   2.009   8.579  0.1116 -0.4909 -0.4559
  113OSM   H17G11839   5.595   2.095   8.702  0.6466 -0.5685  1.4015
  113OSM   C18F11840   5.513   1.904   8.660 -0.7823  0.2663 -0.0489
  113OSM   H18F11841   5.528   1.795   8.672 -1.0621  0.3090  0.7372
  113OSM   H18G11842   5.464   1.914   8.561  2.4556  2.4333 -1.6374
  113OSM   H18H11843   5.436   1.923   8.738 -1.2922  2.7264 -1.0632
  114OSM      N11844   1.371   4.172  11.322 -0.5493 -0.3746 -0.1013
  114OSM    C1511845   1.341   4.026  11.297 -0.5480 -0.0446 -0.1240
  114OSM   H15A11846   1.359   4.001  11.194  1.5318  1.0295 -0.0787
  114OSM   H15B11847   1.241   3.993  11.324  0.0439 -3.6866 -1.7490
  114OSM   H15C11848   1.404   3.962  11.357 -0.5794  0.1099  0.0743
  114OSM    C1411849   1.258   4.251  11.264 -0.5943 -0.0819  0.6698
  114OSM   H14A11850   1.269   4.358  11.270  1.2482 -0.2530  0.8942
  114OSM   H14B11851   1.161   4.210  11.290 -1.3097 -0.5992 -2.3831
  114OSM   H14C11852   1.260   4.233  11.157  2.1208 -2.4687  1.0238
  114OSM    C1311853   1.364   4.200  11.471 -0.3141  0.0829  0.2260
  114OSM   H13A11854   1.263   4.178  11.500 -0.5097 -0.8443 -1.0933
  114OSM   H13B11855   1.391   4.303  11.489  2.5704 -0.4583 -0.5897
  114OSM   H13C11856   1.428   4.128  11.519  1.3573  1.4719  0.1779
  114OSM    C1211857   1.504   4.212  11.270  0.7445  0.4188 -0.3972
  114OSM   H12A11858   1.574   4.160  11.334  0.1620  0.1261  0.0133
  114OSM   H12B11859   1.524   4.315  11.297 -3.4898  0.6402  2.8896
  114OSM    C1111860   1.537   4.190  11.119 -0.6727  0.1311 -0.0078
  114OSM   H11A11861   1.631   4.246  11.100 -1.1173  2.3503  3.2786
  114OSM   H11B11862   1.452   4.239  11.067 -1.0156 -1.1368 -0.6843
  114OSM      P11863   1.668   3.978  11.030  0.0443 -0.0144  0.1055
  114OSM    O1311864   1.794   4.003  11.102 -0.2017  0.1297  0.2372
  114OSM    O1411865   1.625   3.836  11.021 -0.0852  0.3313 -0.1171
  114OSM    O1111866   1.672   4.046  10.883  0.1267  0.2694 -0.2561
  114OSM    O1211867   1.551   4.050  11.105  0.5500 -0.0849  0.6006
  114OSM    C1S11868   1.763   4.143  10.840 -0.8463 -0.1764  1.0164
  114OSM    H1S11869   1.869   4.111  10.850 -0.0326  2.3814  1.0818
  114OSM    H1T11870   1.756   4.237  10.898  0.7520  1.5804 -1.4635
  114OSM     NF11871   1.823   4.286  10.649  0.2735 -0.5833  0.1282
  114OSM    HNF11872   1.770   4.358  10.605  0.9296 -0.8783 -1.1810
  114OSM    C2S11873   1.743   4.173  10.687  0.2155  0.2326 -0.4843
  114OSM    H2S11874   1.783   4.083  10.635 -1.7047  0.5864 -2.7507
  114OSM    C3S11875   1.591   4.183  10.648 -0.2700  0.7481 -0.5714
  114OSM    H3S11876   1.534   4.268  10.690  0.0520  0.2450  0.9330
  114OSM     O311877   1.510   4.077  10.694  0.0259  0.0169 -0.3621
  114OSM    HO311878   1.570   4.040  10.759  1.7257  1.4934 -1.0053
  114OSM    C4S11879   1.579   4.182  10.502  0.0597 -0.1601  0.2399
  114OSM    H4S11880   1.625   4.099  10.448  0.7857  1.0215 -1.0448
  114OSM    C5S11881   1.523   4.289  10.434  0.5309  0.3327 -0.3470
  114OSM    H5S11882   1.501   4.379  10.494 -1.0396  0.0193 -0.4167
  114OSM    C6S11883   1.503   4.299  10.290 -0.7654 -0.4678  0.1512
  114OSM    H6S11884   1.526   4.405  10.265 -1.5228 -0.0203  1.2562
  114OSM    H6T11885   1.394   4.288  10.270 -0.4371 -2.9003 -0.5930
  114OSM    C7S11886   1.565   4.195  10.190  0.2720  0.1340  0.0061
  114OSM    H7S11887   1.530   4.099  10.235  0.9816  0.3700  1.0994
  114OSM    H7T11888   1.675   4.196  10.203  0.3318 -0.6030 -0.3724
  114OSM    C8S11889   1.512   4.210  10.048 -0.2743 -0.0649 -0.2793
  114OSM    H8S11890   1.543   4.311  10.015 -0.2543  0.1227  0.3070
  114OSM    H8T11891   1.401   4.200  10.044 -0.1162 -2.8417 -0.0008
  114OSM    C9S11892   1.566   4.106   9.952  0.0193  0.0947 -0.5178
  114OSM    H9S11893   1.555   4.015  10.015 -2.1762 -0.1255 -1.1463
  114OSM    H9T11894   1.672   4.126   9.925 -0.1209 -0.4987 -1.5298
  114OSM   C10S11895   1.482   4.093   9.826 -0.6374 -0.3156 -0.2893
  114OSM   H10S11896   1.373   4.086   9.849  0.0356 -0.1823  3.6122
  114OSM   H10T11897   1.528   4.011   9.767  1.2203 -0.2041  0.9365
  114OSM   C11S11898   1.507   4.214   9.738  0.1038  0.0003  0.8139
  114OSM   H11S11899   1.610   4.251   9.720  0.1944 -1.4257 -2.2524
  114OSM   H11T11900   1.444   4.298   9.775  0.0570  1.6737 -2.6446
  114OSM   C12S11901   1.462   4.182   9.590 -0.3082  0.8876 -0.0513
  114OSM   H12S11902   1.515   4.094   9.547 -0.1039  1.6145 -1.3448
  114OSM   H12T11903   1.486   4.275   9.533 -1.5936  2.0527  1.2346
  114OSM   C13S11904   1.312   4.165   9.576  0.3964 -0.3914  0.8569
  114OSM   H13S11905   1.259   4.192   9.670  2.4991  0.2131  1.9297
  114OSM   H13T11906   1.297   4.056   9.562  0.9380 -0.1923 -1.8644
  114OSM   C14S11907   1.249   4.229   9.449  1.2040  0.0863  0.1634
  114OSM   H14S11908   1.320   4.220   9.363 -0.5939  1.7767 -1.5976
  114OSM   H14T11909   1.246   4.338   9.473  0.5887  0.9862 -3.4146
  114OSM   C15S11910   1.107   4.173   9.419  0.4617 -1.1054 -0.1581
  114OSM   H15S11911   1.044   4.198   9.508  2.4799  0.2708  0.9699
  114OSM   H15T11912   1.113   4.065   9.395  1.3058 -1.1186  0.0936
  114OSM   C16S11913   1.050   4.225   9.283 -0.3438  0.2530  0.3584
  114OSM   H16S11914   0.973   4.158   9.239 -0.3869  1.1111 -0.9323
  114OSM   H16T11915   1.141   4.218   9.220 -0.1774 -1.6934  0.7434
  114OSM   C17S11916   0.988   4.366   9.289  0.0541  0.4022  0.3065
  114OSM   H17S11917   1.070   4.427   9.331  0.3126  0.3964 -0.1829
  114OSM   H17T11918   0.896   4.376   9.350 -1.3577  1.5985 -1.9097
  114OSM   C18S11919   0.953   4.427   9.150 -0.1808 -0.0768  0.2578
  114OSM   H18S11920   1.040   4.413   9.082 -1.9403 -0.3986 -2.0626
  114OSM   H18T11921   0.922   4.534   9.145 -0.2735 -0.1324 -0.3908
  114OSM   H18U11922   0.864   4.379   9.104 -0.4080  0.9800 -0.4302
  114OSM    C1F11923   1.952   4.302  10.655  0.9978  0.1692 -0.5587
  114OSM     OF11924   2.030   4.213  10.694  0.1275  0.4893  0.1004
  114OSM    C2F11925   2.007   4.442  10.614  0.6929  0.2138  0.3059
  114OSM    H2F11926   2.058   4.493  10.699  2.1131 -0.2012 -0.2611
  114OSM    H2G11927   1.923   4.509  10.585 -0.7899 -2.6193 -2.5852
  114OSM    C3F11928   2.096   4.434  10.492  0.2317 -0.2628 -0.9189
  114OSM    H3F11929   2.193   4.383  10.509  0.1456 -0.6009 -1.4054
  114OSM    H3G11930   2.114   4.540  10.465  0.8451 -0.5011 -1.4981
  114OSM    C4F11931   2.038   4.364  10.369  0.6993 -0.0571 -0.0091
  114OSM    H4F11932   2.020   4.257  10.391 -1.7580  0.3401  0.1767
  114OSM    H4G11933   2.117   4.382  10.293 -0.4543  0.9444 -1.0215
  114OSM    C5F11934   1.915   4.428  10.316  0.2205  0.3731 -0.1851
  114OSM    H5F11935   1.913   4.539  10.325  0.2555  0.3461  0.1519
  114OSM    H5G11936   1.839   4.391  10.387  0.9388  1.7022  1.3470
  114OSM    C6F11937   1.887   4.390  10.173 -0.3914  0.4905 -0.0553
  114OSM    H6F11938   1.778   4.398  10.154 -0.1197  0.5250 -1.7621
  114OSM    H6G11939   1.897   4.280  10.172  0.8102  0.5309  1.9030
  114OSM    C7F11940   1.972   4.473  10.081 -0.0021  0.1724 -0.4940
  114OSM    H7F11941   2.080   4.455  10.102 -0.0593  1.4277  1.0846
  114OSM    H7G11942   1.955   4.580  10.104 -1.2949 -0.1850  0.3299
  114OSM    C8F11943   1.944   4.438   9.932  0.0545 -0.6475 -0.0090
  114OSM    H8F11944   1.996   4.526   9.888  1.6104 -1.2577  0.5157
  114OSM    H8G11945   1.838   4.465   9.918  0.4207  0.5585 -0.5960
  114OSM    C9F11946   1.990   4.302   9.876  0.0274 -0.2464 -0.5029
  114OSM    H9F11947   2.019   4.226   9.950  0.3925  0.5407  0.1814
  114OSM   C10F11948   2.004   4.282   9.745 -0.6152 -0.0456  0.3094
  114OSM   H10F11949   2.016   4.176   9.717 -3.9526 -0.2728 -0.7656
  114OSM   C11F11950   1.971   4.381   9.639  0.6406 -0.5332  0.7935
  114OSM   H11F11951   2.056   4.440   9.598 -0.6143  0.1561 -0.9586
  114OSM   H11G11952   1.888   4.451   9.661  0.3654 -0.3110 -0.7789
  114OSM   C12F11953   1.936   4.303   9.513 -0.0282 -0.2829 -0.7344
  114OSM   H12F11954   1.888   4.376   9.444 -1.3971 -1.0296 -0.6065
  114OSM   H12G11955   1.861   4.223   9.526 -2.0500  1.3693 -1.6631
  114OSM   C13F11956   2.061   4.236   9.445  0.1696 -0.0620  0.6058
  114OSM   H13F11957   2.067   4.130   9.479 -0.0780 -0.1875  0.2578
  114OSM   H13G11958   2.151   4.292   9.477 -0.4602  0.3636  1.6931
  114OSM   C14F11959   2.044   4.233   9.287  0.4239 -0.0303 -0.0091
  114OSM   H14F11960   1.951   4.174   9.271  0.3349 -0.1081  0.7715
  114OSM   H14G11961   2.134   4.177   9.254  0.9190 -0.4419  1.9453
  114OSM   C15F11962   2.029   4.371   9.217  0.2032  0.0410  0.1213
  114OSM   H15F11963   2.117   4.430   9.252 -1.2682  0.7174  2.9392
  114OSM   H15G11964   1.941   4.431   9.247  2.3424  3.4698  0.1489
  114OSM   C16F11965   2.027   4.363   9.060  0.2819  0.3013 -0.7177
  114OSM   H16F11966   1.937   4.315   9.015  1.2845 -1.6352 -0.7460
  114OSM   H16G11967   2.121   4.308   9.039  2.0408  2.8490  0.0236
  114OSM   C17F11968   2.047   4.503   8.996  0.5252  0.0611  0.2532
  114OSM   H17F11969   2.143   4.547   9.031 -0.1121  1.2124  0.6029
  114OSM   H17G11970   1.967   4.572   9.028  1.2822  1.0340  0.0952
  114OSM   C18F11971   2.042   4.502   8.840 -0.5333 -0.4666  0.8344
  114OSM   H18F11972   2.082   4.594   8.793 -0.2965 -1.2801 -0.5989
  114OSM   H18G11973   1.937   4.495   8.806  0.5427  0.1578 -3.0246
  114OSM   H18H11974   2.088   4.409   8.799 -1.5087 -0.6582  0.1345
  115OSM      N11975   3.149   5.244  11.141  0.2583  0.1896  0.1436
  115OSM    C1511976   3.256   5.202  11.239  0.2680  0.2874 -0.4834
  115OSM   H15A11977   3.351   5.239  11.204  0.5947  1.7124  1.6912
  115OSM   H15B11978   3.262   5.094  11.238  1.3807  0.3052  1.1778
  115OSM   H15C11979   3.249   5.258  11.331  0.3650  0.2582 -0.4583
  115OSM    C1411980   3.028   5.209  11.212 -0.0014 -0.0422  0.0386
  115OSM   H14A11981   2.937   5.251  11.172  0.1482  0.9224  0.6652
  115OSM   H14B11982   3.035   5.255  11.310 -0.7129  0.9915 -0.3858
  115OSM   H14C11983   3.011   5.102  11.219 -1.0929 -0.0100 -1.8037
  115OSM    C1311984   3.149   5.390  11.115  0.0646 -0.6304  0.9303
  115OSM   H13A11985   3.229   5.424  11.051 -1.3980 -2.7257 -2.2946
  115OSM   H13B11986   3.156   5.441  11.210 -0.6045  0.8382  0.2246
  115OSM   H13C11987   3.064   5.426  11.058  1.0843 -0.4409 -0.5242
  115OSM    C1211988   3.160   5.162  11.017  0.3072  0.0590 -0.0549
  115OSM   H12A11989   3.246   5.186  10.956 -1.7180 -0.4579 -3.3552
  115OSM   H12B11990   3.081   5.190  10.950 -0.7162 -2.0910  0.1846
  115OSM    C1111991   3.165   5.007  11.036  0.1928  0.3167 -0.0463
  115OSM   H11A11992   3.138   4.955  10.941 -0.5510 -1.3133  1.0268
  115OSM   H11B11993   3.077   4.979  11.098  1.2768 -0.1971  1.2999
  115OSM      P11994   3.415   4.962  10.999  0.0531  0.1878  0.1361
  115OSM    O1311995   3.494   5.087  11.032 -0.0739  0.0973  0.5429
  115OSM    O1411996   3.484   4.835  11.017  0.2686  0.2916 -0.3497
  115OSM    O1111997   3.368   4.982  10.847  0.3943 -0.4900  0.1636
  115OSM    O1211998   3.284   4.960  11.087 -0.3555 -0.2098  0.0476
  115OSM    C1S11999   3.472   4.984  10.749 -0.1919  0.0066  0.2305
  115OSM    H1S12000   3.544   4.899  10.759  0.2671  0.2030 -1.1862
  115OSM    H1T12001   3.528   5.080  10.750 -1.8070  0.9839  0.0188
  115OSM     NF12002   3.511   4.932  10.508  0.4428 -0.4915 -0.5074
  115OSM    HNF12003   3.571   4.999  10.465  0.2085  0.5128  0.6975
  115OSM    C2S12004   3.405   4.974  10.607 -0.2894 -0.2333 -0.1501
  115OSM    H2S12005   3.328   4.895  10.620  0.2965 -0.7414  0.2896
  115OSM    C3S12006   3.333   5.105  10.575  0.3397  0.5122 -0.2002
  115OSM    H3S12007   3.406   5.184  10.547 -1.2874  1.2891 -2.5064
  115OSM     O312008   3.266   5.167  10.690 -0.0122  0.2403 -0.0483
  115OSM    HO312009   3.288   5.105  10.760  0.5863  1.2107  0.6499
  115OSM    C4S12010   3.247   5.091  10.455 -0.3761 -0.6251 -0.0109
  115OSM    H4S12011   3.293   5.137  10.367  0.7992  0.5820  1.1800
  115OSM    C5S12012   3.123   5.038  10.448 -0.0208 -0.1161  0.2955
  115OSM    H5S12013   3.078   4.999  10.541  1.2080  0.5020  1.1760
  115OSM    C6S12014   3.044   5.029  10.322  0.2139 -0.5137  0.0675
  115OSM    H6S12015   2.966   5.108  10.323  0.4304 -0.1831 -2.6036
  115OSM    H6T12016   2.989   4.933  10.321  2.0863 -1.6571  0.4316
  115OSM    C7S12017   3.114   5.030  10.185  0.5636 -0.3064 -0.2594
  115OSM    H7S12018   3.192   4.951  10.179  0.9026  0.1409 -2.4620
  115OSM    H7T12019   3.161   5.130  10.174 -1.3443  0.5972 -0.6015
  115OSM    C8S12020   3.018   5.005  10.070 -0.2630  1.0380  0.2624
  115OSM    H8S12021   2.941   5.085  10.074 -0.7078  0.6003  3.8657
  115OSM    H8T12022   2.971   4.907  10.092  0.3252  0.7255  0.1300
  115OSM    C9S12023   3.079   5.000   9.932 -0.0456  0.5842 -0.9688
  115OSM    H9S12024   3.172   4.939   9.942 -0.6879 -0.3003 -0.1093
  115OSM    H9T12025   3.119   5.102   9.914 -0.0221  0.7063 -0.2669
  115OSM   C10S12026   2.986   4.965   9.821 -0.2564  0.0021  0.0961
  115OSM   H10S12027   2.916   5.049   9.802 -1.8975 -1.3752 -0.2453
  115OSM   H10T12028   2.915   4.884   9.849 -0.9919  0.4661 -0.3840
  115OSM   C11S12029   3.056   4.948   9.684  0.4625  0.0421 -0.7021
  115OSM   H11S12030   3.097   4.845   9.676 -0.3662 -0.3970  0.3816
  115OSM   H11T12031   3.140   5.019   9.665 -1.6048  2.6327 -0.6626
  115OSM   C12S12032   2.964   4.968   9.568  0.1582 -0.3795  0.6907
  115OSM   H12S12033   2.927   5.073   9.572 -2.1017 -1.0506 -0.6602
  115OSM   H12T12034   2.872   4.907   9.574 -0.7363  0.9368  0.7261
  115OSM   C13S12035   3.052   4.960   9.437  0.1642 -0.5472 -0.2835
  115OSM   H13S12036   3.130   4.882   9.439  1.7437  0.9776  1.5711
  115OSM   H13T12037   3.106   5.057   9.430 -2.6064  1.2567  1.2744
  115OSM   C14S12038   2.963   4.931   9.318  0.1929  0.6402  0.3283
  115OSM   H14S12039   2.892   5.017   9.314 -1.6312 -0.6803  2.3872
  115OSM   H14T12040   2.926   4.827   9.322 -1.5711  1.2115 -0.2303
  115OSM   C15S12041   3.035   4.923   9.176  0.6475 -0.5776  0.3589
  115OSM   H15S12042   3.036   5.028   9.138  0.1768 -0.8345 -0.3709
  115OSM   H15T12043   2.972   4.865   9.106  0.1772 -0.9212  1.0549
  115OSM   C16S12044   3.172   4.860   9.163 -0.3374  0.6669  0.2002
  115OSM   H16S12045   3.170   4.758   9.207  2.2527  0.7796  0.7264
  115OSM   H16T12046   3.246   4.918   9.223 -0.6562 -0.4291  1.7197
  115OSM   C17S12047   3.228   4.836   9.022  0.8038 -0.4755  0.7439
  115OSM   H17S12048   3.176   4.748   8.979  0.4883  0.0175  0.1090
  115OSM   H17T12049   3.337   4.816   9.022  0.6895 -1.1877  1.6011
  115OSM   C18S12050   3.216   4.963   8.934  0.3851 -0.0282  0.0212
  115OSM   H18S12051   3.242   4.922   8.834 -0.3034 -2.4635  0.7623
  115OSM   H18T12052   3.298   5.031   8.966  0.9015 -0.5943 -0.0541
  115OSM   H18U12053   3.112   4.999   8.939  0.6903  1.6587 -2.9679
  115OSM    C1F12054   3.536   4.799  10.499 -0.9551  0.0784 -0.1810
  115OSM     OF12055   3.498   4.719  10.582 -0.5895 -0.6092  0.2770
  115OSM    C2F12056   3.612   4.762  10.377 -0.3610  0.4594 -0.6741
  115OSM    H2F12057   3.701   4.826  10.360  0.4653 -0.1854  1.0981
  115OSM    H2G12058   3.532   4.766  10.299 -0.0569  1.1156 -0.9700
  115OSM    C3F12059   3.669   4.614  10.384 -0.5890 -0.6945  0.4017
  115OSM    H3F12060   3.597   4.546  10.434 -1.0796  1.0502  2.1846
  115OSM    H3G12061   3.754   4.600  10.454 -0.1095  2.5861  0.6440
  115OSM    C4F12062   3.704   4.552  10.249 -0.2210  0.0373  0.2256
  115OSM    H4F12063   3.605   4.537  10.200 -0.5810 -1.5103  1.3633
  115OSM    H4G12064   3.746   4.454  10.277 -1.0496 -0.3837  0.0101
  115OSM    C5F12065   3.800   4.638  10.173  0.2815  0.3879  0.0202
  115OSM    H5F12066   3.880   4.673  10.241  2.3515 -1.7155 -1.2131
  115OSM    H5G12067   3.749   4.729  10.135  1.5190  0.6266 -1.1292
  115OSM    C6F12068   3.874   4.555  10.061  0.5226  0.4682  0.4439
  115OSM    H6F12069   3.908   4.459  10.106  2.8778 -0.6150 -3.1620
  115OSM    H6G12070   3.960   4.601  10.009  1.4171 -2.6857 -1.1681
  115OSM    C7F12071   3.779   4.504   9.947  0.2769  0.3837  0.2579
  115OSM    H7F12072   3.688   4.463   9.996  1.4949 -0.4045  1.9802
  115OSM    H7G12073   3.825   4.406   9.921 -2.3367 -1.3977  1.9182
  115OSM    C8F12074   3.753   4.597   9.828 -0.0269  0.0388  0.0781
  115OSM    H8F12075   3.846   4.657   9.816 -0.4108  0.2953 -1.9102
  115OSM    H8G12076   3.667   4.667   9.836 -0.6253 -0.1209 -3.4854
  115OSM    C9F12077   3.711   4.514   9.709 -0.4514  0.4488  0.5090
  115OSM    H9F12078   3.610   4.477   9.729 -0.5470  0.7363  0.5683
  115OSM   C10F12079   3.780   4.477   9.602 -0.4679 -0.5601  0.9813
  115OSM   H10F12080   3.722   4.407   9.540 -0.3601 -0.9083  1.2668
  115OSM   C11F12081   3.925   4.509   9.561  1.0285  0.0689 -0.6385
  115OSM   H11F12082   3.977   4.411   9.554 -1.0865 -1.1074 -0.8149
  115OSM   H11G12083   3.976   4.566   9.642  0.1609 -0.2780  0.1711
  115OSM   C12F12084   3.930   4.598   9.438 -0.3202 -0.8637 -0.0528
  115OSM   H12F12085   4.038   4.617   9.419 -0.7812  0.6331 -1.4129
  115OSM   H12G12086   3.890   4.699   9.462  0.6174 -0.8586  1.5781
  115OSM   C13F12087   3.870   4.543   9.309 -0.7144  0.1332 -0.2703
  115OSM   H13F12088   3.761   4.541   9.333 -0.8655  0.1564 -0.9323
  115OSM   H13G12089   3.905   4.441   9.283  1.2789  0.7756 -0.2891
  115OSM   C14F12090   3.909   4.630   9.184  0.4676  0.6455  0.1805
  115OSM   H14F12091   4.016   4.614   9.159  0.2197 -2.2280  0.5541
  115OSM   H14G12092   3.885   4.735   9.212  1.9481  1.3601 -1.0964
  115OSM   C15F12093   3.818   4.602   9.064  0.2363 -0.5466  0.4199
  115OSM   H15F12094   3.717   4.578   9.104  0.4358 -2.3665 -0.0569
  115OSM   H15G12095   3.858   4.524   8.995  1.4154 -1.8155  2.4443
  115OSM   C16F12096   3.790   4.731   8.979  0.4953 -0.8657 -0.3125
  115OSM   H16F12097   3.748   4.812   9.042 -1.3404  0.3311 -2.8708
  115OSM   H16G12098   3.725   4.699   8.894  0.6034  0.0916 -0.7673
  115OSM   C17F12099   3.912   4.795   8.909 -0.0201 -0.4208  0.3059
  115OSM   H17F12100   3.978   4.810   8.997 -0.2843 -0.0543  0.4441
  115OSM   H17G12101   3.901   4.900   8.875  0.0202  0.2851  2.3152
  115OSM   C18F12102   3.989   4.722   8.795  0.5350 -0.7058 -0.0593
  115OSM   H18F12103   3.921   4.700   8.710  2.8508 -0.2467 -2.1038
  115OSM   H18G12104   4.028   4.629   8.842  1.7339  0.6198  1.6801
  115OSM   H18H12105   4.075   4.778   8.753 -0.9483  1.0388 -0.9000
  116OSM      N12106   6.544   1.204  11.114 -0.0128  0.4962 -0.0517
  116OSM    C1512107   6.543   1.157  11.261 -0.2685  0.2381  0.3614
  116OSM   H15A12108   6.497   1.060  11.266  1.9672 -0.9431 -0.6773
  116OSM   H15B12109   6.481   1.226  11.317  1.4280  1.6408  0.5929
  116OSM   H15C12110   6.645   1.155  11.295 -0.1738  0.9320  0.1468
  116OSM    C1412111   6.407   1.177  11.057  0.1242  0.1434 -0.5271
  116OSM   H14A12112   6.368   1.078  11.074  2.5393 -1.1326 -1.9073
  116OSM   H14B12113   6.406   1.202  10.952 -0.3880  2.2641 -0.0812
  116OSM   H14C12114   6.338   1.246  11.104 -1.8069 -2.6954  1.1204
  116OSM    C1312115   6.575   1.348  11.107  0.1983 -0.7908  0.3871
  116OSM   H13A12116   6.594   1.366  11.003 -1.3206  0.4262  0.2902
  116OSM   H13B12117   6.660   1.372  11.169  2.4652 -0.6815 -2.5605
  116OSM   H13C12118   6.500   1.414  11.150 -0.1444 -1.7582  1.3390
  116OSM    C1212119   6.636   1.120  11.032  0.1275  0.3952  0.4141
  116OSM   H12A12120   6.591   1.022  11.031  0.7497  0.0937  1.4926
  116OSM   H12B12121   6.738   1.118  11.066 -0.2788  0.1172  1.6468
  116OSM    C1112122   6.647   1.159  10.881  0.6415 -1.1158  0.1157
  116OSM   H11A12123   6.549   1.143  10.831  1.4931  0.8473 -2.4332
  116OSM   H11B12124   6.704   1.080  10.827 -0.1671  0.2252 -2.9756
  116OSM      P12125   6.866   1.283  10.839  0.0525 -0.1450 -0.2874
  116OSM    O1312126   6.924   1.418  10.854  0.1681  0.1097 -0.6779
  116OSM    O1412127   6.919   1.182  10.930  0.4265  0.6023 -0.0580
  116OSM    O1112128   6.874   1.247  10.682 -0.4327  0.1037 -0.2814
  116OSM    O1212129   6.712   1.288  10.865  0.5818 -0.3704 -0.1671
  116OSM    C1S12130   6.910   1.107  10.652  0.4345 -1.2542 -0.4441
  116OSM    H1S12131   6.817   1.048  10.668  1.1990 -1.9780  1.6207
  116OSM    H1T12132   6.989   1.065  10.717 -0.2820 -0.5698  0.9372
  116OSM     NF12133   6.997   0.951  10.475  0.1266 -0.2119  0.7932
  116OSM    HNF12134   7.091   0.931  10.449 -0.6752 -3.2495 -0.1263
  116OSM    C2S12135   6.947   1.090  10.500  0.0221 -0.4102 -0.3811
  116OSM    H2S12136   6.857   1.113  10.439 -0.3260  1.1845  0.6614
  116OSM    C3S12137   7.045   1.208  10.459 -0.1521 -0.2063  0.7685
  116OSM    H3S12138   7.133   1.214  10.527  1.0656  0.3875 -0.8085
  116OSM     O312139   6.987   1.338  10.474  0.3999  0.6068 -0.1540
  116OSM    HO312140   6.911   1.315  10.527  0.3309 -1.0825 -0.9165
  116OSM    C4S12141   7.091   1.190  10.321 -0.1926  0.1934  0.2027
  116OSM    H4S12142   7.189   1.142  10.311 -0.2059  0.5435 -2.4302
  116OSM    C5S12143   7.025   1.232  10.213  0.3614 -0.3428 -0.4680
  116OSM    H5S12144   6.922   1.271  10.215 -0.0117 -1.1867 -1.8467
  116OSM    C6S12145   7.081   1.209  10.079 -0.0520 -1.2610  0.1568
  116OSM    H6S12146   7.169   1.142  10.075  2.5227  1.8232  0.6050
  116OSM    H6T12147   7.122   1.307  10.047 -0.7415 -1.2080 -0.5777
  116OSM    C7S12148   6.978   1.161   9.975  0.0074 -0.6590 -0.2553
  116OSM    H7S12149   6.885   1.220   9.986  0.7486  0.1513  2.6938
  116OSM    H7T12150   6.956   1.055   9.999 -0.7955 -0.3072  0.6272
  116OSM    C8S12151   7.043   1.160   9.829 -1.2433 -0.1184 -0.4994
  116OSM    H8S12152   7.149   1.130   9.840 -1.8718 -1.6555  2.4823
  116OSM    H8T12153   7.028   1.268   9.807 -2.6445  0.5791  3.1099
  116OSM    C9S12154   6.961   1.073   9.723  0.1412 -0.3385 -0.2415
  116OSM    H9S12155   6.854   1.088   9.749  0.8367  0.0209  2.7176
  116OSM    H9T12156   6.999   0.974   9.755 -0.7707 -0.7007 -0.2369
  116OSM   C10S12157   7.001   1.093   9.575 -0.0698  0.4343  0.9255
  116OSM   H10S12158   7.110   1.070   9.573  0.5927  3.0689 -2.1201
  116OSM   H10T12159   6.996   1.203   9.558  0.9063  0.3283 -0.1812
  116OSM   C11S12160   6.916   1.011   9.477 -0.0333 -0.4584 -0.3506
  116OSM   H11S12161   6.814   1.053   9.491  1.4025  2.7998  1.7500
  116OSM   H11T12162   6.907   0.909   9.520  0.2224  0.3785  1.8707
  116OSM   C12S12163   6.967   1.011   9.334  0.7927 -0.6798  0.2571
  116OSM   H12S12164   6.919   0.934   9.270 -2.3393  0.7268  0.6821
  116OSM   H12T12165   7.074   0.983   9.345  1.1680  0.9739  1.1728
  116OSM   C13S12166   6.958   1.153   9.263  0.1264  0.2745 -0.0199
  116OSM   H13S12167   7.034   1.227   9.296  1.7394 -1.1349 -0.4069
  116OSM   H13T12168   6.853   1.188   9.263  0.7060  2.1470 -0.2917
  116OSM   C14S12169   6.984   1.135   9.113 -0.1953  0.2829 -1.0305
  116OSM   H14S12170   6.927   1.217   9.065 -1.9634  1.7340  3.0639
  116OSM   H14T12171   6.941   1.040   9.073  1.5845  0.0445 -2.4816
  116OSM   C15S12172   7.137   1.145   9.081  0.4662 -0.1226 -0.0061
  116OSM   H15S12173   7.183   1.060   9.136 -2.1074 -1.4702  0.2052
  116OSM   H15T12174   7.181   1.245   9.101  1.2880  0.0262 -2.2378
  116OSM   C16S12175   7.164   1.116   8.935  0.5971  0.1810  0.0638
  116OSM   H16S12176   7.117   1.191   8.867  0.7427 -0.7046 -1.0429
  116OSM   H16T12177   7.120   1.016   8.915  0.5762 -0.0474  1.1899
  116OSM   C17S12178   7.317   1.104   8.897  0.3341  0.7975 -0.6144
  116OSM   H17S12179   7.356   1.029   8.969 -2.5736 -1.4117 -1.1262
  116OSM   H17T12180   7.356   1.204   8.926  0.1969  0.6438  0.1074
  116OSM   C18S12181   7.345   1.066   8.753  0.2126 -0.3185  0.6616
  116OSM   H18S12182   7.293   1.129   8.678 -1.0305  0.6830  2.3060
  116OSM   H18T12183   7.291   0.974   8.719 -4.1349  1.8946  0.9109
  116OSM   H18U12184   7.453   1.063   8.726 -0.3607  1.2152 -2.2668
  116OSM    C1F12185   6.916   0.843  10.485  0.5174 -0.0138  0.0650
  116OSM     OF12186   6.794   0.856  10.519 -0.8199  0.5035  0.3684
  116OSM    C2F12187   6.972   0.702  10.452 -0.2920  0.4112  0.5412
  116OSM    H2F12188   7.081   0.704  10.475 -0.1244 -1.7366  0.2008
  116OSM    H2G12189   6.964   0.683  10.343  0.6572 -0.1202  0.5459
  116OSM    C3F12190   6.893   0.583  10.525 -0.3429  0.0333  0.2897
  116OSM    H3F12191   6.784   0.605  10.535 -0.3223  0.1032  0.3591
  116OSM    H3G12192   6.941   0.588  10.625  2.1087 -1.2424 -0.7559
  116OSM    C4F12193   6.911   0.444  10.470 -0.3522 -0.2687  0.9868
  116OSM    H4F12194   6.863   0.366  10.532 -0.3615  0.0637  1.4004
  116OSM    H4G12195   7.020   0.424  10.468 -0.5532 -1.3973  0.1949
  116OSM    C5F12196   6.860   0.432  10.320 -0.2682 -0.4477 -0.5126
  116OSM    H5F12197   6.915   0.508  10.261 -1.1827 -0.1993 -1.0788
  116OSM    H5G12198   6.752   0.457  10.331  0.2738  2.5627 -1.0927
  116OSM    C6F12199   6.886   0.285  10.266  0.8915 -0.6206 -0.2301
  116OSM    H6F12200   6.896   0.231  10.363  3.4157  1.1717  0.6096
  116OSM    H6G12201   6.988   0.293  10.222  0.3447  2.8713 -1.1166
  116OSM    C7F12202   6.771   0.252  10.176 -0.5754  0.1093  0.2605
  116OSM    H7F12203   6.675   0.279  10.224  0.2528 -2.7935  4.0081
  116OSM    H7G12204   6.782   0.142  10.176 -0.1299  0.1386 -0.7092
  116OSM    C8F12205   6.792   0.289  10.028  0.3857  0.0940  0.1206
  116OSM    H8F12206   6.879   0.229   9.996  0.3003  0.6030 -1.1365
  116OSM    H8G12207   6.820   0.396  10.014  1.7217 -0.1907  0.4923
  116OSM    C9F12208   6.663   0.261   9.955  0.0196  0.1804 -0.2150
  116OSM    H9F12209   6.575   0.311   9.997  0.7251 -0.4012  2.1252
  116OSM   C10F12210   6.660   0.175   9.848 -0.0245 -0.3515  0.1206
  116OSM   H10F12211   6.563   0.138   9.811  1.7184 -3.7984 -1.4619
  116OSM   C11F12212   6.779   0.091   9.793  0.6935 -0.0451  0.4497
  116OSM   H11F12213   6.751  -0.017   9.796  1.7292 -0.3786 -0.8796
  116OSM   H11G12214   6.875   0.087   9.849  0.9615 -2.9743 -0.0234
  116OSM   C12F12215   6.810   0.128   9.647 -0.1872  0.1237  0.0777
  116OSM   H12F12216   6.912   0.092   9.622 -0.7992 -0.6136 -1.4749
  116OSM   H12G12217   6.820   0.237   9.628 -0.9245 -0.0060 -1.1866
  116OSM   C13F12218   6.712   0.080   9.536 -0.0949 -0.2067  0.1636
  116OSM   H13F12219   6.610   0.121   9.551 -0.9843 -2.9488  2.4699
  116OSM   H13G12220   6.702  -0.029   9.551 -4.7659  0.1772  1.3710
  116OSM   C14F12221   6.766   0.119   9.391 -0.6544 -0.0717  0.6969
  116OSM   H14F12222   6.876   0.102   9.379 -0.2435  3.3146 -1.8549
  116OSM   H14G12223   6.749   0.228   9.384 -0.1600  0.2403  3.4931
  116OSM   C15F12224   6.700   0.046   9.269 -0.4673  0.3319 -0.1193
  116OSM   H15F12225   6.592   0.054   9.294 -0.4973 -1.9868  0.6807
  116OSM   H15G12226   6.725  -0.062   9.271 -0.2167  0.2784 -2.6552
  116OSM   C16F12227   6.738   0.086   9.123 -0.2668  0.3915  0.5047
  116OSM   H16F12228   6.703   0.007   9.053 -3.2387  2.0200 -0.0044
  116OSM   H16G12229   6.849   0.086   9.115 -0.3569 -0.4153 -1.3860
  116OSM   C17F12230   6.683   0.225   9.081  0.0404 -0.1230  0.1067
  116OSM   H17F12231   6.738   0.295   9.149  0.5400  0.4749 -0.8955
  116OSM   H17G12232   6.576   0.233   9.110 -0.1988 -1.6905 -0.2924
  116OSM   C18F12233   6.706   0.286   8.949  0.2658  0.0147  1.2574
  116OSM   H18F12234   6.692   0.397   8.953 -1.6594 -0.1776  0.9184
  116OSM   H18G12235   6.639   0.250   8.869  0.7130  2.0827 -0.1341
  116OSM   H18H12236   6.807   0.281   8.903 -0.3549  0.9272 -0.3083
  117OSM      N12237   4.901   0.640  10.990 -0.2240  0.8965  0.4275
  117OSM    C1512238   4.941   0.495  11.006  0.1063  0.0381  0.5896
  117OSM   H15A12239   4.870   0.440  11.067  1.0148 -3.0907 -0.9387
  117OSM   H15B12240   5.034   0.488  11.060  0.5407 -0.6681 -0.2122
  117OSM   H15C12241   4.948   0.442  10.912 -0.0811  0.2929  0.4285
  117OSM    C1412242   4.765   0.646  10.920 -0.8275 -0.7437  0.3530
  117OSM   H14A12243   4.765   0.579  10.836  0.7821 -1.0265  0.5508
  117OSM   H14B12244   4.742   0.746  10.886  0.3057 -0.1001  1.3752
  117OSM   H14C12245   4.692   0.619  10.995 -0.4909 -1.5146  0.4088
  117OSM    C1312246   4.889   0.702  11.125 -0.1509  0.2406  0.0120
  117OSM   H13A12247   4.980   0.732  11.175 -0.7150  0.4679  0.9323
  117OSM   H13B12248   4.829   0.633  11.182 -0.3599 -0.3241 -0.8650
  117OSM   H13C12249   4.817   0.783  11.128 -1.7630 -1.0962 -0.7239
  117OSM    C1212250   4.993   0.716  10.907 -0.4579 -0.9920 -0.0099
  117OSM   H12A12251   4.953   0.815  10.891 -0.2788 -1.0793 -1.0859
  117OSM   H12B12252   5.011   0.675  10.809  0.1396  1.1463 -0.8410
  117OSM    C1112253   5.133   0.746  10.964  0.1532 -0.4847 -0.5920
  117OSM   H11A12254   5.178   0.646  10.981  1.3270 -0.6050 -3.6708
  117OSM   H11B12255   5.131   0.811  11.054  3.0426 -1.5927  0.3707
  117OSM      P12256   5.167   0.977  10.835 -0.1193  0.0077 -0.1296
  117OSM    O1312257   5.022   0.992  10.828  0.2018  0.1717  0.1316
  117OSM    O1412258   5.231   1.067  10.940  0.1947  0.0304 -0.3839
  117OSM    O1112259   5.238   0.997  10.699 -0.3076  0.2426  0.0432
  117OSM    O1212260   5.205   0.825  10.869  0.2057 -0.2930  0.1602
  117OSM    C1S12261   5.205   0.900  10.597 -0.1336 -0.9437  0.6536
  117OSM    H1S12262   5.098   0.912  10.568  0.2306  0.6954 -0.1471
  117OSM    H1T12263   5.218   0.796  10.633  0.2286 -1.4816 -0.9466
  117OSM     NF12264   5.247   0.835  10.366 -0.1998 -0.0133 -0.1798
  117OSM    HNF12265   5.301   0.753  10.355  1.5248  1.0277  0.1357
  117OSM    C2S12266   5.295   0.921  10.469 -0.4481  0.1699 -0.0584
  117OSM    H2S12267   5.274   1.026  10.442  0.4094  0.2526 -0.4610
  117OSM    C3S12268   5.444   0.904  10.509  0.1065 -0.9463  0.3343
  117OSM    H3S12269   5.460   0.801  10.546 -1.5776 -1.6151 -0.7068
  117OSM     O312270   5.487   0.984  10.623  0.0192 -0.5141 -0.3249
  117OSM    HO312271   5.403   0.991  10.669  0.4176 -0.3259  0.3902
  117OSM    C4S12272   5.544   0.932  10.399  0.3309 -0.0220  0.1325
  117OSM    H4S12273   5.539   1.032  10.353 -1.6991 -1.6338 -3.6710
  117OSM    C5S12274   5.633   0.848  10.351  0.1342  0.4579  0.5280
  117OSM    H5S12275   5.633   0.745  10.392 -0.8950 -0.1239 -0.8679
  117OSM    C6S12276   5.727   0.878  10.241 -0.5477 -0.4131  0.6810
  117OSM    H6S12277   5.806   0.800  10.236 -0.3352 -0.1200 -1.6757
  117OSM    H6T12278   5.772   0.979  10.251 -3.3106  0.8491  1.2186
  117OSM    C7S12279   5.655   0.894  10.104  0.5379  0.1202  0.0905
  117OSM    H7S12280   5.580   0.974  10.119 -0.2781 -0.6665  0.2809
  117OSM    H7T12281   5.606   0.797  10.081  1.1400 -0.0720 -0.4066
  117OSM    C8S12282   5.759   0.943  10.004  0.2424 -0.1675  0.5214
  117OSM    H8S12283   5.845   0.874  10.021  2.1320  1.7062 -0.9928
  117OSM    H8T12284   5.792   1.048  10.016 -0.4288  0.3467 -1.7622
  117OSM    C9S12285   5.725   0.915   9.863 -0.3539  0.3493  0.1893
  117OSM    H9S12286   5.657   0.994   9.825 -0.1507  0.4914  0.1169
  117OSM    H9T12287   5.686   0.813   9.841 -0.8067  0.4873  0.3608
  117OSM   C10S12288   5.848   0.918   9.768 -0.0274 -0.5248 -0.3063
  117OSM   H10S12289   5.930   0.868   9.826 -0.5964 -2.3689 -1.0212
  117OSM   H10T12290   5.870   1.026   9.753  0.6469 -0.3769  1.4499
  117OSM   C11S12291   5.812   0.854   9.636 -0.4537 -0.4161 -0.2514
  117OSM   H11S12292   5.718   0.903   9.604  1.6109  4.0422 -0.1121
  117OSM   H11T12293   5.797   0.747   9.665 -0.1548 -0.2579  0.5108
  117OSM   C12S12294   5.914   0.871   9.522  0.3168  0.5416 -0.8093
  117OSM   H12S12295   6.012   0.823   9.541  0.2024  0.9345  0.9285
  117OSM   H12T12296   5.938   0.977   9.502 -2.6938  0.7816 -4.3257
  117OSM   C13S12297   5.845   0.825   9.392 -0.1877  0.5467  0.0715
  117OSM   H13S12298   5.741   0.857   9.411 -0.4011 -0.3281  0.4392
  117OSM   H13T12299   5.855   0.714   9.383 -0.5176  0.0594  4.0475
  117OSM   C14S12300   5.900   0.898   9.267  0.0741 -1.3042  0.0367
  117OSM   H14S12301   6.010   0.882   9.266 -0.2441 -3.9085 -0.8211
  117OSM   H14T12302   5.874   1.006   9.273 -0.4255 -1.5100  2.2047
  117OSM   C15S12303   5.847   0.829   9.146  0.9703 -0.1762  0.6386
  117OSM   H15S12304   5.740   0.801   9.150  0.5638  0.4733 -2.7893
  117OSM   H15T12305   5.900   0.731   9.135 -0.3790 -1.0747  1.7228
  117OSM   C16S12306   5.876   0.908   9.011  0.6162 -0.2148 -0.3546
  117OSM   H16S12307   5.977   0.953   9.020  1.3196 -1.3880 -1.9345
  117OSM   H16T12308   5.800   0.989   9.016 -0.5699 -1.2656 -0.7193
  117OSM   C17S12309   5.855   0.825   8.891 -0.7194 -0.7964  0.3155
  117OSM   H17S12310   5.772   0.754   8.914  0.6881 -2.7865 -0.4030
  117OSM   H17T12311   5.947   0.766   8.870  0.9608  1.0594  2.0341
  117OSM   C18S12312   5.828   0.919   8.774 -0.5492  0.2069  0.0998
  117OSM   H18S12313   5.743   0.983   8.805 -1.1699  0.1306 -1.3279
  117OSM   H18T12314   5.800   0.857   8.685  2.6749 -0.8784 -0.2784
  117OSM   H18U12315   5.918   0.977   8.746 -0.6848  1.1514  1.5353
  117OSM    C1F12316   5.129   0.848  10.304  0.6608 -0.3068 -0.0685
  117OSM     OF12317   5.090   0.965  10.285  0.2960  0.0689 -0.1805
  117OSM    C2F12318   5.033   0.734  10.268 -0.1604  0.1852 -0.5007
  117OSM    H2F12319   4.971   0.720  10.359 -0.2670 -1.6788 -0.8296
  117OSM    H2G12320   5.107   0.652  10.259 -1.5758 -1.0848 -1.0807
  117OSM    C3F12321   4.963   0.759  10.135  0.1589  0.4429 -0.2378
  117OSM    H3F12322   4.907   0.855  10.136  0.8501  0.8519 -0.2892
  117OSM    H3G12323   4.884   0.681  10.129  0.6033 -0.4619  3.4498
  117OSM    C4F12324   5.054   0.753  10.017  0.7965  0.7632 -0.3615
  117OSM    H4F12325   5.128   0.672  10.033 -0.0909 -0.5189 -2.4359
  117OSM    H4G12326   5.117   0.845  10.012  0.7193  0.8069 -0.5354
  117OSM    C5F12327   4.981   0.734   9.882 -0.3700  0.0455  0.4041
  117OSM    H5F12328   4.918   0.822   9.859 -0.0863  0.4133  1.0105
  117OSM    H5G12329   4.910   0.649   9.897 -0.5184 -0.1376 -1.1725
  117OSM    C6F12330   5.069   0.715   9.762  0.1946  0.0815  0.1341
  117OSM    H6F12331   5.155   0.652   9.791 -0.1556 -0.8661 -0.8293
  117OSM    H6G12332   5.115   0.814   9.741  2.0227 -0.4609  1.4173
  117OSM    C7F12333   4.994   0.667   9.640  0.3194  0.3690  0.1180
  117OSM    H7F12334   4.911   0.736   9.613  0.4334 -0.3775 -2.3523
  117OSM    H7G12335   4.947   0.569   9.662  1.6410 -0.3765 -0.2797
  117OSM    C8F12336   5.086   0.642   9.520  0.6037 -0.7821  0.7206
  117OSM    H8F12337   5.165   0.575   9.559  2.4817  0.2605 -1.0656
  117OSM    H8G12338   5.130   0.743   9.504 -0.9571 -0.3293 -1.0759
  117OSM    C9F12339   5.039   0.596   9.390 -0.1102 -0.1320  0.3874
  117OSM    H9F12340   4.992   0.674   9.328  2.5937  0.1790 -1.4520
  117OSM   C10F12341   5.041   0.473   9.335 -0.0426 -0.4243  0.2574
  117OSM   H10F12342   5.006   0.450   9.233  0.9166 -2.3030  0.3026
  117OSM   C11F12343   5.104   0.347   9.403 -0.3022  0.0773  0.2990
  117OSM   H11F12344   5.175   0.377   9.483  0.7986 -0.2115 -0.5449
  117OSM   H11G12345   5.164   0.294   9.326 -0.9183  0.5880 -0.5602
  117OSM   C12F12346   5.007   0.248   9.472  0.2693  0.8442 -0.6814
  117OSM   H12F12347   4.910   0.297   9.493 -0.3627 -0.1042 -1.2795
  117OSM   H12G12348   5.063   0.227   9.566  0.3133  3.0981 -0.1612
  117OSM   C13F12349   4.973   0.129   9.385  0.0437  0.8524 -0.1669
  117OSM   H13F12350   4.926   0.044   9.439  0.3697 -0.2170 -1.5263
  117OSM   H13G12351   5.060   0.081   9.336  0.0320 -0.5939  1.1325
  117OSM   C14F12352   4.868   0.168   9.279  0.4130  0.3868  0.5277
  117OSM   H14F12353   4.876   0.277   9.257 -0.8995  0.3070 -0.4726
  117OSM   H14G12354   4.766   0.156   9.319  0.1780  0.5416 -0.0152
  117OSM   C15F12355   4.856   0.077   9.152  0.2642  0.1668 -0.3412
  117OSM   H15F12356   4.862  -0.029   9.188  1.1841  0.3733  0.1446
  117OSM   H15G12357   4.954   0.090   9.103  0.7902 -0.0119  0.6409
  117OSM   C16F12358   4.739   0.098   9.053 -0.5198  0.1632 -0.6429
  117OSM   H16F12359   4.727   0.207   9.031 -2.4915  0.8277  2.8901
  117OSM   H16G12360   4.642   0.085   9.106  0.9541  2.3674  2.9719
  117OSM   C17F12361   4.762  -0.015   8.946  0.0422 -0.3204  0.0416
  117OSM   H17F12362   4.867  -0.031   8.913  1.3478 -1.2377  4.0745
  117OSM   H17G12363   4.711   0.008   8.850 -1.0972  0.8849  0.8963
  117OSM   C18F12364   4.703  -0.153   8.985 -0.1872  0.4263  0.2274
  117OSM   H18F12365   4.748  -0.198   9.077 -0.2853  0.2459  0.1874
  117OSM   H18G12366   4.718  -0.221   8.899 -1.4260  2.6174 -1.8444
  117OSM   H18H12367   4.596  -0.124   8.990 -0.1873  1.3466 -2.8178
  118OSM      N12368   2.031   3.746  10.966  0.0801 -0.0420  0.1147
  118OSM    C1512369   2.035   3.825  11.093 -0.0815 -0.1728 -0.5717
  118OSM   H15A12370   2.126   3.883  11.088  0.7173 -1.2456  0.8872
  118OSM   H15B12371   2.049   3.758  11.176  1.1078  4.4148  3.3692
  118OSM   H15C12372   1.953   3.894  11.109  0.0773  0.0939 -0.8884
  118OSM    C1412373   1.907   3.666  10.965 -0.3663  0.6154  0.1602
  118OSM   H14A12374   1.895   3.619  10.868  0.5115 -2.2276  1.3310
  118OSM   H14B12375   1.826   3.738  10.968  0.0221  1.0348  0.7241
  118OSM   H14C12376   1.903   3.590  11.041  1.9063 -0.6457 -0.8757
  118OSM    C1312377   2.012   3.844  10.853  0.5185  0.0961 -0.7646
  118OSM   H13A12378   1.920   3.898  10.868  0.0954 -0.8402  0.1403
  118OSM   H13B12379   2.002   3.792  10.758  2.9802  1.0989 -1.6607
  118OSM   H13C12380   2.098   3.909  10.854  0.4258  0.2144 -0.2583
  118OSM    C1212381   2.151   3.660  10.930 -1.1877  0.5057  0.0850
  118OSM   H12A12382   2.234   3.725  10.907  0.2297 -1.3754 -0.3626
  118OSM   H12B12383   2.126   3.598  10.845 -0.4027  2.1650 -1.4159
  118OSM    C1112384   2.197   3.557  11.035 -0.8031  0.5309 -0.0374
  118OSM   H11A12385   2.227   3.610  11.129  2.4536 -2.8296  1.0772
  118OSM   H11B12386   2.285   3.501  10.996 -0.2009  0.3555  1.4880
  118OSM      P12387   2.114   3.303  11.070  0.3619 -0.1115  0.3121
  118OSM    O1312388   2.239   3.276  11.139  0.0335  0.9863  0.4583
  118OSM    O1412389   1.979   3.252  11.109 -0.0837 -0.4066  0.5304
  118OSM    O1112390   2.127   3.268  10.919 -0.1728  0.3001  0.6333
  118OSM    O1212391   2.101   3.459  11.072 -0.0835 -0.5172 -0.4084
  118OSM    C1S12392   2.250   3.251  10.853 -0.2959  0.2737 -0.7214
  118OSM    H1S12393   2.277   3.145  10.873  0.0711  0.4411 -0.3096
  118OSM    H1T12394   2.330   3.317  10.891 -1.2379  0.8187  0.3442
  118OSM     NF12395   2.364   3.224  10.640  0.7672 -0.0081  0.2747
  118OSM    HNF12396   2.439   3.290  10.641  1.6339 -0.9725  1.5198
  118OSM    C2S12397   2.240   3.259  10.693  0.1557  0.0076  0.4830
  118OSM    H2S12398   2.169   3.181  10.658  1.3111 -1.5708  1.5367
  118OSM    C3S12399   2.186   3.396  10.638 -0.2089  0.8402 -0.3600
  118OSM    H3S12400   2.255   3.480  10.662 -0.6379  1.0809  0.0640
  118OSM     O312401   2.066   3.437  10.708  0.3186  0.3095 -0.1161
  118OSM    HO312402   2.079   3.377  10.782  1.0351 -0.7152 -1.0266
  118OSM    C4S12403   2.173   3.389  10.485  0.2534 -0.4680 -0.1304
  118OSM    H4S12404   2.270   3.377  10.434  0.6532  1.5322  0.0654
  118OSM    C5S12405   2.054   3.387  10.422 -0.4958 -0.4324 -0.5778
  118OSM    H5S12406   1.957   3.397  10.472  0.7153 -0.0029  1.8605
  118OSM    C6S12407   2.063   3.382  10.275  0.1873 -0.7579 -0.5952
  118OSM    H6S12408   1.984   3.315  10.235  0.7031 -0.2586 -2.5250
  118OSM    H6T12409   2.157   3.346  10.228 -0.9646  0.0072 -3.7297
  118OSM    C7S12410   2.040   3.524  10.208 -0.3368 -0.1725 -0.6471
  118OSM    H7S12411   2.110   3.594  10.258 -1.4824 -1.2926  2.8253
  118OSM    H7T12412   1.946   3.580  10.226  1.3210  2.0542  1.9418
  118OSM    C8S12413   2.072   3.528  10.059  0.5584  0.4336  0.1131
  118OSM    H8S12414   2.177   3.501  10.039  0.6181  1.0941 -0.5009
  118OSM    H8T12415   2.061   3.634  10.025  0.6198  1.3774  2.7598
  118OSM    C9S12416   1.970   3.432   9.980 -0.0460 -0.4744 -0.5279
  118OSM    H9S12417   1.862   3.454   9.994 -0.1692 -0.2347 -1.6967
  118OSM    H9T12418   1.987   3.340  10.040  2.7176  0.6010  0.5242
  118OSM   C10S12419   2.006   3.400   9.833  0.0563 -0.2008 -0.6188
  118OSM   H10S12420   2.115   3.401   9.812  0.0858 -0.8232 -0.4997
  118OSM   H10T12421   1.971   3.492   9.781  0.7814  0.7160  0.4582
  118OSM   C11S12422   1.941   3.277   9.787  0.2361  0.0186  0.8183
  118OSM   H11S12423   1.831   3.274   9.801  0.0908 -1.0641 -0.3447
  118OSM   H11T12424   1.977   3.190   9.846 -1.7234 -0.7449  0.9608
  118OSM   C12S12425   1.969   3.233   9.639  0.2553 -0.2206 -0.3028
  118OSM   H12S12426   1.912   3.147   9.599  0.8104  0.5331 -2.9686
  118OSM   H12T12427   2.079   3.221   9.631  0.3907  1.6616 -2.6444
  118OSM   C13S12428   1.917   3.353   9.549  0.3534 -0.0647 -0.0963
  118OSM   H13S12429   2.000   3.427   9.550 -1.0193  1.5135  0.2610
  118OSM   H13T12430   1.816   3.385   9.583 -0.4039 -3.0216  0.7006
  118OSM   C14S12431   1.896   3.308   9.406 -0.7309 -0.0839 -0.3412
  118OSM   H14S12432   1.804   3.245   9.412 -1.4156  1.0128  1.4835
  118OSM   H14T12433   1.987   3.256   9.370  1.1422  2.3728  0.6263
  118OSM   C15S12434   1.848   3.421   9.306  0.4032 -0.2727 -0.3449
  118OSM   H15S12435   1.927   3.498   9.313 -0.7899  0.9251  0.3324
  118OSM   H15T12436   1.754   3.462   9.347  0.6138 -0.3528  0.2183
  118OSM   C16S12437   1.831   3.373   9.155  0.2553 -0.9884 -0.5413
  118OSM   H16S12438   1.785   3.272   9.166 -0.7431 -0.4965 -0.0876
  118OSM   H16T12439   1.936   3.379   9.117  0.4596  2.2162  0.2419
  118OSM   C17S12440   1.740   3.444   9.053  0.4819 -0.2222 -0.1960
  118OSM   H17S12441   1.654   3.462   9.120 -1.0199  1.8666 -2.5126
  118OSM   H17T12442   1.708   3.367   8.979 -0.7241 -1.4154  1.5003
  118OSM   C18S12443   1.790   3.573   8.993 -0.0846  0.1484 -0.5303
  118OSM   H18S12444   1.852   3.555   8.902 -1.0008 -2.7892 -0.6632
  118OSM   H18T12445   1.853   3.629   9.065 -1.0419 -0.7220  1.0321
  118OSM   H18U12446   1.712   3.648   8.967 -3.0941 -2.1116  1.3121
  118OSM    C1F12447   2.402   3.096  10.623  0.4804 -0.5798  0.2646
  118OSM     OF12448   2.329   3.001  10.651  0.2730  0.3737  0.3627
  118OSM    C2F12449   2.541   3.083  10.573 -0.0730  0.1993  0.1613
  118OSM    H2F12450   2.609   3.020  10.635  0.0989  0.3972  0.1763
  118OSM    H2G12451   2.584   3.186  10.570 -0.8507  0.5312 -2.4464
  118OSM    C3F12452   2.555   3.026  10.425  0.3023 -0.3143 -0.3069
  118OSM    H3F12453   2.526   2.919  10.433 -0.5317 -0.1773 -1.2792
  118OSM    H3G12454   2.665   3.026  10.406  0.7869  0.4540  2.1558
  118OSM    C4F12455   2.464   3.097  10.326  0.5052 -0.7186  0.4794
  118OSM    H4F12456   2.483   3.206  10.329  1.8099 -0.9368  2.8965
  118OSM    H4G12457   2.362   3.082  10.367 -0.7475  0.3933 -2.0516
  118OSM    C5F12458   2.463   3.047  10.180 -0.8204 -1.1745 -0.6096
  118OSM    H5F12459   2.427   2.942  10.175 -0.2387 -1.3555 -1.1537
  118OSM    H5G12460   2.568   3.047  10.144 -1.6098  0.1704 -3.1054
  118OSM    C6F12461   2.382   3.139  10.086 -0.3757 -0.8548 -0.3753
  118OSM    H6F12462   2.449   3.217  10.044  0.2243 -1.6054 -0.8419
  118OSM    H6G12463   2.305   3.199  10.139  0.3076 -0.4121  0.1418
  118OSM    C7F12464   2.315   3.066   9.975 -1.0486  0.5182  0.9839
  118OSM    H7F12465   2.244   3.136   9.926  0.0967  0.2448 -1.1807
  118OSM    H7G12466   2.253   2.981  10.014 -1.8038  1.0350  0.9375
  118OSM    C8F12467   2.417   3.012   9.869  0.3942 -0.7080 -0.2561
  118OSM    H8F12468   2.359   2.934   9.814  0.0749 -1.0410  0.5386
  118OSM    H8G12469   2.497   2.961   9.928  1.0993 -0.0938 -0.6634
  118OSM    C9F12470   2.485   3.106   9.766  0.0790 -0.3573 -0.1463
  118OSM    H9F12471   2.526   3.196   9.814 -1.7996 -0.4841  1.8366
  118OSM   C10F12472   2.515   3.067   9.641 -0.5342 -0.4088  1.0663
  118OSM   H10F12473   2.566   3.143   9.579 -1.4754 -1.0023 -0.4890
  118OSM   C11F12474   2.486   2.937   9.571  0.3574  0.1665  0.1008
  118OSM   H11F12475   2.490   2.856   9.646  1.5397  0.8311  0.7812
  118OSM   H11G12476   2.567   2.909   9.500 -0.7411  0.4689 -1.3115
  118OSM   C12F12477   2.345   2.929   9.508 -0.1250 -0.0448 -0.4055
  118OSM   H12F12478   2.272   2.956   9.588  0.0486  1.1006 -0.6202
  118OSM   H12G12479   2.324   2.826   9.472 -2.7497  0.0615  0.5766
  118OSM   C13F12480   2.327   3.021   9.391  0.2284 -0.2969  0.4574
  118OSM   H13F12481   2.403   2.989   9.316  0.9531  1.9590  0.1663
  118OSM   H13G12482   2.344   3.126   9.422 -1.7873  0.0066  0.6710
  118OSM   C14F12483   2.196   3.002   9.328  0.2038 -0.3552  0.4664
  118OSM   H14F12484   2.127   3.039   9.407  0.1784  0.0644  0.2502
  118OSM   H14G12485   2.173   2.894   9.320 -0.9985 -0.1197  0.6089
  118OSM   C15F12486   2.190   3.060   9.191 -0.5108  0.0420 -0.5191
  118OSM   H15F12487   2.085   3.055   9.154 -0.8949 -0.2127  0.5496
  118OSM   H15G12488   2.254   2.993   9.129  1.6148  2.3217 -0.9159
  118OSM   C16F12489   2.236   3.207   9.182  0.4915  0.1313 -0.1101
  118OSM   H16F12490   2.343   3.229   9.201 -0.0608  0.5522  3.0884
  118OSM   H16G12491   2.186   3.272   9.257  1.0239  0.1028  0.2735
  118OSM   C17F12492   2.217   3.260   9.038 -0.0581 -0.8460 -0.4879
  118OSM   H17F12493   2.108   3.269   9.022 -0.0144  0.3806 -0.2315
  118OSM   H17G12494   2.258   3.188   8.964  0.6134  1.6082 -2.6545
  118OSM   C18F12495   2.275   3.401   9.022  0.0075 -0.3006  0.6434
  118OSM   H18F12496   2.209   3.482   9.057 -0.9992 -0.3747 -0.9589
  118OSM   H18G12497   2.293   3.429   8.916 -1.8225  2.0055  0.8802
  118OSM   H18H12498   2.374   3.407   9.072  1.3195 -2.7489 -1.4201
  119OSM      N12499   3.719   2.483  11.114  0.0049 -0.1976  0.1113
  119OSM    C1512500   3.630   2.374  11.170  0.1322 -0.0702 -0.1979
  119OSM   H15A12501   3.658   2.344  11.269  0.2586  0.0744 -0.1896
  119OSM   H15B12502   3.634   2.282  11.114  0.0365 -1.0708  1.3882
  119OSM   H15C12503   3.526   2.404  11.172 -0.3713 -1.7250  0.3739
  119OSM    C1412504   3.669   2.607  11.171  0.1780 -0.1190 -1.3587
  119OSM   H14A12505   3.566   2.637  11.159  0.0882  1.6732  2.3468
  119OSM   H14B12506   3.718   2.697  11.136  1.2052 -0.0738  0.0894
  119OSM   H14C12507   3.682   2.601  11.278 -2.1024 -0.2482 -1.0281
  119OSM    C1312508   3.862   2.459  11.174 -0.1292  0.2453  0.1333
  119OSM   H13A12509   3.887   2.528  11.252  2.2531 -0.0701 -0.2545
  119OSM   H13B12510   3.931   2.450  11.091  0.3502 -3.1321  0.7418
  119OSM   H13C12511   3.849   2.366  11.227 -1.0118  0.9686  1.2259
  119OSM    C1212512   3.723   2.509  10.964  0.5888  0.8927  0.1397
  119OSM   H12A12513   3.621   2.510  10.927  0.2501  0.2687  1.0032
  119OSM   H12B12514   3.759   2.418  10.919 -1.7004  0.1573 -0.3756
  119OSM    C1112515   3.800   2.635  10.911 -0.0241  0.1310  0.2446
  119OSM   H11A12516   3.808   2.639  10.801 -2.8149  1.5770  0.0196
  119OSM   H11B12517   3.906   2.637  10.947 -0.7720  0.4123  2.6258
  119OSM      P12518   3.837   2.891  10.952 -0.2406 -0.1894  0.1451
  119OSM    O1312519   3.749   3.009  10.978  0.1015  0.0818  0.1546
  119OSM    O1412520   3.948   2.868  11.047 -0.6894 -0.1729 -0.2677
  119OSM    O1112521   3.887   2.891  10.804  0.0511 -0.0254 -0.0601
  119OSM    O1212522   3.743   2.763  10.951  0.5652  0.0194 -0.3838
  119OSM    C1S12523   3.784   2.913  10.709 -0.0741  0.7025  0.2325
  119OSM    H1S12524   3.735   3.012  10.722 -0.8729  0.6296 -1.9001
  119OSM    H1T12525   3.714   2.826  10.708  1.9222 -1.0075  1.1994
  119OSM     NF12526   3.764   2.930  10.469  0.1599 -0.3038 -0.4945
  119OSM    HNF12527   3.744   2.846  10.419 -0.6510  0.7553 -2.0408
  119OSM    C2S12528   3.859   2.906  10.576 -0.4786 -0.2920 -0.4303
  119OSM    H2S12529   3.937   2.986  10.574 -1.3571  0.5668 -2.0590
  119OSM    C3S12530   3.940   2.774  10.565  0.1437 -0.2340 -1.2564
  119OSM    H3S12531   3.865   2.692  10.569 -0.6786  0.5294  2.8252
  119OSM     O312532   4.039   2.756  10.665  0.4101 -0.3098  0.6656
  119OSM    HO312533   4.022   2.822  10.733 -1.5210 -0.5453  0.4585
  119OSM    C4S12534   3.992   2.756  10.421  1.1388 -0.3648  0.0406
  119OSM    H4S12535   3.909   2.713  10.363  1.1767 -2.1802  1.2498
  119OSM    C5S12536   4.112   2.777  10.373 -0.0108  0.5995 -0.1931
  119OSM    H5S12537   4.190   2.793  10.448  0.6120 -1.7426 -0.2447
  119OSM    C6S12538   4.155   2.751  10.226 -0.4829 -0.9478 -0.7158
  119OSM    H6S12539   4.263   2.728  10.214 -0.5928 -1.5381 -0.6033
  119OSM    H6T12540   4.153   2.844  10.166  0.1468  0.3462  1.1734
  119OSM    C7S12541   4.062   2.645  10.164 -0.2522 -0.2263  0.6089
  119OSM    H7S12542   3.959   2.687  10.162  0.2232  1.1201  2.1445
  119OSM    H7T12543   4.074   2.546  10.212 -1.6576 -1.0851 -0.7132
  119OSM    C8S12544   4.093   2.627  10.014 -0.0237  0.0888 -0.5172
  119OSM    H8S12545   4.022   2.549   9.979  1.7323 -1.0982 -1.6487
  119OSM    H8T12546   4.195   2.587   9.996 -0.1514 -1.1408  1.2656
  119OSM    C9S12547   4.074   2.750   9.919  0.1068  0.3792 -0.6891
  119OSM    H9S12548   4.134   2.836   9.957  0.5834 -0.3618  0.2702
  119OSM    H9T12549   3.965   2.769   9.922  0.1632  0.7730 -1.0330
  119OSM   C10S12550   4.125   2.718   9.776  0.2163 -0.0817 -0.1799
  119OSM   H10S12551   4.118   2.614   9.737 -2.1835 -0.2328  0.4575
  119OSM   H10T12552   4.235   2.726   9.786  0.4621  0.8806 -2.8670
  119OSM   C11S12553   4.078   2.818   9.672  0.2630  0.2025 -0.2460
  119OSM   H11S12554   4.125   2.913   9.705 -0.2041  1.1748 -2.2665
  119OSM   H11T12555   3.968   2.835   9.677  0.4561  1.6326 -0.4357
  119OSM   C12S12556   4.098   2.779   9.525  0.3257 -0.3393 -0.1245
  119OSM   H12S12557   4.049   2.683   9.501  1.1915 -0.6237 -0.8370
  119OSM   H12T12558   4.206   2.765   9.502  0.4168 -0.4487  0.3565
  119OSM   C13S12559   4.053   2.893   9.426  0.2409  0.2209 -0.0842
  119OSM   H13S12560   4.143   2.957   9.413 -0.4605  2.0267  2.9376
  119OSM   H13T12561   3.978   2.955   9.479  1.0025  0.4893  0.7178
  119OSM   C14S12562   4.018   2.842   9.282 -0.3687 -0.0963  0.2115
  119OSM   H14S12563   4.016   2.920   9.204  1.0418 -0.8148 -0.5961
  119OSM   H14T12564   3.914   2.805   9.280 -0.5629  0.4673 -1.6509
  119OSM   C15S12565   4.104   2.721   9.239  0.2641 -0.9399 -0.1205
  119OSM   H15S12566   4.093   2.634   9.306  0.1932 -2.2232 -1.7312
  119OSM   H15T12567   4.209   2.754   9.255 -0.6057  0.5906  3.3504
  119OSM   C16S12568   4.073   2.670   9.102  0.4608 -0.5313  0.4400
  119OSM   H16S12569   4.110   2.743   9.026  1.2516 -0.5125  0.8422
  119OSM   H16T12570   3.965   2.645   9.092  0.7498 -1.8896  0.5091
  119OSM   C17S12571   4.136   2.539   9.064 -0.1078 -0.6631 -0.1533
  119OSM   H17S12572   4.111   2.456   9.134 -0.2037 -1.1632 -0.7820
  119OSM   H17T12573   4.244   2.559   9.085  0.0445 -0.4334 -1.1347
  119OSM   C18S12574   4.105   2.498   8.924 -0.0525 -0.4755  0.0009
  119OSM   H18S12575   4.153   2.403   8.892  1.2095  0.6164 -1.5031
  119OSM   H18T12576   4.145   2.565   8.845 -0.6948 -0.8016 -0.6115
  119OSM   H18U12577   3.995   2.494   8.911 -0.1521  0.6762  0.3789
  119OSM    C1F12578   3.698   3.048  10.442 -1.2304  0.3798 -0.0806
  119OSM     OF12579   3.719   3.148  10.507  0.4231 -0.5596 -0.5536
  119OSM    C2F12580   3.608   3.050  10.318  0.3353 -0.9528  0.1335
  119OSM    H2F12581   3.600   3.159  10.295  2.8628 -0.6268  0.5647
  119OSM    H2G12582   3.507   3.008  10.340 -1.0413  0.4319 -2.9509
  119OSM    C3F12583   3.681   2.998  10.193 -0.2660 -0.2489  0.2868
  119OSM    H3F12584   3.666   2.888  10.195  0.0391 -0.2981 -0.0153
  119OSM    H3G12585   3.790   3.012  10.206 -0.4916  1.4727  0.5908
  119OSM    C4F12586   3.627   3.063  10.068 -0.2208  0.4201  0.7287
  119OSM    H4F12587   3.639   3.173  10.065  0.2346  0.4125  1.8368
  119OSM    H4G12588   3.518   3.044  10.067 -0.3141  0.7989 -1.5029
  119OSM    C5F12589   3.687   3.004   9.938  0.6657 -0.4152  0.2161
  119OSM    H5F12590   3.661   2.896   9.932 -3.4726  0.4408 -0.1027
  119OSM    H5G12591   3.798   3.004   9.938  0.7018 -1.6582 -1.6464
  119OSM    C6F12592   3.629   3.083   9.816 -0.1232  0.8719  0.2143
  119OSM    H6F12593   3.660   3.190   9.820  0.1582  0.9299 -1.9551
  119OSM    H6G12594   3.519   3.087   9.830 -0.2605  0.7477 -0.7222
  119OSM    C7F12595   3.670   3.039   9.675 -0.0912 -0.6339 -1.0685
  119OSM    H7F12596   3.781   3.034   9.676  0.0091  1.0831 -0.1227
  119OSM    H7G12597   3.624   3.111   9.604  1.2765  0.5076 -0.8430
  119OSM    C8F12598   3.626   2.897   9.629  0.2369 -0.2323 -0.8602
  119OSM    H8F12599   3.517   2.919   9.641  0.5045  0.8598 -0.2884
  119OSM    H8G12600   3.661   2.830   9.710  0.8290  1.0573 -0.0149
  119OSM    C9F12601   3.674   2.849   9.492 -0.6022 -0.0596  0.0081
  119OSM    H9F12602   3.775   2.806   9.490  0.1637  1.5139  1.9440
  119OSM   C10F12603   3.609   2.868   9.381  1.0726 -0.2345  0.0662
  119OSM   H10F12604   3.658   2.821   9.294  0.6999 -1.6166  0.5811
  119OSM   C11F12605   3.480   2.924   9.342 -0.0760 -0.5000  0.1880
  119OSM   H11F12606   3.494   3.009   9.272 -0.3883 -1.8584 -1.5986
  119OSM   H11G12607   3.423   2.961   9.430  0.6481  0.7299  0.1594
  119OSM   C12F12608   3.390   2.825   9.262  0.2943 -0.2449 -0.1258
  119OSM   H12F12609   3.299   2.881   9.231 -1.0462 -1.7896  0.8439
  119OSM   H12G12610   3.367   2.740   9.329 -2.2263  0.1753 -0.3393
  119OSM   C13F12611   3.452   2.764   9.136  0.1615 -0.5948 -0.2504
  119OSM   H13F12612   3.528   2.683   9.145 -0.8839 -1.8187 -1.7776
  119OSM   H13G12613   3.491   2.843   9.069  2.6349 -0.3500  1.3645
  119OSM   C14F12614   3.341   2.698   9.051 -0.6232  0.9071 -0.3939
  119OSM   H14F12615   3.254   2.767   9.059 -0.8418  0.4448  1.8320
  119OSM   H14G12616   3.311   2.599   9.090 -2.5580  1.0055 -1.5397
  119OSM   C15F12617   3.379   2.683   8.902 -0.3896 -0.2863  0.8143
  119OSM   H15F12618   3.478   2.635   8.885 -0.2214  0.7967 -1.7612
  119OSM   H15G12619   3.384   2.788   8.867 -1.5437 -1.1953 -2.3933
  119OSM   C16F12620   3.275   2.604   8.831 -0.1652 -0.2681 -0.0934
  119OSM   H16F12621   3.176   2.651   8.850 -0.1558  0.0095 -0.7031
  119OSM   H16G12622   3.271   2.500   8.868 -0.0433  0.3622  1.8230
  119OSM   C17F12623   3.287   2.600   8.680  0.1172 -0.0454  0.0876
  119OSM   H17F12624   3.388   2.566   8.650  0.9948  2.1798  0.3884
  119OSM   H17G12625   3.283   2.703   8.639 -0.5182 -0.6446 -1.4229
  119OSM   C18F12626   3.177   2.516   8.617 -0.4350 -0.5935 -0.6359
  119OSM   H18F12627   3.175   2.531   8.507 -1.6755 -0.5602 -0.6311
  119OSM   H18G12628   3.079   2.546   8.662  0.7204  0.0757  1.5760
  119OSM   H18H12629   3.186   2.406   8.628 -1.3264 -1.1593 -4.1965
  120OSM      N12630   0.228   5.938  10.697  0.2970 -0.1468 -0.6029
  120OSM    C1512631   0.256   6.050  10.799  0.2789 -0.3145  0.6597
  120OSM   H15A12632   0.344   6.024  10.856 -0.1214 -0.9554  0.9886
  120OSM   H15B12633   0.170   6.055  10.864  0.2333 -3.0545  0.9357
  120OSM   H15C12634   0.273   6.142  10.745 -4.2118  0.3378  0.0024
  120OSM    C1412635   0.311   5.957  10.579 -0.5328  0.6174 -0.1671
  120OSM   H14A12636   0.268   5.896  10.500 -3.0251 -1.0547  2.2749
  120OSM   H14B12637   0.413   5.925  10.593 -0.3522  0.4901 -1.5880
  120OSM   H14C12638   0.301   6.059  10.543 -0.7089  0.6587 -0.0035
  120OSM    C1312639   0.257   5.803  10.769  0.6784  0.3034  0.1066
  120OSM   H13A12640   0.358   5.807  10.806  0.0010  2.6189  1.9882
  120OSM   H13B12641   0.240   5.719  10.704 -1.4026  0.6003  0.2073
  120OSM   H13C12642   0.187   5.790  10.851  2.4351 -0.3453  1.5700
  120OSM    C1212643   0.084   5.938  10.658 -0.3473 -0.6971 -0.7498
  120OSM   H12A12644   0.033   5.930  10.752 -0.2788  0.3418 -0.6081
  120OSM   H12B12645   0.072   5.847  10.600 -0.2391  0.5240 -2.7972
  120OSM    C1112646   0.029   6.070  10.592  0.1445  0.3725 -0.0034
  120OSM   H11A12647  -0.051   6.041  10.520  1.3531  2.2725 -2.2284
  120OSM   H11B12648   0.106   6.111  10.524  1.1235 -1.0823  0.1949
  120OSM      P12649  -0.126   6.190  10.766 -0.2789 -0.1287 -0.1291
  120OSM    O1312650  -0.160   6.074  10.854  0.1756 -0.6490  0.2079
  120OSM    O1412651  -0.124   6.319  10.836  0.9208 -0.0028 -0.7784
  120OSM    O1112652  -0.228   6.194  10.645  0.1286 -0.8155  0.1779
  120OSM    O1212653   0.009   6.173  10.687  0.0890 -0.5925  0.7997
  120OSM    C1S12654  -0.260   6.316  10.579 -0.8022 -0.3006 -0.0107
  120OSM    H1S12655  -0.175   6.388  10.578 -0.5014 -0.6228  1.0286
  120OSM    H1T12656  -0.337   6.370  10.638  1.1667  1.9521  0.6952
  120OSM     NF12657  -0.337   6.421  10.369  0.2055  0.4447  0.4349
  120OSM    HNF12658  -0.428   6.434  10.330  1.8049 -0.8038 -4.5434
  120OSM    C2S12659  -0.314   6.295  10.437  0.4319 -0.2112  0.6438
  120OSM    H2S12660  -0.246   6.236  10.371 -2.0262 -0.5975 -1.6863
  120OSM    C3S12661  -0.436   6.205  10.432  0.0295  0.4094 -0.0433
  120OSM    H3S12662  -0.518   6.241  10.498 -0.2110 -0.3557  0.0821
  120OSM     O312663  -0.408   6.075  10.483  0.3244  0.3655 -0.0972
  120OSM    HO312664  -0.312   6.081  10.487  0.4454 -1.1929 -0.2154
  120OSM    C4S12665  -0.501   6.192  10.290  0.8507  0.2449 -0.8898
  120OSM    H4S12666  -0.581   6.266  10.276  0.8486  0.3114 -0.5294
  120OSM    C5S12667  -0.473   6.092  10.199 -0.1550 -0.9108  0.0513
  120OSM    H5S12668  -0.390   6.023  10.217 -0.9492 -1.3894  2.2213
  120OSM    C6S12669  -0.538   6.083  10.064  0.2004 -0.0169 -0.6068
  120OSM    H6S12670  -0.647   6.069  10.082  0.2601  0.1995 -0.0456
  120OSM    H6T12671  -0.506   5.990  10.012 -2.3455 -1.7555  0.7000
  120OSM    C7S12672  -0.501   6.194   9.961 -0.4921  0.0806 -0.2673
  120OSM    H7S12673  -0.395   6.178   9.933  0.2618  1.1916  1.7948
  120OSM    H7T12674  -0.513   6.294  10.009 -0.3390  0.9752 -2.0034
  120OSM    C8S12675  -0.597   6.186   9.836 -0.0433  0.1788 -0.0594
  120OSM    H8S12676  -0.558   6.275   9.782  2.1320 -0.4677  0.3313
  120OSM    H8T12677  -0.701   6.203   9.870  0.1992 -1.6250  1.8457
  120OSM    C9S12678  -0.583   6.052   9.752 -0.4520 -0.8753  0.3584
  120OSM    H9S12679  -0.631   5.973   9.814 -1.5611 -0.1982  0.3946
  120OSM    H9T12680  -0.476   6.028   9.737 -0.3960 -1.5728  1.7659
  120OSM   C10S12681  -0.653   6.071   9.615 -0.5225  0.7769 -0.1259
  120OSM   H10S12682  -0.671   6.178   9.591 -0.1043  1.4368  2.1934
  120OSM   H10T12683  -0.763   6.057   9.625 -0.2004 -1.7337  0.5867
  120OSM   C11S12684  -0.601   5.986   9.502  0.0144 -0.4194 -0.3995
  120OSM   H11S12685  -0.592   5.881   9.539 -0.6397 -1.2717 -2.4910
  120OSM   H11T12686  -0.494   6.015   9.486  0.1533 -0.8921 -0.3511
  120OSM   C12S12687  -0.685   5.983   9.379 -0.1730 -0.0243 -0.0477
  120OSM   H12S12688  -0.787   6.019   9.407  0.2023  0.7446  0.3587
  120OSM   H12T12689  -0.680   5.881   9.334 -2.8555 -1.8084  3.1674
  120OSM   C13S12690  -0.649   6.079   9.260 -0.0164  0.0517 -0.2739
  120OSM   H13S12691  -0.547   6.057   9.221  0.4298 -0.6424  1.2091
  120OSM   H13T12692  -0.644   6.180   9.305  2.3552  0.0535 -0.3981
  120OSM   C14S12693  -0.752   6.068   9.150  0.3608  0.2292 -0.1791
  120OSM   H14S12694  -0.854   6.054   9.191  0.3812 -0.8621 -0.4903
  120OSM   H14T12695  -0.736   5.981   9.084  0.6482 -0.8143  1.2229
  120OSM   C15S12696  -0.752   6.189   9.055  0.0503 -0.6191  0.5224
  120OSM   H15S12697  -0.727   6.280   9.112  0.3769  0.5399 -1.3941
  120OSM   H15T12698  -0.855   6.211   9.018  0.0518 -0.9444  0.3172
  120OSM   C16S12699  -0.644   6.172   8.943  0.4916 -0.1807  0.3202
  120OSM   H16S12700  -0.656   6.071   8.898 -0.0768  0.1896 -0.3879
  120OSM   H16T12701  -0.553   6.175   9.007 -0.0812  1.1030  1.1319
  120OSM   C17S12702  -0.655   6.285   8.841  0.3385 -0.2839 -0.1046
  120OSM   H17S12703  -0.612   6.373   8.893 -1.8095  1.9992 -1.9238
  120OSM   H17T12704  -0.764   6.305   8.832  0.0640 -1.1087  1.1845
  120OSM   C18S12705  -0.587   6.256   8.709  0.2991 -0.4601 -0.0830
  120OSM   H18S12706  -0.479   6.231   8.708 -0.0945 -2.2661 -1.1098
  120OSM   H18T12707  -0.597   6.347   8.645  0.7821 -0.1927  0.2168
  120OSM   H18U12708  -0.640   6.170   8.662  0.9688 -0.7294 -0.3489
  120OSM    C1F12709  -0.241   6.511  10.345  0.6286 -0.6653 -1.0684
  120OSM     OF12710  -0.125   6.488  10.375  0.4628 -0.2525 -0.0563
  120OSM    C2F12711  -0.288   6.637  10.280 -0.2134 -0.1032  0.5990
  120OSM    H2F12712  -0.308   6.710  10.361 -0.3989  0.9785 -0.4029
  120OSM    H2G12713  -0.386   6.612  10.234  0.7341 -3.3893  0.0920
  120OSM    C3F12714  -0.190   6.714  10.191 -0.0758  0.1677 -0.2949
  120OSM    H3F12715  -0.100   6.727  10.256  0.6094 -0.0522 -1.1935
  120OSM    H3G12716  -0.222   6.817  10.162 -0.0199 -0.0301 -1.0782
  120OSM    C4F12717  -0.165   6.643  10.063 -0.0986  0.5751  0.8249
  120OSM    H4F12718  -0.128   6.539  10.076 -1.0246 -0.1701 -1.8660
  120OSM    H4G12719  -0.084   6.679   9.996  0.1836  1.4204  1.6034
  120OSM    C5F12720  -0.293   6.631   9.975 -0.6414  0.4473  0.0762
  120OSM    H5F12721  -0.325   6.733   9.943  0.7189  1.2591  1.2169
  120OSM    H5G12722  -0.379   6.582  10.026 -0.0525 -0.5530  0.1229
  120OSM    C6F12723  -0.255   6.564   9.842 -0.4895 -0.3635  0.0677
  120OSM    H6F12724  -0.220   6.463   9.869 -1.3440 -0.8667 -0.6520
  120OSM    H6G12725  -0.172   6.616   9.790  1.0222 -2.6837  0.0243
  120OSM    C7F12726  -0.380   6.554   9.753  0.2281  0.4108  0.2840
  120OSM    H7F12727  -0.424   6.655   9.735  0.2333  0.3816  0.1108
  120OSM    H7G12728  -0.453   6.488   9.805  0.5592 -0.9700 -0.9459
  120OSM    C8F12729  -0.341   6.501   9.613 -1.1653  0.3359  0.4129
  120OSM    H8F12730  -0.276   6.411   9.623 -0.3692  0.8717  0.1046
  120OSM    H8G12731  -0.272   6.566   9.555  1.2683  0.3276  3.1031
  120OSM    C9F12732  -0.476   6.468   9.548  0.1067 -0.2446 -0.0782
  120OSM    H9F12733  -0.551   6.456   9.626  1.6465 -0.2014  1.4645
  120OSM   C10F12734  -0.517   6.457   9.419 -0.0393 -0.6519  0.5493
  120OSM   H10F12735  -0.626   6.445   9.407 -0.4320  2.8772 -0.8051
  120OSM   C11F12736  -0.436   6.477   9.295  0.0236 -0.0571  0.1891
  120OSM   H11F12737  -0.463   6.394   9.227 -1.9432 -0.0847  0.9395
  120OSM   H11G12738  -0.326   6.460   9.306  0.6062  2.1494 -1.4846
  120OSM   C12F12739  -0.468   6.612   9.224 -0.0958 -0.2849  0.1987
  120OSM   H12F12740  -0.470   6.693   9.300  1.3697 -0.3952  0.3873
  120OSM   H12G12741  -0.570   6.594   9.184  0.3063 -2.5550  0.1028
  120OSM   C13F12742  -0.359   6.647   9.123 -0.2680  0.4536 -0.5188
  120OSM   H13F12743  -0.270   6.648   9.189 -1.9847 -0.0421  1.9454
  120OSM   H13G12744  -0.382   6.743   9.071 -2.9591 -0.9210 -2.1418
  120OSM   C14F12745  -0.323   6.533   9.028 -0.1638 -0.2034 -0.1760
  120OSM   H14F12746  -0.423   6.502   8.990 -0.3227 -0.5529  0.5109
  120OSM   H14G12747  -0.285   6.454   9.096  1.3752  0.7266  0.0940
  120OSM   C15F12748  -0.231   6.555   8.912  0.7626  0.3402 -0.8233
  120OSM   H15F12749  -0.234   6.465   8.847  0.4777  1.0545 -1.8257
  120OSM   H15G12750  -0.132   6.583   8.954  0.7852  1.6139 -1.6814
  120OSM   C16F12751  -0.264   6.682   8.834 -0.6475  0.0189  0.0656
  120OSM   H16F12752  -0.186   6.684   8.755 -0.7028 -0.3810  0.0009
  120OSM   H16G12753  -0.254   6.772   8.899 -0.0395  0.8855 -1.1944
  120OSM   C17F12754  -0.409   6.677   8.775 -0.6430 -0.0018  0.3910
  120OSM   H17F12755  -0.476   6.675   8.863 -1.4134 -3.6794 -0.1429
  120OSM   H17G12756  -0.420   6.586   8.712 -1.4513  0.5583 -0.3073
  120OSM   C18F12757  -0.446   6.794   8.686  0.4166  0.3303 -0.1464
  120OSM   H18F12758  -0.401   6.773   8.586 -1.1945 -2.7008 -0.3269
  120OSM   H18G12759  -0.402   6.888   8.727  1.8500 -0.6679  0.7249
  120OSM   H18H12760  -0.553   6.814   8.665 -0.1369 -2.3366 -0.1430
  121OSM      N12761   4.073   1.808  10.962 -0.1750 -0.3173 -0.2283
  121OSM    C1512762   4.021   1.774  11.100  0.2534  0.4601  0.3811
  121OSM   H15A12763   4.090   1.813  11.174  0.8912  0.8988 -0.4274
  121OSM   H15B12764   4.027   1.667  11.112 -1.1444  0.2624 -0.4631
  121OSM   H15C12765   3.924   1.820  11.112 -0.3601 -0.5761 -0.4037
  121OSM    C1412766   3.985   1.747  10.854  0.3519 -0.6066 -0.0704
  121OSM   H14A12767   4.027   1.765  10.756 -0.5694 -0.6986 -0.4924
  121OSM   H14B12768   3.882   1.780  10.847  0.3152 -0.5180  0.7521
  121OSM   H14C12769   3.974   1.640  10.862  0.4214 -0.6058  0.0409
  121OSM    C1312770   4.072   1.957  10.944 -0.1018 -0.3395  0.7623
  121OSM   H13A12771   3.973   2.001  10.943 -0.9270 -2.1189  1.2904
  121OSM   H13B12772   4.131   1.992  10.860 -0.7009  0.5430  0.6888
  121OSM   H13C12773   4.123   2.000  11.029 -1.5131  2.4630  0.3379
  121OSM    C1212774   4.212   1.750  10.948 -0.5029  0.1396  0.1489
  121OSM   H12A12775   4.226   1.647  10.980 -1.7144 -1.1484 -2.9876
  121OSM   H12B12776   4.266   1.809  11.020 -0.6352 -0.6258  0.8986
  121OSM    C1112777   4.290   1.758  10.808  0.7206 -0.4526 -0.1854
  121OSM   H11A12778   4.234   1.700  10.731  1.8338 -1.9810  0.1008
  121OSM   H11B12779   4.387   1.703  10.819  0.7142 -0.8025 -1.6470
  121OSM      P12780   4.431   1.979  10.845 -0.0241 -0.1359 -0.4961
  121OSM    O1312781   4.434   2.116  10.790 -0.3012 -0.0146  0.3862
  121OSM    O1412782   4.423   1.968  10.995 -0.4251 -0.0692 -0.2084
  121OSM    O1112783   4.564   1.904  10.801  0.0588  0.4148  0.9382
  121OSM    O1212784   4.309   1.901  10.776 -0.2795 -0.2521  0.5606
  121OSM    C1S12785   4.584   1.860  10.668 -0.3442 -0.8507  0.0018
  121OSM    H1S12786   4.491   1.816  10.625  0.3176 -1.9068 -0.3892
  121OSM    H1T12787   4.665   1.785  10.655  0.7481  0.0969  1.0903
  121OSM     NF12788   4.647   1.912  10.437  0.6972 -0.6163  0.1543
  121OSM    HNF12789   4.739   1.878  10.414  0.0623 -0.5229 -2.8858
  121OSM    C2S12790   4.632   1.972  10.563 -0.2312  0.1221 -0.0955
  121OSM    H2S12791   4.551   2.048  10.563 -0.1860  0.1701 -0.2034
  121OSM    C3S12792   4.759   2.037  10.616  0.3977 -0.0855  0.1443
  121OSM    H3S12793   4.846   1.969  10.627  0.1766 -0.7303 -1.7450
  121OSM     O312794   4.755   2.102  10.742  0.3191  1.0766  0.0872
  121OSM    HO312795   4.671   2.072  10.779 -1.1173  1.8978 -2.2443
  121OSM    C4S12796   4.793   2.146  10.521  0.1069 -0.9244 -0.5383
  121OSM    H4S12797   4.735   2.238  10.533 -0.5309 -1.4059  0.1751
  121OSM    C5S12798   4.902   2.167  10.448 -0.5737  0.0907  0.9744
  121OSM    H5S12799   4.988   2.099  10.448 -2.5358 -2.5874  2.8316
  121OSM    C6S12800   4.914   2.294  10.358 -0.2298  0.0058 -0.2086
  121OSM    H6S12801   4.993   2.358  10.403 -0.3207 -1.5200  2.3684
  121OSM    H6T12802   4.822   2.355  10.367 -1.7217 -1.8620 -1.7543
  121OSM    C7S12803   4.945   2.241  10.218 -0.5173 -0.1399  0.2796
  121OSM    H7S12804   4.867   2.170  10.183 -0.2928 -1.1747  1.7729
  121OSM    H7T12805   5.038   2.183  10.232 -0.8815 -0.7595  0.1829
  121OSM    C8S12806   4.967   2.365  10.126  0.6629  0.0996  0.3167
  121OSM    H8S12807   5.049   2.421  10.175  0.2018  0.5461  0.5904
  121OSM    H8T12808   4.879   2.431  10.140  1.9560  1.4894  2.4857
  121OSM    C9S12809   4.995   2.330   9.979 -0.2959 -0.6162  0.2682
  121OSM    H9S12810   4.918   2.258   9.945 -0.5526  0.0614 -0.6328
  121OSM    H9T12811   5.098   2.289   9.980 -0.6431 -1.5377 -0.2422
  121OSM   C10S12812   4.974   2.452   9.883  0.2158 -0.4399  0.0109
  121OSM   H10S12813   5.056   2.526   9.895 -0.7057  0.3328  1.9706
  121OSM   H10T12814   4.872   2.491   9.904 -0.1740 -1.3302 -0.1884
  121OSM   C11S12815   4.980   2.412   9.733 -0.5474  0.5559 -0.2837
  121OSM   H11S12816   4.888   2.353   9.717  0.8778 -1.4304 -1.5888
  121OSM   H11T12817   5.066   2.343   9.723 -0.6834  0.3389  0.0268
  121OSM   C12S12818   5.013   2.525   9.640 -0.1408 -0.0112 -0.3634
  121OSM   H12S12819   5.094   2.589   9.681 -0.9541  1.4021 -0.8839
  121OSM   H12T12820   4.917   2.578   9.623 -0.9766 -1.3033  0.1702
  121OSM   C13S12821   5.051   2.477   9.506 -0.3795  0.1720  0.0173
  121OSM   H13S12822   5.005   2.376   9.501 -2.0536  0.8306  1.2651
  121OSM   H13T12823   5.162   2.471   9.508 -0.3543  0.4956 -0.2961
  121OSM   C14S12824   4.980   2.542   9.392 -0.9507  0.0016  0.1148
  121OSM   H14S12825   4.872   2.519   9.391 -0.8482 -0.5754 -1.9480
  121OSM   H14T12826   5.007   2.496   9.294 -1.0036  0.4356 -0.1116
  121OSM   C15S12827   5.011   2.692   9.383 -0.0037  0.6854  0.9026
  121OSM   H15S12828   5.118   2.702   9.410  0.6019  1.0885 -1.3879
  121OSM   H15T12829   4.937   2.754   9.439  0.5575  2.1633  0.0878
  121OSM   C16S12830   4.986   2.731   9.234  0.7699 -0.1360  0.1759
  121OSM   H16S12831   4.880   2.725   9.203  1.1245 -1.5565 -0.9124
  121OSM   H16T12832   5.052   2.666   9.172 -0.2558  0.2504 -1.3860
  121OSM   C17S12833   5.026   2.879   9.212 -0.3111  0.4739 -0.0934
  121OSM   H17S12834   5.134   2.885   9.234 -0.4937  1.8394  0.4736
  121OSM   H17T12835   4.974   2.948   9.282 -2.7309 -0.4060 -0.9019
  121OSM   C18S12836   5.013   2.923   9.067 -0.0934  0.1342  0.0682
  121OSM   H18S12837   5.069   3.016   9.042  1.6187 -0.6812  0.7631
  121OSM   H18T12838   4.904   2.935   9.049 -0.3859  0.1798  1.7634
  121OSM   H18U12839   5.056   2.854   8.991 -0.6631 -0.1606  0.0100
  121OSM    C1F12840   4.537   1.881  10.367 -0.1271  0.2274  0.5229
  121OSM     OF12841   4.427   1.901  10.410  0.0829 -0.5990  0.1266
  121OSM    C2F12842   4.568   1.801  10.247  0.0670  0.1228  0.4291
  121OSM    H2F12843   4.507   1.708  10.248 -1.3273  0.9648 -0.7565
  121OSM    H2G12844   4.672   1.763  10.248 -0.1833 -0.5601  1.4552
  121OSM    C3F12845   4.534   1.865  10.109  0.1550 -0.6070 -0.0538
  121OSM    H3F12846   4.578   1.967  10.107 -3.2880  1.0293 -1.9531
  121OSM    H3G12847   4.425   1.888  10.102 -0.2972 -1.7831  2.2767
  121OSM    C4F12848   4.598   1.798   9.990 -0.1258  0.9921 -0.2603
  121OSM    H4F12849   4.563   1.697   9.960  1.6721  0.2265  0.0644
  121OSM    H4G12850   4.696   1.785  10.042 -0.1195 -0.0681 -0.5098
  121OSM    C5F12851   4.616   1.879   9.860 -1.0299 -0.4503  0.5953
  121OSM    H5F12852   4.698   1.839   9.797 -0.1381  3.3136 -0.8960
  121OSM    H5G12853   4.643   1.981   9.895  2.2150 -0.7463 -0.7303
  121OSM    C6F12854   4.490   1.893   9.762 -0.2609  0.3133 -1.0498
  121OSM    H6F12855   4.399   1.929   9.815 -0.0039  0.8123 -0.9457
  121OSM    H6G12856   4.480   1.786   9.732  2.5322 -0.5141  0.5536
  121OSM    C7F12857   4.510   1.972   9.627  0.1616  0.0839 -0.7835
  121OSM    H7F12858   4.527   2.077   9.658  1.2611 -0.2691 -0.1242
  121OSM    H7G12859   4.406   1.971   9.589 -1.0411 -0.6396  2.2561
  121OSM    C8F12860   4.614   1.928   9.529 -0.2668 -0.9391  0.1217
  121OSM    H8F12861   4.578   1.969   9.432  0.9955  1.6982  0.6818
  121OSM    H8G12862   4.618   1.817   9.521  1.4119 -1.0589  1.9155
  121OSM    C9F12863   4.752   1.987   9.556 -0.4002  0.4105  0.5288
  121OSM    H9F12864   4.804   1.932   9.635  0.7470 -1.8505 -1.6730
  121OSM   C10F12865   4.815   2.085   9.488  0.7481  0.6122  0.0869
  121OSM   H10F12866   4.914   2.110   9.530  0.0649  0.3938  1.9078
  121OSM   C11F12867   4.763   2.155   9.360  0.1852  0.2552  0.4927
  121OSM   H11F12868   4.717   2.250   9.395 -3.0474 -1.4450  1.2237
  121OSM   H11G12869   4.682   2.094   9.316  1.0197 -0.1836 -0.4787
  121OSM   C12F12870   4.873   2.178   9.256  0.3756  0.3106 -0.5708
  121OSM   H12F12871   4.919   2.081   9.228  0.1724 -0.7348  2.3165
  121OSM   H12G12872   4.956   2.237   9.302  1.2619 -1.0183 -0.3885
  121OSM   C13F12873   4.826   2.240   9.126 -0.0000  0.2340 -0.1016
  121OSM   H13F12874   4.779   2.337   9.153 -1.5128 -0.4248 -0.2661
  121OSM   H13G12875   4.746   2.177   9.083 -0.3933 -0.9249  2.1452
  121OSM   C14F12876   4.931   2.274   9.020 -0.0571 -0.2215  0.4345
  121OSM   H14F12877   4.995   2.190   8.984  0.8466  0.4356  0.4945
  121OSM   H14G12878   4.997   2.351   9.064  1.6501 -1.3260 -0.0968
  121OSM   C15F12879   4.872   2.337   8.894 -0.5680  0.0963  0.0293
  121OSM   H15F12880   4.803   2.417   8.929 -0.8443  0.0102 -0.3182
  121OSM   H15G12881   4.810   2.258   8.846  0.5264 -0.4012 -0.5893
  121OSM   C16F12882   4.979   2.385   8.797  0.0254 -0.3494 -0.7484
  121OSM   H16F12883   5.064   2.438   8.844 -2.6589  2.2813  1.5641
  121OSM   H16G12884   4.942   2.466   8.730 -0.0172  0.1630 -0.1065
  121OSM   C17F12885   5.025   2.269   8.705  0.0493  0.5432  0.1973
  121OSM   H17F12886   4.940   2.212   8.661  0.4711  1.0307 -1.2975
  121OSM   H17G12887   5.085   2.190   8.757 -1.8767 -2.1838 -1.4569
  121OSM   C18F12888   5.098   2.320   8.589 -0.3324  0.0496  0.0658
  121OSM   H18F12889   5.179   2.389   8.621 -0.0896  0.9474 -2.2556
  121OSM   H18G12890   5.042   2.380   8.514 -2.9510 -1.7512  0.4538
  121OSM   H18H12891   5.140   2.239   8.525  0.7689  2.1109 -1.9540
  122OSM      N12892   6.126   6.146  11.110 -0.2117 -0.0112 -0.2812
  122OSM    C1512893   6.135   6.009  11.154  0.0926 -0.3379 -0.2872
  122OSM   H15A12894   6.102   5.995  11.256 -1.7487  0.8031 -0.6762
  122OSM   H15B12895   6.232   5.964  11.142  0.8682  1.1632  0.1199
  122OSM   H15C12896   6.067   5.951  11.093 -1.3164  0.7403  0.1965
  122OSM    C1412897   5.993   6.196  11.159  0.1303 -0.1137  0.2929
  122OSM   H14A12898   5.912   6.146  11.107  0.6620 -0.7875  0.0984
  122OSM   H14B12899   5.986   6.303  11.144  1.1113 -0.1669 -0.6808
  122OSM   H14C12900   5.994   6.185  11.266  2.0665  1.0947  0.4468
  122OSM    C1312901   6.229   6.226  11.169  0.4731  0.0781 -0.5140
  122OSM   H13A12902   6.227   6.215  11.276 -1.5809  0.7640 -0.4363
  122OSM   H13B12903   6.216   6.332  11.151  4.0500  0.7640  0.1070
  122OSM   H13C12904   6.328   6.209  11.129  0.3743 -1.5531 -0.1238
  122OSM    C1212905   6.136   6.165  10.963 -0.1367 -0.0425  0.1062
  122OSM   H12A12906   6.239   6.145  10.938 -0.2003  1.2230 -1.3466
  122OSM   H12B12907   6.118   6.269  10.940  0.0182  0.2366  1.1810
  122OSM    C1112908   6.032   6.087  10.880 -0.0817  0.7784 -0.1592
  122OSM   H11A12909   6.053   5.979  10.896 -0.2125  0.8443  0.4577
  122OSM   H11B12910   6.054   6.117  10.775 -0.4834  1.3079 -0.0950
  122OSM      P12911   5.777   6.018  10.858  0.2014 -0.5045 -0.0560
  122OSM    O1312912   5.790   5.895  10.943 -0.1187  0.2958 -0.0714
  122OSM    O1412913   5.651   6.089  10.877  0.0883  0.0448 -0.3779
  122OSM    O1112914   5.812   5.982  10.706 -0.0473  0.4652 -0.2778
  122OSM    O1212915   5.895   6.123  10.909  0.4147 -0.1248  0.0448
  122OSM    C1S12916   5.779   6.061  10.594 -0.3457 -0.1054 -0.3941
  122OSM    H1S12917   5.860   6.135  10.579 -0.1043 -0.5138 -1.1460
  122OSM    H1T12918   5.679   6.106  10.616  1.2055  1.9231  3.5851
  122OSM     NF12919   5.772   6.073  10.358  0.2581  0.8185 -0.0683
  122OSM    HNF12920   5.680   6.070  10.319 -0.3123 -1.1437  1.2867
  122OSM    C2S12921   5.772   5.979  10.470  0.2918  0.3949 -0.2589
  122OSM    H2S12922   5.861   5.915  10.451  1.0789  1.8687 -1.7838
  122OSM    C3S12923   5.644   5.884  10.481  0.8515  0.1143 -0.2211
  122OSM    H3S12924   5.550   5.944  10.487  0.1443 -0.9461 -0.3282
  122OSM     O312925   5.626   5.807  10.598 -0.6257  0.3684  0.1412
  122OSM    HO312926   5.692   5.841  10.660 -0.7560 -0.1310  0.5620
  122OSM    C4S12927   5.634   5.788  10.367 -0.8294 -0.1727  0.1628
  122OSM    H4S12928   5.703   5.703  10.371 -0.6151 -0.1781 -2.2098
  122OSM    C5S12929   5.549   5.793  10.268  0.6181 -0.8718  0.7619
  122OSM    H5S12930   5.488   5.884  10.261  1.3540 -0.4290  0.0262
  122OSM    C6S12931   5.543   5.693  10.156 -0.0419  0.5371  0.2230
  122OSM    H6S12932   5.460   5.620  10.163 -0.2116  0.7160  0.0725
  122OSM    H6T12933   5.635   5.633  10.136 -1.2836 -1.2196 -0.5047
  122OSM    C7S12934   5.518   5.776  10.030 -0.6150  0.0381  0.1196
  122OSM    H7S12935   5.586   5.865  10.025  0.6255 -0.8943 -0.1159
  122OSM    H7T12936   5.418   5.821  10.044  0.1096  1.6769  0.2832
  122OSM    C8S12937   5.527   5.696   9.892 -0.4618 -0.1900  0.0629
  122OSM    H8S12938   5.474   5.598   9.902 -1.8420  0.3603 -1.3055
  122OSM    H8T12939   5.635   5.672   9.881 -0.8401 -1.5966 -0.8223
  122OSM    C9S12940   5.474   5.781   9.775 -0.1771  0.4444 -0.9793
  122OSM    H9S12941   5.542   5.868   9.764  1.3695 -0.4150  1.1416
  122OSM    H9T12942   5.371   5.818   9.794 -0.0851  1.0013 -1.5269
  122OSM   C10S12943   5.488   5.709   9.644  0.4100 -0.3317 -0.0210
  122OSM   H10S12944   5.441   5.609   9.652  0.5184 -0.2423  2.5084
  122OSM   H10T12945   5.595   5.697   9.615  0.9297  0.3405  1.5333
  122OSM   C11S12946   5.417   5.786   9.531 -0.1754 -0.0381  0.4208
  122OSM   H11S12947   5.440   5.895   9.530 -2.7903  0.6027  1.7142
  122OSM   H11T12948   5.309   5.779   9.555 -0.1387 -0.6334  0.4107
  122OSM   C12S12949   5.446   5.734   9.388 -0.2048 -0.4748 -0.5268
  122OSM   H12S12950   5.402   5.633   9.370  0.5782 -1.2176  1.4532
  122OSM   H12T12951   5.555   5.716   9.377  0.1786  1.5925 -0.4515
  122OSM   C13S12952   5.389   5.833   9.283  0.1955 -0.6411  0.2692
  122OSM   H13S12953   5.424   5.932   9.320 -0.8694 -0.5231  1.0202
  122OSM   H13T12954   5.279   5.828   9.297 -0.3284 -0.0195 -2.9085
  122OSM   C14S12955   5.436   5.820   9.137 -0.4605  0.1953  0.2122
  122OSM   H14S12956   5.412   5.719   9.098  1.6089 -0.0752 -0.5012
  122OSM   H14T12957   5.547   5.824   9.131 -0.2688 -3.1267 -0.6798
  122OSM   C15S12958   5.378   5.923   9.050  0.2412  0.3253 -0.3570
  122OSM   H15S12959   5.412   6.026   9.074  0.6604 -0.1442  1.1367
  122OSM   H15T12960   5.269   5.911   9.069  0.2554 -0.4121 -0.6788
  122OSM   C16S12961   5.416   5.889   8.906  0.7660 -0.1932 -0.2630
  122OSM   H16S12962   5.401   5.781   8.886  0.3929 -0.3656  0.8825
  122OSM   H16T12963   5.522   5.920   8.908  0.7907 -0.2173  2.4868
  122OSM   C17S12964   5.337   5.975   8.812  0.4710 -1.1665  0.2264
  122OSM   H17S12965   5.349   6.085   8.817 -1.6665 -0.9071  0.4349
  122OSM   H17T12966   5.229   5.956   8.828  0.7389 -1.0710  2.2993
  122OSM   C18S12967   5.373   5.932   8.672  0.0674 -0.1371 -0.3240
  122OSM   H18S12968   5.325   5.833   8.658 -0.2030  0.0895 -1.0286
  122OSM   H18T12969   5.479   5.936   8.638  0.6606 -0.0829  1.4232
  122OSM   H18U12970   5.315   5.992   8.599  0.5579  1.1261  0.2941
  122OSM    C1F12971   5.871   6.143  10.308 -0.2470  0.2870  0.1294
  122OSM     OF12972   5.986   6.130  10.350  0.4567  0.1079  0.0723
  122OSM    C2F12973   5.840   6.227  10.184 -0.1702 -0.6684  0.2291
  122OSM    H2F12974   5.921   6.300  10.161 -0.6606  0.1165  0.9472
  122OSM    H2G12975   5.742   6.274  10.205 -0.7230 -1.4437 -0.5355
  122OSM    C3F12976   5.812   6.149  10.052 -0.5454  0.1851 -0.6689
  122OSM    H3F12977   5.721   6.087  10.066 -1.6987  1.6634 -1.2842
  122OSM    H3G12978   5.893   6.077  10.033 -0.9240 -0.2187 -0.7753
  122OSM    C4F12979   5.787   6.239   9.928 -0.0081  0.1276  0.2696
  122OSM    H4F12980   5.881   6.297   9.916  0.1474 -0.3431 -0.9309
  122OSM    H4G12981   5.700   6.307   9.934  1.0451  1.5063  0.4215
  122OSM    C5F12982   5.765   6.138   9.814  0.3394  0.0971  0.1218
  122OSM    H5F12983   5.676   6.074   9.829  1.5561 -1.6675  0.0640
  122OSM    H5G12984   5.845   6.062   9.824 -0.3408 -0.3046  4.1732
  122OSM    C6F12985   5.757   6.208   9.674 -0.1198  0.1312 -0.3979
  122OSM    H6F12986   5.850   6.267   9.661  0.3830 -0.4652  0.3412
  122OSM    H6G12987   5.686   6.288   9.703 -0.1303 -1.4634  5.0265
  122OSM    C7F12988   5.728   6.109   9.563  0.2700 -0.0752 -0.2776
  122OSM    H7F12989   5.630   6.061   9.586  1.3479 -2.5634 -0.5887
  122OSM    H7G12990   5.805   6.030   9.558 -0.5431 -0.8735 -0.4079
  122OSM    C8F12991   5.695   6.184   9.433 -0.3078 -0.0719 -0.4757
  122OSM    H8F12992   5.773   6.261   9.416 -0.2827 -0.0998 -0.4840
  122OSM    H8G12993   5.599   6.239   9.443 -1.6027 -2.3087  0.0496
  122OSM    C9F12994   5.681   6.091   9.317 -0.0178  1.3260 -0.4809
  122OSM    H9F12995   5.712   5.989   9.344  0.5560  1.6923  0.3053
  122OSM   C10F12996   5.647   6.126   9.190  0.3212  0.4242  0.1242
  122OSM   H10F12997   5.620   6.052   9.113  1.8934  0.0326 -0.0857
  122OSM   C11F12998   5.605   6.268   9.164 -0.2798  0.1730  0.1527
  122OSM   H11F12999   5.697   6.330   9.172  0.1771 -0.4929  0.1817
  122OSM   H11G13000   5.540   6.305   9.246 -1.8047  1.6629 -1.6505
  122OSM   C12F13001   5.534   6.293   9.030 -0.8734 -0.3063  0.4299
  122OSM   H12F13002   5.526   6.403   9.016 -2.4031 -0.3925  0.5275
  122OSM   H12G13003   5.433   6.248   9.036 -1.2703  0.6641  1.3664
  122OSM   C13F13004   5.620   6.244   8.906  0.7322  0.0418 -0.0887
  122OSM   H13F13005   5.627   6.134   8.919  2.4136  0.3642  2.4114
  122OSM   H13G13006   5.724   6.276   8.929  0.5337 -0.1896  1.1618
  122OSM   C14F13007   5.560   6.302   8.776  0.3625 -0.5153 -0.1297
  122OSM   H14F13008   5.549   6.411   8.790 -0.6278 -0.5118 -0.8216
  122OSM   H14G13009   5.454   6.266   8.774 -0.0762  0.7295 -0.5057
  122OSM   C15F13010   5.637   6.252   8.658 -0.1960  0.2310  0.5651
  122OSM   H15F13011   5.630   6.141   8.666  0.6836  0.2823  3.1758
  122OSM   H15G13012   5.741   6.290   8.664 -0.2306  0.6979 -1.2866
  122OSM   C16F13013   5.597   6.308   8.520 -0.1914 -0.4675  0.0436
  122OSM   H16F13014   5.647   6.236   8.451 -2.1799 -2.0519  0.1617
  122OSM   H16G13015   5.633   6.412   8.507  1.4404 -0.3957  3.8381
  122OSM   C17F13016   5.448   6.306   8.469  0.1709 -0.2095  0.2227
  122OSM   H17F13017   5.378   6.364   8.532  0.1171  0.2460 -0.2526
  122OSM   H17G13018   5.417   6.201   8.488 -1.4681  0.3727  0.9113
  122OSM   C18F13019   5.428   6.349   8.318 -0.2055  0.5557 -0.3101
  122OSM   H18F13020   5.422   6.459   8.304 -1.2936  0.5061 -0.2711
  122OSM   H18G13021   5.337   6.297   8.282 -1.1573  0.9810  1.3957
  122OSM   H18H13022   5.513   6.319   8.252  0.6001  1.8716  0.1106
  123OSM      N13023   3.634   4.984   5.718 -0.1541 -0.7313  0.1506
  123OSM    C1513024   3.532   4.876   5.717  0.4350  0.2168  0.3143
  123OSM   H15A13025   3.530   4.827   5.621 -4.4872 -0.8023  0.6798
  123OSM   H15B13026   3.429   4.906   5.725  1.0185  2.7863 -0.7273
  123OSM   H15C13027   3.555   4.795   5.786  0.1798 -1.5347 -1.5749
  123OSM    C1413028   3.771   4.935   5.675  0.3557 -0.9309 -0.0644
  123OSM   H14A13029   3.782   4.837   5.719 -2.7040 -1.6285 -0.5739
  123OSM   H14B13030   3.856   5.000   5.682  1.3607 -2.2482  0.5820
  123OSM   H14C13031   3.763   4.912   5.570  0.8051 -1.1455 -0.0527
  123OSM    C1313032   3.598   5.101   5.627  0.1868  0.1431  0.3603
  123OSM   H13A13033   3.514   5.149   5.675  0.0523  0.7001 -0.4069
  123OSM   H13B13034   3.557   5.083   5.529 -2.5290  0.3532  1.3654
  123OSM   H13C13035   3.672   5.180   5.618 -1.3478  1.5392 -0.4160
  123OSM    C1213036   3.630   5.029   5.868 -0.4778  0.0463 -0.1386
  123OSM   H12A13037   3.549   5.094   5.899 -1.8655 -2.4900  1.9627
  123OSM   H12B13038   3.720   5.085   5.888 -1.6865  1.2621  2.4264
  123OSM    C1113039   3.642   4.912   5.972 -0.0237 -0.4137  0.0897
  123OSM   H11A13040   3.541   4.865   5.978 -0.2778  0.0731 -0.2674
  123OSM   H11B13041   3.644   4.952   6.075  0.9855 -1.8994  0.6753
  123OSM      P13042   3.887   4.834   6.011 -0.4270 -0.2939  0.1287
  123OSM    O1313043   3.961   4.712   5.967  0.0058  0.3190 -0.0021
  123OSM    O1413044   3.950   4.962   5.978 -0.5066  0.4441  0.3913
  123OSM    O1113045   3.872   4.832   6.169  0.2353  0.3590  0.0235
  123OSM    O1213046   3.745   4.822   5.945  0.2870  0.2209  0.2227
  123OSM    C1S13047   3.812   4.709   6.231  0.0938 -0.0666  0.1562
  123OSM    H1S13048   3.884   4.626   6.219 -0.1577 -0.3845  0.7944
  123OSM    H1T13049   3.716   4.680   6.182 -0.2959  1.2448  0.0823
  123OSM     NF13050   3.712   4.620   6.435 -0.3820  0.1646 -0.6482
  123OSM    HNF13051   3.621   4.635   6.471  0.3455 -0.3647  1.5952
  123OSM    C2S13052   3.778   4.730   6.373 -1.1634 -0.2750 -0.4311
  123OSM    H2S13053   3.873   4.745   6.429 -0.8628  1.2385 -1.2905
  123OSM    C3S13054   3.699   4.859   6.397 -0.0621  0.4535  0.2563
  123OSM    H3S13055   3.605   4.840   6.341 -0.7546 -1.0470  1.8398
  123OSM     O313056   3.763   4.975   6.343  0.0134 -0.4370  0.4129
  123OSM    HO313057   3.815   4.929   6.277 -0.5314 -1.0698  0.4147
  123OSM    C4S13058   3.662   4.876   6.536 -0.6894  0.0892 -0.1159
  123OSM    H4S13059   3.558   4.842   6.551 -0.9710  1.4324  1.2624
  123OSM    C5S13060   3.738   4.919   6.640 -0.2299 -0.1645 -0.1846
  123OSM    H5S13061   3.836   4.964   6.616 -0.5730  1.4565  1.2615
  123OSM    C6S13062   3.684   4.941   6.784  0.4303  0.2455  0.1077
  123OSM    H6S13063   3.630   4.855   6.828 -1.2464 -0.7649 -3.5137
  123OSM    H6T13064   3.612   5.026   6.783 -1.4571 -1.2503 -2.1732
  123OSM    C7S13065   3.790   4.978   6.894 -0.1146 -0.1512 -0.2009
  123OSM    H7S13066   3.844   5.069   6.860 -1.7407  0.8390 -0.2010
  123OSM    H7T13067   3.859   4.890   6.894 -0.1270 -0.1756 -1.6693
  123OSM    C8S13068   3.726   5.014   7.029 -0.6641  0.8948 -0.3143
  123OSM    H8S13069   3.677   4.927   7.076  0.3858  1.2433  1.5428
  123OSM    H8T13070   3.653   5.096   7.009 -0.8692  0.3925 -1.7191
  123OSM    C9S13071   3.838   5.062   7.124  0.4479  0.4720  0.2286
  123OSM    H9S13072   3.907   5.122   7.060  1.0431  1.8184  2.0639
  123OSM    H9T13073   3.890   4.970   7.159  0.6571  0.9689  1.2506
  123OSM   C10S13074   3.781   5.139   7.245 -0.2778  0.4545  0.3541
  123OSM   H10S13075   3.852   5.142   7.330 -1.0085  0.8966  0.9595
  123OSM   H10T13076   3.701   5.079   7.293  2.1618 -0.4315  3.7110
  123OSM   C11S13077   3.734   5.281   7.212 -0.8110 -0.4362  0.2333
  123OSM   H11S13078   3.647   5.278   7.142  1.4056  1.2585 -2.8194
  123OSM   H11T13079   3.813   5.318   7.144 -0.5690  0.9856  1.2614
  123OSM   C12S13080   3.697   5.349   7.347 -0.1683 -0.4739 -0.0602
  123OSM   H12S13081   3.781   5.355   7.420  1.4695 -1.0187 -1.8337
  123OSM   H12T13082   3.630   5.279   7.402  0.9295  0.7994  3.1151
  123OSM   C13S13083   3.623   5.481   7.323 -0.4733 -0.0722 -0.3662
  123OSM   H13S13084   3.548   5.457   7.244 -0.0334 -1.9160 -0.2693
  123OSM   H13T13085   3.698   5.557   7.293  2.1935 -1.9855  1.1019
  123OSM   C14S13086   3.536   5.529   7.443 -0.0442 -0.1540 -1.1411
  123OSM   H14S13087   3.453   5.459   7.465 -0.8597  0.7859 -1.1043
  123OSM   H14T13088   3.483   5.622   7.412 -0.8360 -0.8980 -2.0999
  123OSM   C15S13089   3.611   5.555   7.578 -0.0407  0.2327 -0.2105
  123OSM   H15S13090   3.695   5.625   7.563 -0.4570  0.5723 -1.0425
  123OSM   H15T13091   3.649   5.468   7.636  1.4122  2.4249  2.3707
  123OSM   C16S13092   3.525   5.636   7.676 -0.2753 -0.2795  0.0558
  123OSM   H16S13093   3.440   5.575   7.713  0.3067 -0.5435  1.0067
  123OSM   H16T13094   3.478   5.728   7.634  1.9149  1.6418  1.5228
  123OSM   C17S13095   3.605   5.681   7.800  0.1996 -1.0329 -1.1185
  123OSM   H17S13096   3.530   5.704   7.880  0.5899 -1.6021 -0.5802
  123OSM   H17T13097   3.663   5.775   7.787  2.4097 -2.0531  0.6796
  123OSM   C18S13098   3.703   5.579   7.854 -0.4215  0.7039  0.2590
  123OSM   H18S13099   3.743   5.601   7.955  0.3952  0.0413  0.0945
  123OSM   H18T13100   3.792   5.567   7.788 -0.3995 -3.0133  0.7646
  123OSM   H18U13101   3.658   5.477   7.857  1.1850 -0.0639 -0.4827
  123OSM    C1F13102   3.761   4.492   6.449 -0.1653 -0.9304 -0.7140
  123OSM     OF13103   3.861   4.454   6.395  0.0056  0.0673 -0.3335
  123OSM    C2F13104   3.686   4.403   6.543 -0.6333 -0.2475 -0.5916
  123OSM    H2F13105   3.755   4.316   6.556 -3.2728 -2.6141 -1.4622
  123OSM    H2G13106   3.600   4.368   6.482  1.1593 -0.8505 -2.9796
  123OSM    C3F13107   3.655   4.466   6.685 -0.0220  0.1789  0.5728
  123OSM    H3F13108   3.605   4.386   6.745  1.6308  0.0709  1.8751
  123OSM    H3G13109   3.585   4.551   6.677 -0.5661 -0.3354 -0.2717
  123OSM    C4F13110   3.773   4.515   6.769  0.5271 -0.3395  0.5488
  123OSM    H4F13111   3.794   4.616   6.726 -1.1143  0.4392  1.4956
  123OSM    H4G13112   3.861   4.450   6.751 -1.0708 -2.2787 -0.6942
  123OSM    C5F13113   3.729   4.526   6.914  0.0690  0.4447  0.2866
  123OSM    H5F13114   3.716   4.422   6.951  1.8801  0.4019  0.9167
  123OSM    H5G13115   3.632   4.578   6.922 -0.1385  0.4367 -1.7809
  123OSM    C6F13116   3.843   4.591   6.999 -0.2071 -0.2512 -0.3294
  123OSM    H6F13117   3.889   4.683   6.959 -0.3646 -0.2064 -0.4087
  123OSM    H6G13118   3.930   4.522   6.988  1.7567  1.3019  3.6416
  123OSM    C7F13119   3.790   4.604   7.139 -0.7140  0.0788 -0.0722
  123OSM    H7F13120   3.701   4.670   7.136  0.1321  1.2589  0.0474
  123OSM    H7G13121   3.858   4.664   7.204  0.0157 -1.7122  0.8993
  123OSM    C8F13122   3.753   4.475   7.219  0.2543 -0.4334 -0.1672
  123OSM    H8F13123   3.691   4.410   7.153  2.7790 -2.2559 -0.9231
  123OSM    H8G13124   3.682   4.505   7.298 -0.1350  0.9097 -0.9968
  123OSM    C9F13125   3.879   4.410   7.271  0.7528 -0.1361 -0.5193
  123OSM    H9F13126   3.970   4.412   7.210 -0.5957 -5.2473 -3.3023
  123OSM   C10F13127   3.892   4.362   7.394  0.0454  0.0312  0.2818
  123OSM   H10F13128   3.986   4.310   7.416 -1.2510 -1.5077  2.5109
  123OSM   C11F13129   3.781   4.350   7.498 -0.0932 -0.2997 -0.1535
  123OSM   H11F13130   3.689   4.401   7.461  1.2069 -0.1127 -3.4599
  123OSM   H11G13131   3.814   4.396   7.593  1.2036 -2.0150  0.2635
  123OSM   C12F13132   3.723   4.214   7.525 -0.2855  0.9654 -0.9272
  123OSM   H12F13133   3.671   4.214   7.623  0.0439  0.3542 -0.7412
  123OSM   H12G13134   3.801   4.135   7.537 -2.0510 -0.7030  0.2599
  123OSM   C13F13135   3.620   4.174   7.423  0.2921 -0.2962 -0.3375
  123OSM   H13F13136   3.673   4.182   7.326 -0.6751 -0.5584 -0.9016
  123OSM   H13G13137   3.545   4.256   7.416 -0.3054 -0.9648 -2.7304
  123OSM   C14F13138   3.552   4.036   7.447 -0.3896  0.1811 -0.6701
  123OSM   H14F13139   3.603   3.954   7.501 -0.6118  1.9575  2.4596
  123OSM   H14G13140   3.498   4.003   7.356 -1.6246 -1.4759  0.5832
  123OSM   C15F13141   3.431   4.049   7.551  0.1346 -0.2763  0.2095
  123OSM   H15F13142   3.339   4.056   7.490  0.5331 -1.6924 -0.5973
  123OSM   H15G13143   3.432   4.152   7.594 -0.4764 -0.0553 -0.2767
  123OSM   C16F13144   3.429   3.936   7.658  0.2069  0.1594 -0.2591
  123OSM   H16F13145   3.526   3.947   7.710  0.7480  3.2216 -1.6987
  123OSM   H16G13146   3.436   3.839   7.605 -0.4070 -0.2167  0.3242
  123OSM   C17F13147   3.321   3.936   7.761 -0.7838 -0.2481  0.2537
  123OSM   H17F13148   3.348   3.857   7.834  1.1319 -0.3505 -0.5151
  123OSM   H17G13149   3.215   3.912   7.735 -0.8156  0.2547 -0.0806
  123OSM   C18F13150   3.314   4.068   7.841  1.5349 -0.5125  0.7507
  123OSM   H18F13151   3.411   4.121   7.849  0.9285  0.8206 -0.4360
  123OSM   H18G13152   3.271   4.049   7.942  0.4836  0.7715  0.5707
  123OSM   H18H13153   3.241   4.138   7.796  1.6514  1.7800  3.7871
  124OSM      N13154   6.490   3.537   6.307 -0.2559 -0.8520 -0.6236
  124OSM    C1513155   6.617   3.526   6.375 -0.1666 -0.0890 -0.0492
  124OSM   H15A13156   6.604   3.543   6.480 -3.2458 -0.5402 -0.2823
  124OSM   H15B13157   6.685   3.603   6.341  1.0578  0.1714  2.7444
  124OSM   H15C13158   6.662   3.428   6.364  0.8021  0.3636 -0.2864
  124OSM    C1413159   6.529   3.561   6.166  0.0755 -0.9164  0.3929
  124OSM   H14A13160   6.587   3.652   6.163  0.8059 -1.3883 -0.0524
  124OSM   H14B13161   6.444   3.577   6.102 -0.0537  0.8549  0.9431
  124OSM   H14C13162   6.584   3.471   6.144  0.7368 -1.1145  2.6085
  124OSM    C1313163   6.402   3.423   6.324 -0.5324 -0.3614 -0.0905
  124OSM   H13A13164   6.375   3.414   6.428  2.4962 -1.2635  0.7170
  124OSM   H13B13165   6.459   3.333   6.306  1.0085  0.8068 -1.3871
  124OSM   H13C13166   6.324   3.412   6.251 -1.2316  0.8820  0.4437
  124OSM    C1213167   6.406   3.656   6.347 -0.2347  0.5260  0.1640
  124OSM   H12A13168   6.336   3.678   6.268 -1.0231 -0.7497  0.4778
  124OSM   H12B13169   6.465   3.747   6.346 -0.4542  0.6643 -0.3891
  124OSM    C1113170   6.339   3.659   6.484  0.5984  0.0778 -1.1432
  124OSM   H11A13171   6.334   3.762   6.525 -1.5723  0.5647 -2.4727
  124OSM   H11B13172   6.408   3.603   6.551  0.6712  1.2759 -0.1676
  124OSM      P13173   6.081   3.642   6.413 -0.1712 -0.2392 -0.1730
  124OSM    O1313174   6.119   3.699   6.283 -0.2024 -0.3745 -0.1915
  124OSM    O1413175   5.994   3.527   6.406 -0.2211  0.3660 -0.3746
  124OSM    O1113176   6.025   3.750   6.511 -0.3722  0.5009  0.2735
  124OSM    O1213177   6.215   3.595   6.485 -0.1850  0.0719  0.3462
  124OSM    C1S13178   5.943   3.721   6.627  0.4193  0.0003 -0.0014
  124OSM    H1S13179   5.911   3.614   6.624  2.9489 -0.8214 -0.0086
  124OSM    H1T13180   5.863   3.798   6.632  0.1982 -0.1119 -1.3771
  124OSM     NF13181   5.963   3.685   6.876 -0.0391  0.2021  0.1275
  124OSM    HNF13182   5.916   3.742   6.943  2.8848  0.5563  2.0947
  124OSM    C2S13183   6.023   3.744   6.758 -0.2664 -0.4109 -0.2698
  124OSM    H2S13184   6.126   3.703   6.755 -0.0054  0.2675 -0.7876
  124OSM    C3S13185   6.044   3.906   6.764  0.0769  0.3890 -0.2650
  124OSM    H3S13186   5.942   3.948   6.778  0.9392  1.7406  2.8554
  124OSM     O313187   6.087   3.961   6.639 -0.0814  0.0079  0.1782
  124OSM    HO313188   6.077   3.892   6.573 -0.4667  0.3149 -0.0928
  124OSM    C4S13189   6.126   3.947   6.885 -0.0993 -0.9622  0.2088
  124OSM    H4S13190   6.063   3.964   6.974 -1.0503  0.0642 -0.6277
  124OSM    C5S13191   6.262   3.976   6.892  0.3387 -0.0293  0.1923
  124OSM    H5S13192   6.319   3.957   6.800  0.9980 -0.0451  0.6003
  124OSM    C6S13193   6.339   4.017   7.013 -0.2656 -0.6144  0.3310
  124OSM    H6S13194   6.413   4.097   6.994 -1.6910  1.3755  2.5098
  124OSM    H6T13195   6.388   3.924   7.051 -0.1976 -1.3325 -1.4148
  124OSM    C7S13196   6.250   4.084   7.124 -0.2502 -0.2304 -0.1151
  124OSM    H7S13197   6.174   4.011   7.159 -1.1796 -0.0560 -1.6800
  124OSM    H7T13198   6.198   4.175   7.086 -1.0190 -0.8008 -0.4360
  124OSM    C8S13199   6.346   4.117   7.245 -0.2403 -0.2525  0.1973
  124OSM    H8S13200   6.425   4.192   7.221  1.1822 -1.7468  0.1073
  124OSM    H8T13201   6.405   4.026   7.265  1.3623  0.5006 -0.8671
  124OSM    C9S13202   6.274   4.148   7.375 -0.4276 -0.0519  0.5150
  124OSM    H9S13203   6.193   4.073   7.386  1.0724 -1.7674  0.3091
  124OSM    H9T13204   6.239   4.254   7.370 -0.3848 -0.0910 -1.4356
  124OSM   C10S13205   6.363   4.153   7.499 -0.0540  0.3989 -0.2826
  124OSM   H10S13206   6.443   4.229   7.492 -0.3652  0.8500  0.9627
  124OSM   H10T13207   6.420   4.058   7.510 -0.4250  0.3774  1.9384
  124OSM   C11S13208   6.286   4.180   7.630  0.2873 -0.2869  0.4607
  124OSM   H11S13209   6.225   4.091   7.654  0.2390 -0.4482 -0.2503
  124OSM   H11T13210   6.212   4.263   7.623 -1.2852 -1.7846 -2.2220
  124OSM   C12S13211   6.393   4.203   7.739 -0.0068  0.2915  0.0881
  124OSM   H12S13212   6.454   4.291   7.709  0.6176 -0.2684 -0.3002
  124OSM   H12T13213   6.461   4.115   7.744  0.1187  0.4568  1.4807
  124OSM   C13S13214   6.324   4.233   7.873 -0.7691  0.0747  0.1075
  124OSM   H13S13215   6.263   4.146   7.906 -1.7879  0.4108 -0.8140
  124OSM   H13T13216   6.259   4.324   7.874  0.2741  0.9733 -2.8086
  124OSM   C14S13217   6.426   4.265   7.986  0.9268 -0.1662  0.5084
  124OSM   H14S13218   6.490   4.352   7.959  0.2793  0.8229  2.0043
  124OSM   H14T13219   6.491   4.175   7.977  1.7065  0.4357 -0.0565
  124OSM   C15S13220   6.382   4.302   8.133  0.3212 -0.3580 -0.2033
  124OSM   H15S13221   6.304   4.382   8.128 -0.1873 -0.8681 -0.6997
  124OSM   H15T13222   6.468   4.324   8.199  0.4467 -2.0110  0.2194
  124OSM   C16S13223   6.307   4.177   8.193 -0.1628 -0.3089  0.1411
  124OSM   H16S13224   6.374   4.088   8.178  0.9483  0.5086  0.1005
  124OSM   H16T13225   6.216   4.167   8.130 -0.6140  0.3285  0.6881
  124OSM   C17S13226   6.272   4.198   8.336  0.1245  0.0550  0.7305
  124OSM   H17S13227   6.242   4.304   8.352 -3.2695 -0.8660  1.3771
  124OSM   H17T13228   6.351   4.175   8.411  2.0937  0.0363 -1.2435
  124OSM   C18S13229   6.154   4.112   8.366 -0.0161  0.4131  0.3531
  124OSM   H18S13230   6.137   4.102   8.475  2.3852 -1.9539  0.6078
  124OSM   H18T13231   6.176   4.009   8.329  0.7148  1.4972 -2.5663
  124OSM   H18U13232   6.056   4.145   8.324  0.1919  0.8935  0.2340
  124OSM    C1F13233   5.950   3.553   6.889 -0.0437 -0.2568  0.4123
  124OSM     OF13234   6.014   3.481   6.816 -0.0021 -0.4975  0.0258
  124OSM    C2F13235   5.864   3.498   6.995 -0.1197  0.9730 -0.3465
  124OSM    H2F13236   5.758   3.526   6.980 -0.6424 -1.7562 -2.6705
  124OSM    H2G13237   5.899   3.522   7.098 -0.8559 -0.3980  0.2547
  124OSM    C3F13238   5.849   3.344   6.995 -0.6094  0.2338 -0.0472
  124OSM    H3F13239   5.939   3.290   7.030  0.7624  2.3372 -0.1576
  124OSM    H3G13240   5.818   3.318   6.892 -0.9621  0.4742 -0.0033
  124OSM    C4F13241   5.735   3.300   7.083 -0.2444  0.4372 -0.7283
  124OSM    H4F13242   5.671   3.215   7.050 -1.0874  0.5024  0.6496
  124OSM    H4G13243   5.662   3.380   7.107 -1.1103 -0.3124 -0.7918
  124OSM    C5F13244   5.778   3.250   7.227  0.0471 -0.5437 -0.3692
  124OSM    H5F13245   5.825   3.150   7.231  0.1448 -0.4772  0.2000
  124OSM    H5G13246   5.686   3.242   7.289  0.8294  2.8501  1.4670
  124OSM    C6F13247   5.865   3.357   7.296  0.2898 -0.4085  0.1325
  124OSM    H6F13248   5.818   3.458   7.300  1.4414  0.1218  0.6945
  124OSM    H6G13249   5.961   3.367   7.241  0.3360 -1.2913  0.0487
  124OSM    C7F13250   5.906   3.316   7.440  0.7132 -0.6781 -0.7293
  124OSM    H7F13251   5.968   3.398   7.481  0.3245  0.1096 -1.6597
  124OSM    H7G13252   5.964   3.221   7.434 -0.0133 -1.1711 -0.1612
  124OSM    C8F13253   5.793   3.294   7.542  0.1191 -0.0794  0.3070
  124OSM    H8F13254   5.825   3.267   7.644  0.9490 -0.8966 -0.1527
  124OSM    H8G13255   5.726   3.208   7.520  2.4336 -1.9348  0.0434
  124OSM    C9F13256   5.713   3.430   7.545  0.2802  0.2156 -0.3262
  124OSM    H9F13257   5.780   3.509   7.581 -0.2396  0.1670  0.7718
  124OSM   C10F13258   5.587   3.460   7.522  0.1695 -0.1713  0.1104
  124OSM   H10F13259   5.557   3.566   7.524 -2.9160 -0.9620  2.6632
  124OSM   C11F13260   5.474   3.367   7.485  0.4861  0.3314  0.8840
  124OSM   H11F13261   5.506   3.262   7.464  1.2184  0.4376  1.4346
  124OSM   H11G13262   5.421   3.413   7.399 -3.8419  0.5034  3.3557
  124OSM   C12F13263   5.378   3.344   7.603 -0.0130 -0.1358 -0.4261
  124OSM   H12F13264   5.291   3.291   7.556 -2.4839  1.5383  1.9854
  124OSM   H12G13265   5.330   3.437   7.641  0.0105  0.2618 -1.3429
  124OSM   C13F13266   5.429   3.245   7.712  0.2251  0.1849 -0.9104
  124OSM   H13F13267   5.528   3.275   7.752  0.2225 -1.9039  0.8052
  124OSM   H13G13268   5.445   3.156   7.648  1.0300  0.8856 -1.7194
  124OSM   C14F13269   5.320   3.219   7.809  0.5257  0.1617 -1.0962
  124OSM   H14F13270   5.230   3.176   7.760  0.4779  1.2691 -2.0300
  124OSM   H14G13271   5.295   3.324   7.838  1.4225 -0.3536  1.9325
  124OSM   C15F13272   5.371   3.144   7.938  0.5065 -0.1246  0.5456
  124OSM   H15F13273   5.439   3.219   7.985  0.1617  0.7144 -0.2570
  124OSM   H15G13274   5.442   3.065   7.906  0.0394 -0.6844  0.8761
  124OSM   C16F13275   5.273   3.102   8.046 -0.0533 -0.3532 -0.4187
  124OSM   H16F13276   5.183   3.056   8.000 -0.2815 -0.3167 -0.0122
  124OSM   H16G13277   5.249   3.190   8.108  0.6322 -0.5946  0.1965
  124OSM   C17F13278   5.320   2.988   8.136  0.4039  0.4469  0.2319
  124OSM   H17F13279   5.388   3.015   8.220 -0.7563  0.1604  1.2849
  124OSM   H17G13280   5.372   2.917   8.069 -0.9158 -0.0006 -0.3463
  124OSM   C18F13281   5.204   2.918   8.214 -0.3934  0.8844  0.7473
  124OSM   H18F13282   5.120   2.900   8.145  0.2248  0.7891  0.0065
  124OSM   H18G13283   5.170   2.995   8.287  0.8202  0.2058  2.0946
  124OSM   H18H13284   5.241   2.823   8.259 -0.1436  0.3547 -0.5304
  125OSM      N13285   5.370   5.674   5.952  0.8606  0.0696 -0.0389
  125OSM    C1513286   5.358   5.825   5.941 -0.1199 -0.5802 -0.4649
  125OSM   H15A13287   5.317   5.854   5.846  0.7521 -0.7768 -0.9150
  125OSM   H15B13288   5.454   5.867   5.968 -1.4817  0.8646  2.5586
  125OSM   H15C13289   5.296   5.857   6.023 -1.1220  1.3198 -1.8910
  125OSM    C1413290   5.236   5.617   5.930  0.9483 -0.0381  0.0820
  125OSM   H14A13291   5.202   5.645   5.831  0.7700 -1.9702 -0.4492
  125OSM   H14B13292   5.171   5.645   6.011  0.8177  0.8982 -0.3358
  125OSM   H14C13293   5.235   5.509   5.941 -0.3638 -0.1783 -1.1173
  125OSM    C1313294   5.462   5.621   5.836  0.0973 -0.2391 -0.3272
  125OSM   H13A13295   5.421   5.653   5.741 -1.8949  0.2739  0.6582
  125OSM   H13B13296   5.478   5.514   5.832  1.5338 -0.0620 -0.0554
  125OSM   H13C13297   5.555   5.675   5.848 -1.3461  2.1589  0.8773
  125OSM    C1213298   5.436   5.641   6.083  0.7738  0.0639  0.1363
  125OSM   H12A13299   5.541   5.665   6.079  1.2550 -2.0157 -0.9385
  125OSM   H12B13300   5.425   5.537   6.107 -2.5392  0.7539  2.3125
  125OSM    C1113301   5.377   5.720   6.205 -0.0133 -0.3209 -0.0882
  125OSM   H11A13302   5.393   5.671   6.303  1.8875 -1.9090 -1.1034
  125OSM   H11B13303   5.266   5.720   6.211 -0.0570 -0.1968 -0.7612
  125OSM      P13304   5.585   5.855   6.252  0.0167 -0.0307 -0.2818
  125OSM    O1313305   5.665   5.877   6.128 -0.1543 -0.1441 -0.0509
  125OSM    O1413306   5.602   5.954   6.358 -0.4400  0.5466 -0.4022
  125OSM    O1113307   5.620   5.710   6.311 -0.3384 -0.0370 -0.3713
  125OSM    O1213308   5.435   5.849   6.215 -0.1950 -0.2785 -0.5741
  125OSM    C1S13309   5.760   5.675   6.339  0.8580  0.1816 -0.1327
  125OSM    H1S13310   5.831   5.753   6.303  1.3077  0.3219  1.0412
  125OSM    H1T13311   5.782   5.589   6.271  1.3870 -0.9145  1.3811
  125OSM     NF13312   5.938   5.608   6.508  0.4396  0.0352  0.2833
  125OSM    HNF13313   5.994   5.531   6.479  2.3590  1.1500  0.9059
  125OSM    C2S13314   5.790   5.617   6.482  0.0464  0.3729  0.3269
  125OSM    H2S13315   5.742   5.691   6.549 -0.1438  0.3893  0.1730
  125OSM    C3S13316   5.710   5.487   6.498 -0.6648 -0.4482 -0.1273
  125OSM    H3S13317   5.761   5.416   6.430 -0.7618 -1.4910  0.8663
  125OSM     O313318   5.575   5.496   6.466 -0.3739  0.6039 -0.6835
  125OSM    HO313319   5.567   5.574   6.411  1.9294  1.3866 -0.0138
  125OSM    C4S13320   5.729   5.428   6.637  0.2348  0.2407  0.6639
  125OSM    H4S13321   5.801   5.346   6.627  0.1058  0.3279 -1.5534
  125OSM    C5S13322   5.678   5.464   6.753  0.0173  0.1416 -0.3131
  125OSM    H5S13323   5.594   5.535   6.742  0.5375  1.0559  1.1890
  125OSM    C6S13324   5.704   5.413   6.893  0.1628  0.5581 -0.3518
  125OSM    H6S13325   5.635   5.330   6.922  0.5607 -0.3979 -1.9908
  125OSM    H6T13326   5.688   5.497   6.964  0.5108  0.8702 -0.6368
  125OSM    C7S13327   5.846   5.357   6.904 -0.2397 -0.1738  0.0095
  125OSM    H7S13328   5.918   5.442   6.898  0.1558 -0.4076  1.0827
  125OSM    H7T13329   5.873   5.281   6.828  1.4869 -1.3837  1.7213
  125OSM    C8S13330   5.866   5.279   7.034  0.0653  0.1884  0.0167
  125OSM    H8S13331   5.974   5.262   7.055  0.1688  2.2626  1.5213
  125OSM    H8T13332   5.829   5.175   7.019  0.6020 -0.3181  1.8564
  125OSM    C9S13333   5.817   5.333   7.164  0.7817  0.0556  0.1132
  125OSM    H9S13334   5.726   5.277   7.194  0.7061 -0.2768 -0.7159
  125OSM    H9T13335   5.795   5.442   7.162  1.2402  0.1446 -0.2365
  125OSM   C10S13336   5.916   5.309   7.288  0.5263 -0.2672  0.1868
  125OSM   H10S13337   6.018   5.342   7.256 -0.5018  0.1188 -3.1088
  125OSM   H10T13338   5.905   5.201   7.311  0.4810 -0.1237  0.8374
  125OSM   C11S13339   5.877   5.386   7.416 -0.0971 -0.7428  0.0064
  125OSM   H11S13340   5.780   5.354   7.460 -1.6863  0.0231 -2.6996
  125OSM   H11T13341   5.870   5.492   7.384  0.9272 -1.0313 -1.2495
  125OSM   C12S13342   5.980   5.381   7.522 -0.7385 -0.1827 -0.1925
  125OSM   H12S13343   6.082   5.407   7.485  0.0041 -0.7199  1.3647
  125OSM   H12T13344   5.994   5.276   7.555  0.5442  0.3439  1.0763
  125OSM   C13S13345   5.969   5.458   7.660 -0.6940  0.7265 -0.3363
  125OSM   H13S13346   6.057   5.429   7.722  0.0994  0.0665 -1.7160
  125OSM   H13T13347   5.870   5.431   7.700 -0.8756  1.0903 -0.5373
  125OSM   C14S13348   5.965   5.606   7.659 -0.2750  0.8065 -0.2570
  125OSM   H14S13349   5.892   5.639   7.582 -0.7553 -2.5940 -1.4665
  125OSM   H14T13350   6.063   5.648   7.628  1.1093 -1.5752  0.6450
  125OSM   C15S13351   5.911   5.671   7.794 -0.0348  1.0477  0.8040
  125OSM   H15S13352   5.986   5.649   7.873 -1.0681  1.3233  1.8793
  125OSM   H15T13353   5.819   5.616   7.823 -0.0446 -0.6769 -2.0914
  125OSM   C16S13354   5.892   5.829   7.783 -0.2913  0.0539  0.8685
  125OSM   H16S13355   5.834   5.862   7.872 -0.6984  0.2968  0.5161
  125OSM   H16T13356   5.841   5.848   7.686  2.3464 -2.7819 -1.2744
  125OSM   C17S13357   6.018   5.898   7.784 -0.0497 -0.5288 -0.3165
  125OSM   H17S13358   6.076   5.864   7.695  3.6533  3.6957  0.1002
  125OSM   H17T13359   6.086   5.875   7.869  0.9253 -1.3081 -1.2768
  125OSM   C18S13360   6.016   6.049   7.758 -0.2639 -0.7001 -0.1966
  125OSM   H18S13361   5.967   6.106   7.840  0.3110 -1.5669  0.7757
  125OSM   H18T13362   5.954   6.064   7.667  2.2021  2.1286 -1.5659
  125OSM   H18U13363   6.118   6.090   7.745 -0.1553 -1.1647 -0.8770
  125OSM    C1F13364   6.015   5.708   6.529 -0.1454  0.6316 -0.0488
  125OSM     OF13365   5.986   5.824   6.516  0.1916  0.0362  0.4582
  125OSM    C2F13366   6.157   5.670   6.558  0.0144  0.0383 -0.1045
  125OSM    H2F13367   6.204   5.640   6.462  1.2058 -0.0843  0.5004
  125OSM    H2G13368   6.164   5.580   6.623  0.9396 -0.0544 -0.3206
  125OSM    C3F13369   6.249   5.784   6.619 -0.0825 -0.3675  0.1020
  125OSM    H3F13370   6.195   5.796   6.715 -1.1263 -2.1246 -0.2275
  125OSM    H3G13371   6.248   5.872   6.551  1.0999 -0.0514  0.4683
  125OSM    C4F13372   6.396   5.741   6.648  0.6949  0.4762 -0.3346
  125OSM    H4F13373   6.437   5.693   6.556 -0.3182  1.7688 -1.5082
  125OSM    H4G13374   6.394   5.657   6.720 -0.5505  2.1611  1.7103
  125OSM    C5F13375   6.486   5.857   6.706  0.3608  0.2258  0.6730
  125OSM    H5F13376   6.497   5.944   6.637 -0.9654  1.0115  1.4110
  125OSM    H5G13377   6.589   5.815   6.712 -0.1225 -0.8447  1.8478
  125OSM    C6F13378   6.451   5.912   6.850 -0.0000 -0.5666  0.3045
  125OSM    H6F13379   6.428   5.837   6.929 -1.8156  0.9037  1.2377
  125OSM    H6G13380   6.359   5.970   6.831  0.4132 -0.4398 -1.5565
  125OSM    C7F13381   6.562   6.006   6.917  0.3609 -0.6064 -0.0607
  125OSM    H7F13382   6.618   6.044   6.830 -0.2744 -2.2961 -1.2741
  125OSM    H7G13383   6.633   5.936   6.967  0.2652  0.1331  1.1506
  125OSM    C8F13384   6.525   6.129   7.000 -0.5696  0.1204  0.0611
  125OSM    H8F13385   6.454   6.196   6.947  0.3911  1.9022  0.9219
  125OSM    H8G13386   6.610   6.199   7.016  0.4389 -0.3133 -2.7891
  125OSM    C9F13387   6.464   6.105   7.134 -0.2060  0.8679 -0.2181
  125OSM    H9F13388   6.354   6.108   7.130 -0.3755  0.2439  2.4070
  125OSM   C10F13389   6.522   6.061   7.245 -0.7411 -0.2315 -0.3849
  125OSM   H10F13390   6.451   6.028   7.322 -1.1634 -0.2146 -0.7638
  125OSM   C11F13391   6.676   6.037   7.270 -0.0625 -0.7125  0.5727
  125OSM   H11F13392   6.730   6.045   7.173  0.0223 -1.5378  0.5409
  125OSM   H11G13393   6.690   5.930   7.297 -2.2083 -1.5361 -1.2788
  125OSM   C12F13394   6.738   6.123   7.378 -0.3228 -0.1691  1.1676
  125OSM   H12F13395   6.725   6.232   7.359 -1.0854 -0.4437 -0.0083
  125OSM   H12G13396   6.847   6.104   7.373 -0.5815 -1.4505 -2.8802
  125OSM   C13F13397   6.691   6.091   7.522 -0.3296  0.0351 -0.3159
  125OSM   H13F13398   6.772   6.111   7.595 -0.6742 -3.1767  1.1396
  125OSM   H13G13399   6.689   5.980   7.531 -1.0147 -0.0417 -1.2085
  125OSM   C14F13400   6.563   6.159   7.563 -0.6479 -0.4216 -0.5424
  125OSM   H14F13401   6.478   6.127   7.499 -0.9546  3.3488 -2.2885
  125OSM   H14G13402   6.571   6.269   7.552  2.4445 -0.1287  2.7627
  125OSM   C15F13403   6.541   6.133   7.711  0.4199  0.1819 -0.8153
  125OSM   H15F13404   6.625   6.189   7.758  0.8677 -0.3671 -0.9526
  125OSM   H15G13405   6.552   6.026   7.736 -1.1888 -0.0636 -1.0230
  125OSM   C16F13406   6.413   6.190   7.776 -0.2456 -0.2523 -1.3031
  125OSM   H16F13407   6.319   6.135   7.754 -1.2040  0.6470  0.3876
  125OSM   H16G13408   6.402   6.291   7.731 -1.9134  0.1643 -0.0642
  125OSM   C17F13409   6.434   6.206   7.928  0.7343  0.1777 -0.5157
  125OSM   H17F13410   6.522   6.273   7.944 -0.4081  1.2981  1.5380
  125OSM   H17G13411   6.467   6.106   7.962  1.5778 -0.1389 -2.1948
  125OSM   C18F13412   6.311   6.244   8.012  0.5752 -0.2625  0.1074
  125OSM   H18F13413   6.343   6.248   8.119  0.1659 -1.7628  0.3020
  125OSM   H18G13414   6.232   6.167   8.008  1.4615 -1.3350  1.9896
  125OSM   H18H13415   6.268   6.340   7.977  0.4758 -1.3778 -3.1874
  126OSM      N13416   3.793   2.690   6.404  0.4307  0.2633  0.3353
  126OSM    C1513417   3.785   2.564   6.483  0.1032 -0.4343 -0.0919
  126OSM   H15A13418   3.855   2.565   6.566  1.2919 -1.0441 -1.0538
  126OSM   H15B13419   3.801   2.477   6.421  0.2489 -0.1790 -0.4141
  126OSM   H15C13420   3.686   2.545   6.519 -0.2724 -0.5791 -1.1587
  126OSM    C1413421   3.920   2.695   6.322 -0.1295 -0.1053  0.4847
  126OSM   H14A13422   3.914   2.787   6.267  2.1633  0.6719  1.4220
  126OSM   H14B13423   3.944   2.608   6.263  1.5660  0.6616  0.0113
  126OSM   H14C13424   4.003   2.703   6.390  1.2662 -0.2240 -1.1544
  126OSM    C1313425   3.669   2.709   6.325 -0.0287  0.1580  0.2961
  126OSM   H13A13426   3.646   2.631   6.253 -1.4678  1.4168 -0.6847
  126OSM   H13B13427   3.672   2.806   6.279  1.1197  0.2530  0.5513
  126OSM   H13C13428   3.584   2.707   6.391  0.2465 -2.7607  0.7260
  126OSM    C1213429   3.806   2.795   6.509  0.0419 -0.3199  0.1927
  126OSM   H12A13430   3.887   2.770   6.575 -1.1206 -1.9663  1.0417
  126OSM   H12B13431   3.718   2.802   6.571 -0.5650 -2.2897 -0.3830
  126OSM    C1113432   3.813   2.945   6.474 -0.4975  0.0069  0.0341
  126OSM   H11A13433   3.889   2.964   6.395  1.5964  1.0989  2.2235
  126OSM   H11B13434   3.862   2.989   6.563  2.1364 -1.1806 -0.7466
  126OSM      P13435   3.572   3.056   6.543  0.2097  0.1243  0.6890
  126OSM    O1313436   3.580   3.201   6.531 -0.2225  0.0047 -0.0407
  126OSM    O1413437   3.437   2.990   6.519  0.0677  0.3722  0.2070
  126OSM    O1113438   3.626   3.004   6.684  0.5688 -0.7743  0.0378
  126OSM    O1213439   3.679   2.990   6.442 -0.3070  0.2388 -0.2615
  126OSM    C1S13440   3.547   3.015   6.804  0.4036 -0.6650  0.3303
  126OSM    H1S13441   3.479   2.927   6.806  0.9043 -1.0947 -0.6386
  126OSM    H1T13442   3.499   3.114   6.818  1.6820 -0.1338  1.1126
  126OSM     NF13443   3.569   2.991   7.037 -0.7785 -0.4451 -0.2219
  126OSM    HNF13444   3.536   3.079   7.071  1.9979  1.0071 -1.0141
  126OSM    C2S13445   3.648   3.002   6.917  0.6144 -0.2055 -0.0466
  126OSM    H2S13446   3.713   2.914   6.902 -0.3670 -1.0307  0.4279
  126OSM    C3S13447   3.742   3.123   6.923  0.1647  0.0681 -0.3215
  126OSM    H3S13448   3.677   3.213   6.930 -0.6704 -0.2343 -2.8640
  126OSM     O313449   3.815   3.153   6.805 -0.7791 -0.4061 -0.6859
  126OSM    HO313450   3.770   3.104   6.736  0.7530 -1.7180 -0.8008
  126OSM    C4S13451   3.841   3.113   7.037  0.1615 -0.2051  0.4701
  126OSM    H4S13452   3.821   3.184   7.118 -0.0506  0.7701 -0.4229
  126OSM    C5S13453   3.961   3.048   7.034 -0.3850  0.1081 -0.2756
  126OSM    H5S13454   3.994   3.003   6.940 -1.2899 -1.2515  0.0376
  126OSM    C6S13455   4.065   3.040   7.142 -0.7099 -0.0568 -0.3746
  126OSM    H6S13456   4.153   3.088   7.094 -1.0391  1.0213  0.0600
  126OSM    H6T13457   4.096   2.934   7.149 -0.9757 -0.3597 -2.8912
  126OSM    C7S13458   4.034   3.109   7.282 -0.0411 -0.4452 -0.2346
  126OSM    H7S13459   3.953   3.046   7.324  1.0780 -2.5096 -1.0619
  126OSM    H7T13460   4.011   3.218   7.274  0.9916 -0.2560 -0.8071
  126OSM    C8S13461   4.151   3.110   7.378  0.2996  0.4331  1.0061
  126OSM    H8S13462   4.241   3.161   7.339  1.4349 -1.5670  0.8776
  126OSM    H8T13463   4.189   3.005   7.380  2.8639  1.2913  1.9553
  126OSM    C9S13464   4.138   3.164   7.522  0.3181  1.0650 -0.7877
  126OSM    H9S13465   4.055   3.121   7.581  0.5106  0.1785 -1.1550
  126OSM    H9T13466   4.125   3.274   7.508 -1.1086  1.4892  2.7547
  126OSM   C10S13467   4.258   3.136   7.615 -0.3672 -0.3198 -1.2427
  126OSM   H10S13468   4.359   3.165   7.579  0.9244 -3.4692 -0.4128
  126OSM   H10T13469   4.262   3.026   7.629  1.3717 -0.0453  1.1002
  126OSM   C11S13470   4.233   3.200   7.752 -0.6034 -0.8247  0.1924
  126OSM   H11S13471   4.145   3.156   7.803 -1.6700  1.6750  0.6670
  126OSM   H11T13472   4.208   3.308   7.738  0.1624 -0.4400  1.6681
  126OSM   C12S13473   4.348   3.197   7.843  0.1450  0.0960 -0.1972
  126OSM   H12S13474   4.434   3.246   7.792  0.5488 -1.7727 -1.3919
  126OSM   H12T13475   4.375   3.094   7.876 -1.8144 -0.8765 -1.4695
  126OSM   C13S13476   4.325   3.278   7.975  0.0509  0.0547  0.7521
  126OSM   H13S13477   4.370   3.230   8.064  1.9834 -2.6376 -1.5113
  126OSM   H13T13478   4.216   3.283   7.995 -0.6644 -1.4836 -2.1351
  126OSM   C14S13479   4.371   3.430   7.972 -0.0774  0.3737  0.2419
  126OSM   H14S13480   4.308   3.474   7.891 -1.9246 -1.6276  0.4864
  126OSM   H14T13481   4.479   3.442   7.951  0.6241 -1.7482  2.2263
  126OSM   C15S13482   4.346   3.492   8.112 -0.2295  0.1964 -0.1967
  126OSM   H15S13483   4.434   3.549   8.148  0.9973 -0.8237 -1.4676
  126OSM   H15T13484   4.342   3.408   8.184 -0.8463  0.7119  0.3771
  126OSM   C16S13485   4.219   3.578   8.129 -0.1475  0.2869 -0.4017
  126OSM   H16S13486   4.144   3.555   8.051  1.0269 -2.1656 -0.9183
  126OSM   H16T13487   4.258   3.681   8.117 -0.0314  0.2910 -0.0274
  126OSM   C17S13488   4.150   3.555   8.260 -0.2591  0.0399 -0.4948
  126OSM   H17S13489   4.197   3.600   8.350 -2.8763 -0.7801  1.3973
  126OSM   H17T13490   4.145   3.446   8.281 -2.1643 -0.3593 -2.6466
  126OSM   C18S13491   4.009   3.609   8.255 -0.5561 -0.5142 -0.7405
  126OSM   H18S13492   3.958   3.582   8.159 -1.1301  0.3783 -0.6977
  126OSM   H18T13493   4.022   3.719   8.262 -0.6959 -0.3727 -2.3113
  126OSM   H18U13494   3.954   3.563   8.340  0.9039 -1.8236 -0.4512
  126OSM    C1F13495   3.512   2.877   7.080 -0.0375 -0.0185 -0.6345
  126OSM     OF13496   3.561   2.771   7.051 -0.1263  0.3018  0.4190
  126OSM    C2F13497   3.392   2.889   7.167 -0.2226  0.2800  0.4618
  126OSM    H2F13498   3.359   2.994   7.184 -0.6243 -0.0872  2.1029
  126OSM    H2G13499   3.411   2.839   7.264 -3.9278  0.4664  1.4580
  126OSM    C3F13500   3.270   2.816   7.113  0.6244 -0.3642 -0.0738
  126OSM    H3F13501   3.282   2.707   7.095 -0.7503 -0.5390 -0.0865
  126OSM    H3G13502   3.240   2.871   7.022  2.5270  1.5107  0.3536
  126OSM    C4F13503   3.143   2.847   7.204 -0.6308  0.3899 -0.3713
  126OSM    H4F13504   3.052   2.840   7.140 -0.0341  0.0081 -1.2001
  126OSM    H4G13505   3.160   2.953   7.233  2.1151  0.3130 -1.4374
  126OSM    C5F13506   3.128   2.760   7.329 -0.5512  0.0339  0.2940
  126OSM    H5F13507   3.223   2.708   7.351 -0.9517 -0.3050  1.2930
  126OSM    H5G13508   3.045   2.687   7.311 -1.9777  1.6230  0.1550
  126OSM    C6F13509   3.095   2.837   7.461  0.4296  0.0754  0.1106
  126OSM    H6F13510   3.167   2.922   7.461  0.0835  0.4697 -2.8989
  126OSM    H6G13511   3.115   2.761   7.541 -2.0547 -0.9022 -0.1026
  126OSM    C7F13512   2.950   2.872   7.483 -0.5861  0.4261  0.1459
  126OSM    H7F13513   2.887   2.780   7.485 -1.4090  0.9843  0.9989
  126OSM    H7G13514   2.916   2.942   7.403  2.3962  1.4891 -0.3308
  126OSM    C8F13515   2.919   2.933   7.619  0.0161 -0.0187  0.1420
  126OSM    H8F13516   2.955   2.864   7.698  2.0707 -0.2585 -0.9361
  126OSM    H8G13517   2.809   2.933   7.636  0.2759  1.3941  2.1485
  126OSM    C9F13518   2.986   3.063   7.637 -0.0146  0.8741  0.0163
  126OSM    H9F13519   2.963   3.138   7.559  0.0274  0.1829 -0.6760
  126OSM   C10F13520   3.080   3.094   7.732 -0.4079  0.2421  0.8101
  126OSM   H10F13521   3.111   3.199   7.736 -0.3598  0.4096 -2.2113
  126OSM   C11F13522   3.126   3.007   7.851  0.0732 -0.3524 -0.3006
  126OSM   H11F13523   3.236   2.993   7.843  0.3368  0.5868  1.2916
  126OSM   H11G13524   3.101   2.901   7.831 -0.8871 -0.4946  1.4381
  126OSM   C12F13525   3.079   3.062   7.984 -0.8434 -0.9889  0.2386
  126OSM   H12F13526   2.968   3.070   7.993 -0.8850 -1.2614 -0.0060
  126OSM   H12G13527   3.139   3.152   8.008 -1.4628 -0.6480  0.5385
  126OSM   C13F13528   3.118   2.957   8.089  0.1062  0.1082  0.0585
  126OSM   H13F13529   3.229   2.946   8.090  0.4757  3.1177  0.1728
  126OSM   H13G13530   3.075   2.858   8.061  2.0332 -1.2728  1.6775
  126OSM   C14F13531   3.071   3.012   8.224  0.2092  0.9231  0.1125
  126OSM   H14F13532   2.960   3.018   8.220  0.0984 -0.9946 -1.8336
  126OSM   H14G13533   3.102   3.118   8.235  0.3581  0.8691  0.2158
  126OSM   C15F13534   3.119   2.935   8.353  0.2266 -0.4913  0.0826
  126OSM   H15F13535   3.228   2.945   8.374 -0.2744  3.8719  1.5470
  126OSM   H15G13536   3.101   2.827   8.330 -0.7985  0.0554 -1.9353
  126OSM   C16F13537   3.029   2.972   8.470  0.0204  0.0463 -0.2108
  126OSM   H16F13538   2.920   2.981   8.446 -0.3643  0.6216  1.5955
  126OSM   H16G13539   3.046   3.078   8.501 -3.2853  0.9061 -0.9083
  126OSM   C17F13540   3.066   2.894   8.599 -0.5559 -0.3576 -0.4680
  126OSM   H17F13541   3.174   2.914   8.614 -0.9870  0.7230  1.6401
  126OSM   H17G13542   3.067   2.783   8.591  1.2282 -0.3509 -0.7225
  126OSM   C18F13543   2.994   2.940   8.723  0.1831  0.1020  0.4267
  126OSM   H18F13544   3.020   3.046   8.742  0.2400  0.1816 -0.0632
  126OSM   H18G13545   3.030   2.892   8.816  0.3863 -1.5016 -0.4443
  126OSM   H18H13546   2.884   2.925   8.718 -0.1191  1.7181  1.5617
  127OSM      N13547   3.107   1.342   5.927 -0.0507  0.6558  0.1909
  127OSM    C1513548   3.032   1.446   6.003  0.4562 -0.8330 -0.3753
  127OSM   H15A13549   3.106   1.493   6.066  1.6917 -3.2018  0.0490
  127OSM   H15B13550   2.946   1.419   6.062  0.4213 -0.2460 -0.1506
  127OSM   H15C13551   2.994   1.518   5.933 -0.1305  0.1464  0.9034
  127OSM    C1413552   3.002   1.248   5.878 -0.3505 -0.1765 -0.3344
  127OSM   H14A13553   2.923   1.298   5.824 -0.3468  0.0584 -0.1239
  127OSM   H14B13554   2.958   1.187   5.956 -0.0389 -1.6312 -1.2458
  127OSM   H14C13555   3.049   1.185   5.804 -1.4198  0.3830 -1.5144
  127OSM    C1313556   3.169   1.410   5.813 -0.3879  0.1029  0.9892
  127OSM   H13A13557   3.096   1.486   5.791 -0.3044  0.1008  0.6887
  127OSM   H13B13558   3.168   1.352   5.722 -0.4873  1.6144 -0.0190
  127OSM   H13C13559   3.268   1.453   5.827  0.2803 -1.4618  1.2804
  127OSM    C1213560   3.206   1.258   6.006 -0.8795  0.6523 -1.5811
  127OSM   H12A13561   3.268   1.198   5.941  0.8413 -0.0237  0.5453
  127OSM   H12B13562   3.152   1.181   6.060 -1.0386  1.6758 -0.2045
  127OSM    C1113563   3.296   1.342   6.103  0.0283  0.2499 -0.3236
  127OSM   H11A13564   3.235   1.376   6.190  0.0224  2.0392 -0.9804
  127OSM   H11B13565   3.335   1.436   6.059  1.7948 -0.0104  0.5874
  127OSM      P13566   3.557   1.299   6.159 -0.4707  0.0824  0.2355
  127OSM    O1313567   3.636   1.179   6.187  0.9092 -0.3866  0.3355
  127OSM    O1413568   3.590   1.382   6.042  0.2014 -0.5971 -0.0009
  127OSM    O1113569   3.562   1.376   6.297  0.4037  0.0339  0.4073
  127OSM    O1213570   3.403   1.261   6.153 -0.0029 -0.2579 -0.4771
  127OSM    C1S13571   3.485   1.491   6.325 -0.2077 -0.4556 -0.2353
  127OSM    H1S13572   3.376   1.468   6.319 -0.4260  0.8823 -3.4226
  127OSM    H1T13573   3.505   1.580   6.262  0.8315 -1.2913 -1.1119
  127OSM     NF13574   3.446   1.644   6.523  0.6688 -0.2336  0.2164
  127OSM    HNF13575   3.502   1.722   6.550  0.7983  0.0834 -0.8998
  127OSM    C2S13576   3.518   1.525   6.475 -0.1434 -0.0842 -0.7206
  127OSM    H2S13577   3.476   1.439   6.532  2.4523 -0.8251  0.2126
  127OSM    C3S13578   3.669   1.541   6.499 -1.1110 -0.0646  0.2408
  127OSM    H3S13579   3.709   1.630   6.447  1.3172 -0.9258  0.5300
  127OSM     O313580   3.759   1.439   6.448 -1.0304 -0.7813 -0.2232
  127OSM    HO313581   3.706   1.384   6.390  2.4531 -2.9456 -1.6440
  127OSM    C4S13582   3.693   1.557   6.650 -0.5946  0.7633 -0.1808
  127OSM    H4S13583   3.644   1.479   6.712 -0.1249  0.6200  0.0160
  127OSM    C5S13584   3.747   1.660   6.719  0.0649 -0.5047 -0.3328
  127OSM    H5S13585   3.781   1.750   6.667 -3.7719  1.8091  0.7453
  127OSM    C6S13586   3.760   1.667   6.867  0.2307 -0.5186  0.1452
  127OSM    H6S13587   3.658   1.657   6.909  1.4459 -0.4734  3.4809
  127OSM    H6T13588   3.802   1.766   6.897  0.8162 -0.8811  0.5568
  127OSM    C7S13589   3.849   1.564   6.943  0.0364  0.0968  0.8393
  127OSM    H7S13590   3.955   1.578   6.913  0.3305 -0.1106  1.7652
  127OSM    H7T13591   3.821   1.460   6.915 -0.4718  0.2278  0.8572
  127OSM    C8S13592   3.836   1.581   7.096 -0.2225 -0.6197  0.0414
  127OSM    H8S13593   3.729   1.585   7.129 -0.2289  1.0069 -0.0916
  127OSM    H8T13594   3.862   1.682   7.134 -0.3787 -0.8863  0.8849
  127OSM    C9S13595   3.918   1.485   7.188 -0.2060  0.2620  0.0869
  127OSM    H9S13596   4.027   1.504   7.184 -0.3396  1.7327  2.1211
  127OSM    H9T13597   3.888   1.382   7.159  0.8938  0.3679 -1.5711
  127OSM   C10S13598   3.866   1.499   7.328  0.2216  0.1263  0.0225
  127OSM   H10S13599   3.756   1.486   7.330  0.4538 -2.3569 -0.3598
  127OSM   H10T13600   3.893   1.599   7.369  0.3651 -0.3387  1.0988
  127OSM   C11S13601   3.915   1.398   7.430 -0.3287  0.5846 -0.9266
  127OSM   H11S13602   4.025   1.408   7.439 -0.4056  0.9179 -0.2901
  127OSM   H11T13603   3.885   1.295   7.403 -0.7662 -0.3332  2.5707
  127OSM   C12S13604   3.853   1.411   7.571  0.6130 -0.5975 -0.4026
  127OSM   H12S13605   3.888   1.329   7.637 -1.3242  0.4341  2.1148
  127OSM   H12T13606   3.744   1.399   7.558  0.1956 -1.6489  3.0393
  127OSM   C13S13607   3.874   1.550   7.642  0.7737 -0.0002  0.4297
  127OSM   H13S13608   3.828   1.638   7.593 -0.9669 -0.6055  0.8840
  127OSM   H13T13609   3.983   1.573   7.642  0.9971 -0.9637  1.4280
  127OSM   C14S13610   3.816   1.552   7.791  0.3975 -0.0916  0.3685
  127OSM   H14S13611   3.706   1.544   7.786  0.1572  2.0712  1.0634
  127OSM   H14T13612   3.841   1.653   7.831 -0.3342  0.2352  0.0207
  127OSM   C15S13613   3.881   1.450   7.887 -0.2463 -0.1861 -0.1763
  127OSM   H15S13614   3.991   1.463   7.889  0.0391 -2.1792  1.0561
  127OSM   H15T13615   3.867   1.342   7.865  3.5426 -1.2200  1.6382
  127OSM   C16S13616   3.834   1.476   8.030 -0.4145 -0.0519  0.3681
  127OSM   H16S13617   3.730   1.439   8.040 -1.1308  1.0166 -2.3262
  127OSM   H16T13618   3.839   1.581   8.066 -0.8775 -0.1016  0.5892
  127OSM   C17S13619   3.923   1.395   8.126  0.4976  0.6215 -0.0897
  127OSM   H17S13620   4.030   1.423   8.120  0.2346  1.2766 -3.0328
  127OSM   H17T13621   3.919   1.288   8.097 -1.1592  0.6760 -0.1748
  127OSM   C18S13622   3.879   1.407   8.276 -0.1351  0.0584  0.5188
  127OSM   H18S13623   3.954   1.384   8.354 -2.1601  1.0898  2.8785
  127OSM   H18T13624   3.786   1.348   8.293 -0.5455  0.0598 -1.4255
  127OSM   H18U13625   3.855   1.511   8.306  0.9027 -0.0077  1.6660
  127OSM    C1F13626   3.305   1.644   6.541 -0.0929  0.1973  0.1139
  127OSM     OF13627   3.241   1.542   6.543  0.1344  0.7058  0.3296
  127OSM    C2F13628   3.229   1.776   6.559 -0.1314 -0.4677 -0.5652
  127OSM    H2F13629   3.147   1.781   6.484  0.0632  0.7937 -0.7210
  127OSM    H2G13630   3.305   1.858   6.552 -1.4082  0.8476  0.3359
  127OSM    C3F13631   3.157   1.775   6.698 -0.6549 -0.0536  0.1282
  127OSM    H3F13632   3.072   1.705   6.708 -1.5972  0.5995 -2.4701
  127OSM    H3G13633   3.104   1.872   6.702 -0.5228  0.0862 -1.1278
  127OSM    C4F13634   3.249   1.763   6.823  0.2928  0.3552  0.5561
  127OSM    H4F13635   3.187   1.774   6.914  0.7267  0.5050  0.8403
  127OSM    H4G13636   3.316   1.852   6.817 -0.1928  0.6481 -1.3132
  127OSM    C5F13637   3.336   1.638   6.842 -1.2762  0.1030  0.1988
  127OSM    H5F13638   3.425   1.650   6.777 -1.2908  3.0456  0.5852
  127OSM    H5G13639   3.280   1.556   6.793  0.9027 -0.7273 -1.0628
  127OSM    C6F13640   3.363   1.592   6.981  0.4692 -0.2901  0.4225
  127OSM    H6F13641   3.272   1.596   7.045  0.6232 -1.0561  0.7074
  127OSM    H6G13642   3.430   1.661   7.036 -2.1276  1.5430  1.5165
  127OSM    C7F13643   3.412   1.443   6.990 -0.1077 -0.1380  0.4244
  127OSM    H7F13644   3.505   1.441   6.929 -1.3992  2.5152 -1.8735
  127OSM    H7G13645   3.327   1.390   6.943  0.2676  0.1467 -0.6076
  127OSM    C8F13646   3.450   1.392   7.130  0.0801  0.0171  0.5229
  127OSM    H8F13647   3.548   1.439   7.153  0.8762 -1.7609  0.9726
  127OSM    H8G13648   3.474   1.284   7.118  0.8748  0.1882  0.5389
  127OSM    C9F13649   3.351   1.404   7.239 -0.3464  0.2424 -0.0675
  127OSM    H9F13650   3.275   1.324   7.244  0.9571 -0.9889  1.9815
  127OSM   C10F13651   3.349   1.495   7.342 -1.3582  0.1643  0.0141
  127OSM   H10F13652   3.274   1.490   7.422 -1.4315  0.7500 -0.0125
  127OSM   C11F13653   3.456   1.601   7.358  0.5021  0.2892  0.3514
  127OSM   H11F13654   3.501   1.624   7.259 -1.7952  1.4170 -0.4991
  127OSM   H11G13655   3.537   1.564   7.424  0.9152  2.9995  1.4711
  127OSM   C12F13656   3.421   1.744   7.421 -0.4371  0.4797  0.2098
  127OSM   H12F13657   3.332   1.791   7.373  1.7526  2.1937 -2.4737
  127OSM   H12G13658   3.501   1.814   7.390 -0.5520  0.3577 -0.3692
  127OSM   C13F13659   3.423   1.738   7.571  0.2427  0.5961 -1.0452
  127OSM   H13F13660   3.527   1.738   7.610 -0.0345 -0.2510 -0.2603
  127OSM   H13G13661   3.374   1.644   7.605  1.5309  0.5312  0.7932
  127OSM   C14F13662   3.352   1.867   7.633 -0.7014 -0.3210 -0.7803
  127OSM   H14F13663   3.316   1.837   7.733  2.2219 -0.2601  0.3980
  127OSM   H14G13664   3.269   1.899   7.568 -1.8931 -0.0383  0.8222
  127OSM   C15F13665   3.467   1.975   7.660 -0.6278 -0.2083 -0.2930
  127OSM   H15F13666   3.533   1.969   7.571  2.8946  0.2120  2.0710
  127OSM   H15G13667   3.528   1.927   7.740  1.7486 -0.0286 -1.9036
  127OSM   C16F13668   3.409   2.109   7.706  0.1820  0.1777 -0.2084
  127OSM   H16F13669   3.340   2.148   7.628  2.0509  0.1292 -1.9687
  127OSM   H16G13670   3.496   2.178   7.707  0.7004 -0.4426 -1.1204
  127OSM   C17F13671   3.352   2.093   7.846  0.0380 -1.0730 -0.2431
  127OSM   H17F13672   3.433   2.051   7.909  1.3276 -0.1034 -1.1924
  127OSM   H17G13673   3.258   2.034   7.835 -2.2814  2.4707 -1.3715
  127OSM   C18F13674   3.308   2.230   7.897  0.3473  0.7097 -0.0230
  127OSM   H18F13675   3.263   2.213   7.997 -0.2054 -0.7578 -0.4970
  127OSM   H18G13676   3.231   2.261   7.824  0.3338  0.5612 -0.0721
  127OSM   H18H13677   3.390   2.304   7.900  0.8885  0.0955  0.8973
  128OSM      N13678   0.533   5.299   5.633  0.3296 -0.2138 -0.4178
  128OSM    C1513679   0.459   5.175   5.602 -0.0748 -0.1747  0.0935
  128OSM   H15A13680   0.519   5.086   5.618  1.7306  1.0581  0.4013
  128OSM   H15B13681   0.417   5.171   5.502  0.7655 -0.8907 -0.2528
  128OSM   H15C13682   0.374   5.157   5.667 -0.0393 -0.6415  0.0179
  128OSM    C1413683   0.647   5.314   5.535 -0.3551 -0.0530  0.0552
  128OSM   H14A13684   0.619   5.292   5.433 -0.3509  0.7549 -0.1225
  128OSM   H14B13685   0.737   5.259   5.559 -0.2297  0.4837  0.8268
  128OSM   H14C13686   0.685   5.415   5.530  1.3772 -0.7074 -1.4019
  128OSM    C1313687   0.443   5.419   5.610 -1.0020  0.2011  0.3642
  128OSM   H13A13688   0.409   5.433   5.509 -2.0649  2.0219  0.9195
  128OSM   H13B13689   0.490   5.511   5.641 -1.0480  0.3613 -0.0457
  128OSM   H13C13690   0.352   5.391   5.662 -1.6177 -2.3000 -1.8280
  128OSM    C1213691   0.565   5.304   5.785  0.2257 -0.7368  0.6493
  128OSM   H12A13692   0.607   5.402   5.804 -1.9628  0.9092 -2.2251
  128OSM   H12B13693   0.651   5.239   5.782 -0.7783 -2.0958 -2.7381
  128OSM    C1113694   0.454   5.265   5.886  0.8327 -0.0611 -0.2128
  128OSM   H11A13695   0.478   5.275   5.994 -3.7511 -1.2173  1.1352
  128OSM   H11B13696   0.447   5.154   5.880 -1.0421  0.0967 -2.1133
  128OSM      P13697   0.287   5.464   5.916 -0.2656 -0.0143  0.0452
  128OSM    O1313698   0.403   5.532   5.983  0.6430 -0.0349 -0.3003
  128OSM    O1413699   0.227   5.537   5.803  0.2728 -0.0854  0.1006
  128OSM    O1113700   0.184   5.440   6.028  0.1021 -0.4260  0.2617
  128OSM    O1213701   0.320   5.316   5.863  0.0390  0.2091  0.2463
  128OSM    C1S13702   0.196   5.318   6.094 -0.6201 -0.5120  0.3361
  128OSM    H1S13703   0.300   5.281   6.104  0.4711  2.3485  0.6578
  128OSM    H1T13704   0.123   5.247   6.049 -0.7769  0.2780 -0.7104
  128OSM     NF13705   0.192   5.215   6.324 -0.0343  0.7430  0.0328
  128OSM    HNF13706   0.126   5.141   6.337  1.2716 -1.1052 -2.8505
  128OSM    C2S13707   0.153   5.332   6.247  0.1341 -0.0053  0.1461
  128OSM    H2S13708   0.203   5.422   6.287 -1.5377  0.3094  1.6375
  128OSM    C3S13709  -0.001   5.370   6.256 -0.1267  0.1491  0.2643
  128OSM    H3S13710  -0.064   5.300   6.197  2.7598 -0.4514 -2.3629
  128OSM     O313711  -0.034   5.493   6.192 -0.2699 -0.1812  0.4151
  128OSM    HO313712   0.042   5.502   6.135 -0.7622 -0.0748 -0.2279
  128OSM    C4S13713  -0.053   5.366   6.397 -0.4126  0.1381 -1.3565
  128OSM    H4S13714  -0.073   5.265   6.435 -1.0505  1.0257  0.8168
  128OSM    C5S13715  -0.078   5.466   6.482  0.2115 -0.7439 -0.6770
  128OSM    H5S13716  -0.065   5.572   6.455 -0.7391  0.8353  4.0036
  128OSM    C6S13717  -0.137   5.454   6.620  0.5617 -0.0697  0.4274
  128OSM    H6S13718  -0.194   5.359   6.635  0.6320 -0.1339  0.2884
  128OSM    H6T13719  -0.203   5.537   6.652 -0.6318 -0.4351 -0.9883
  128OSM    C7S13720  -0.031   5.454   6.724  0.1582  0.2263  0.4511
  128OSM    H7S13721   0.030   5.362   6.710  2.2853  1.7470 -0.8789
  128OSM    H7T13722  -0.068   5.450   6.829 -3.5759 -2.3856 -0.7851
  128OSM    C8S13723   0.059   5.579   6.717 -0.2027 -0.0109 -0.2096
  128OSM    H8S13724  -0.017   5.660   6.729 -0.9094 -0.5999 -0.5712
  128OSM    H8T13725   0.121   5.572   6.625  0.6591 -0.0365  0.3702
  128OSM    C9S13726   0.156   5.569   6.835  0.2153  0.5198 -0.5034
  128OSM    H9S13727   0.234   5.644   6.811  0.8084  1.1052  2.7647
  128OSM    H9T13728   0.204   5.469   6.842  1.8462  1.3038  0.2565
  128OSM   C10S13729   0.098   5.612   6.970  0.7713  0.1235  0.4789
  128OSM   H10S13730   0.023   5.537   7.002  1.8650 -0.8990  0.7424
  128OSM   H10T13731   0.063   5.717   6.968 -1.5294 -0.6003  0.6378
  128OSM   C11S13732   0.193   5.581   7.078 -0.1284 -0.7803 -1.4069
  128OSM   H11S13733   0.289   5.629   7.050  1.0111 -0.8124  1.9896
  128OSM   H11T13734   0.215   5.473   7.071  0.5766 -0.8124  0.7736
  128OSM   C12S13735   0.146   5.613   7.217 -0.3820  0.1101  0.0071
  128OSM   H12S13736   0.056   5.547   7.225  1.9254 -3.2615  0.2487
  128OSM   H12T13737   0.110   5.717   7.227 -0.2437  0.4260 -2.2485
  128OSM   C13S13738   0.243   5.574   7.332 -0.4882  0.0646  0.4781
  128OSM   H13S13739   0.343   5.623   7.327 -0.2546 -0.5113 -2.4025
  128OSM   H13T13740   0.267   5.468   7.312 -0.3561  0.1417  0.2105
  128OSM   C14S13741   0.195   5.583   7.474  0.2359 -0.5202 -0.1957
  128OSM   H14S13742   0.123   5.501   7.496  0.0240 -0.8886 -2.0755
  128OSM   H14T13743   0.147   5.682   7.489  2.2172  0.2765  1.2901
  128OSM   C15S13744   0.287   5.582   7.593 -0.1882 -0.1364  0.0985
  128OSM   H15S13745   0.356   5.669   7.583  0.0335 -0.3863 -0.6473
  128OSM   H15T13746   0.343   5.486   7.593 -0.1740 -0.2188 -2.8211
  128OSM   C16S13747   0.204   5.601   7.725 -0.2231  0.4060  0.4811
  128OSM   H16S13748   0.140   5.510   7.723 -0.3041  0.4676  0.2640
  128OSM   H16T13749   0.134   5.687   7.725 -2.9182 -1.6463  1.0990
  128OSM   C17S13750   0.280   5.606   7.857  0.6015  0.8299  0.0267
  128OSM   H17S13751   0.327   5.706   7.848 -0.0401  0.9448 -3.1143
  128OSM   H17T13752   0.350   5.520   7.869  0.0924  0.6203  1.8228
  128OSM   C18S13753   0.200   5.621   7.981  0.2993 -0.2242  0.6663
  128OSM   H18S13754   0.254   5.624   8.078 -1.1456  0.5899  1.4765
  128OSM   H18T13755   0.130   5.537   8.002  1.7334 -1.9833 -1.1167
  128OSM   H18U13756   0.139   5.713   7.972  1.8951  1.0215  1.9656
  128OSM    C1F13757   0.320   5.201   6.351  0.6975 -0.1965  0.2847
  128OSM     OF13758   0.413   5.278   6.320 -0.0536  0.1680  0.5769
  128OSM    C2F13759   0.358   5.077   6.428 -0.6776  0.2983 -0.5837
  128OSM    H2F13760   0.424   5.028   6.353 -1.7823 -1.9514 -0.1353
  128OSM    H2G13761   0.276   5.006   6.450 -0.3174 -0.3144 -1.1649
  128OSM    C3F13762   0.431   5.107   6.569 -0.7812  0.6127  0.5940
  128OSM    H3F13763   0.357   5.162   6.631  0.7903 -0.3858  3.5547
  128OSM    H3G13764   0.517   5.173   6.543  1.8820 -2.3762  1.1274
  128OSM    C4F13765   0.470   4.976   6.645  0.2103 -0.3493  0.0851
  128OSM    H4F13766   0.533   4.908   6.584  2.0673  1.1367  0.2447
  128OSM    H4G13767   0.369   4.937   6.671 -1.2605  1.5404 -2.3253
  128OSM    C5F13768   0.546   5.017   6.768  0.2817  0.3536  0.7065
  128OSM    H5F13769   0.491   5.088   6.833 -0.0098 -0.1721  1.0411
  128OSM    H5G13770   0.639   5.065   6.730 -0.8698  1.0549 -1.3556
  128OSM    C6F13771   0.591   4.899   6.853 -0.5921  0.2652  0.1608
  128OSM    H6F13772   0.689   4.909   6.904  0.2635 -1.2384 -1.0757
  128OSM    H6G13773   0.592   4.817   6.778  1.8971  1.7354 -1.5233
  128OSM    C7F13774   0.496   4.861   6.968 -0.5240  0.3453  0.1056
  128OSM    H7F13775   0.504   4.751   6.987 -1.6422  0.5111  1.7011
  128OSM    H7G13776   0.389   4.878   6.944 -0.6955  1.2420  1.3728
  128OSM    C8F13777   0.503   4.953   7.089 -0.5639  0.5554 -0.3134
  128OSM    H8F13778   0.404   4.934   7.135  0.6822 -2.0188  1.5799
  128OSM    H8G13779   0.502   5.062   7.070 -3.1151  0.1188 -3.6050
  128OSM    C9F13780   0.618   4.909   7.181  0.4080  0.5303 -0.1857
  128OSM    H9F13781   0.720   4.930   7.147  0.5950 -0.5601 -0.3138
  128OSM   C10F13782   0.605   4.857   7.304  0.2532 -1.2159  0.5324
  128OSM   H10F13783   0.697   4.820   7.351  1.7114 -0.9004 -1.8908
  128OSM   C11F13784   0.474   4.829   7.373 -0.3900  0.3727  1.0001
  128OSM   H11F13785   0.450   4.726   7.340 -1.0747  0.9882 -0.4996
  128OSM   H11G13786   0.389   4.894   7.344 -0.2063 -0.1819 -0.9020
  128OSM   C12F13787   0.483   4.831   7.530 -0.2824  0.4630 -0.2024
  128OSM   H12F13788   0.412   4.758   7.574  0.7455 -1.4047 -1.5131
  128OSM   H12G13789   0.445   4.930   7.562  1.4689  1.4003 -0.9035
  128OSM   C13F13790   0.618   4.805   7.596 -0.2069 -0.0514 -0.2525
  128OSM   H13F13791   0.682   4.895   7.591 -0.8336  0.4109 -0.0788
  128OSM   H13G13792   0.673   4.718   7.553 -1.9506 -0.4100 -1.8567
  128OSM   C14F13793   0.613   4.785   7.754 -0.3205 -0.3020  0.1354
  128OSM   H14F13794   0.571   4.685   7.775 -0.0794 -0.7586 -1.4484
  128OSM   H14G13795   0.547   4.856   7.810 -0.6200 -0.4143 -0.0727
  128OSM   C15F13796   0.748   4.780   7.813 -0.1241 -0.3262 -0.1341
  128OSM   H15F13797   0.808   4.872   7.793 -2.2077  2.3131  4.2743
  128OSM   H15G13798   0.804   4.690   7.779 -1.3915 -1.3398  0.4077
  128OSM   C16F13799   0.747   4.784   7.970 -0.3698  0.0535 -0.1216
  128OSM   H16F13800   0.681   4.698   7.996 -0.3790 -0.1658 -0.8507
  128OSM   H16G13801   0.703   4.882   7.997 -1.4002  0.2604 -2.3704
  128OSM   C17F13802   0.886   4.771   8.036  0.7525 -0.7177 -0.0855
  128OSM   H17F13803   0.949   4.852   7.993 -2.0241  1.1766 -0.8804
  128OSM   H17G13804   0.923   4.670   8.007 -2.0240 -1.4557 -1.4360
  128OSM   C18F13805   0.875   4.774   8.193 -0.5028  0.2221 -0.0830
  128OSM   H18F13806   0.974   4.774   8.244 -1.7593  1.3347  2.6079
  128OSM   H18G13807   0.838   4.674   8.223  2.0867 -1.8051 -3.0460
  128OSM   H18H13808   0.821   4.860   8.239 -0.7409 -0.3566  0.7457
  129OSM      N13809   5.540   0.432   6.300 -0.1892  0.5681 -0.1112
  129OSM    C1513810   5.636   0.543   6.323  0.2114  0.4159 -0.7669
  129OSM   H15A13811   5.664   0.549   6.427 -0.2563  0.7466 -0.6590
  129OSM   H15B13812   5.590   0.640   6.314 -1.2638  0.1004  2.1901
  129OSM   H15C13813   5.717   0.525   6.253 -0.1890  0.6139 -1.2830
  129OSM    C1413814   5.465   0.474   6.179  0.7734  0.0964  0.8973
  129OSM   H14A13815   5.458   0.581   6.164 -0.0601 -0.0638  0.0180
  129OSM   H14B13816   5.368   0.427   6.188  0.5771 -0.6957 -3.4133
  129OSM   H14C13817   5.511   0.430   6.092 -1.8544 -0.5675 -0.2640
  129OSM    C1313818   5.614   0.307   6.272 -0.0315  0.0885 -0.8299
  129OSM   H13A13819   5.541   0.237   6.234 -1.5426  1.5284 -0.6880
  129OSM   H13B13820   5.658   0.268   6.363  0.4337 -0.1388 -1.1470
  129OSM   H13C13821   5.692   0.320   6.198  1.6297  0.0879  0.8353
  129OSM    C1213822   5.438   0.424   6.409 -0.1013 -1.3582 -0.1203
  129OSM   H12A13823   5.493   0.405   6.500  2.7364 -0.6506 -1.5676
  129OSM   H12B13824   5.370   0.342   6.395 -1.6791 -0.0034 -0.7436
  129OSM    C1113825   5.347   0.551   6.431 -0.1417 -0.5952  0.6347
  129OSM   H11A13826   5.404   0.643   6.404 -1.9282 -0.1555 -2.0090
  129OSM   H11B13827   5.321   0.565   6.538 -0.9916  0.5835  0.3009
  129OSM      P13828   5.118   0.451   6.390  0.2703 -0.4411  0.1185
  129OSM    O1313829   4.995   0.486   6.315 -0.2648  0.4850 -0.1950
  129OSM    O1413830   5.171   0.317   6.388  0.1076 -0.1959 -0.0050
  129OSM    O1113831   5.104   0.510   6.527 -0.0552  0.1955 -0.0769
  129OSM    O1213832   5.237   0.539   6.342 -0.2287 -0.2384 -0.7181
  129OSM    C1S13833   5.005   0.450   6.616 -0.4603 -0.2107  0.5363
  129OSM    H1S13834   5.032   0.344   6.634  0.4290 -0.9663 -4.0593
  129OSM    H1T13835   4.900   0.455   6.581 -0.7015  0.3563  1.3159
  129OSM     NF13836   4.940   0.447   6.854 -0.3905  0.2384 -0.0263
  129OSM    HNF13837   4.864   0.495   6.897 -0.1897 -0.3412  1.0207
  129OSM    C2S13838   5.015   0.521   6.760  0.9600 -0.0115  1.3444
  129OSM    H2S13839   5.122   0.516   6.791  1.7375 -0.9132 -1.1972
  129OSM    C3S13840   4.986   0.678   6.746 -0.6857  0.9475 -0.0306
  129OSM    H3S13841   4.879   0.682   6.716 -0.3642  0.9724 -1.2144
  129OSM     O313842   5.065   0.752   6.650 -0.4081 -0.0181  0.2916
  129OSM    HO313843   5.100   0.686   6.590  3.6306  0.2111  2.0219
  129OSM    C4S13844   4.994   0.732   6.891 -0.4250  0.0051  0.8719
  129OSM    H4S13845   4.902   0.774   6.934  0.2225  1.1001  1.2085
  129OSM    C5S13846   5.111   0.748   6.963  0.5125  0.0717  0.4618
  129OSM    H5S13847   5.205   0.703   6.928  1.2259  1.5596  0.3496
  129OSM    C6S13848   5.116   0.800   7.100 -0.3063 -0.0686 -0.3916
  129OSM    H6S13849   5.110   0.909   7.077 -0.7692 -0.0331 -0.1055
  129OSM    H6T13850   5.219   0.779   7.136 -0.5313  2.2264  1.8116
  129OSM    C7S13851   5.016   0.734   7.195  0.0359 -0.4766 -0.6648
  129OSM    H7S13852   5.045   0.627   7.204  0.2811 -0.5683 -2.2506
  129OSM    H7T13853   4.911   0.743   7.160 -0.6499 -3.1138  0.4429
  129OSM    C8S13854   5.036   0.793   7.337  0.6632  0.2966  0.4684
  129OSM    H8S13855   5.043   0.903   7.340  0.0510  0.3767 -0.5018
  129OSM    H8T13856   5.130   0.757   7.384  1.1564  1.2488  0.2290
  129OSM    C9S13857   4.926   0.761   7.439 -0.3844  0.4613 -0.3858
  129OSM    H9S13858   4.922   0.650   7.447  0.4190  0.5529  2.3486
  129OSM    H9T13859   4.826   0.802   7.412 -0.8361 -1.1423 -1.2652
  129OSM   C10S13860   4.958   0.821   7.580  0.3114 -0.1853  0.3165
  129OSM   H10S13861   4.956   0.932   7.577  0.3837 -0.2128 -2.0749
  129OSM   H10T13862   5.058   0.777   7.605  0.1082  0.2607  2.0427
  129OSM   C11S13863   4.857   0.784   7.689  0.6749 -0.6722 -0.5061
  129OSM   H11S13864   4.869   0.675   7.705 -1.3392 -0.8666 -0.0640
  129OSM   H11T13865   4.750   0.801   7.662  0.1833 -5.0802 -2.2059
  129OSM   C12S13866   4.903   0.850   7.824  0.3884  0.4176 -0.6563
  129OSM   H12S13867   4.929   0.958   7.821 -0.0797  0.5448 -0.2065
  129OSM   H12T13868   4.997   0.802   7.858 -0.6484 -1.3946 -0.2686
  129OSM   C13S13869   4.799   0.821   7.927  0.4836  0.1562 -0.2783
  129OSM   H13S13870   4.763   0.717   7.916  1.4290 -0.1412 -0.5625
  129OSM   H13T13871   4.713   0.889   7.905  1.6449  1.0658 -2.2966
  129OSM   C14S13872   4.858   0.838   8.061 -0.8854  0.8055 -0.1279
  129OSM   H14S13873   4.913   0.933   8.076  0.2441 -0.0301  1.3760
  129OSM   H14T13874   4.932   0.759   8.086  1.3105  3.0232  0.7434
  129OSM   C15S13875   4.750   0.841   8.175  0.1036 -0.3832 -0.4094
  129OSM   H15S13876   4.693   0.746   8.172 -1.5993  0.5839  0.1351
  129OSM   H15T13877   4.672   0.916   8.151  1.2095  0.5613 -1.2263
  129OSM   C16S13878   4.803   0.873   8.316  0.5169 -0.3200 -0.5131
  129OSM   H16S13879   4.848   0.972   8.293 -0.5593  0.3317  0.0508
  129OSM   H16T13880   4.879   0.801   8.352 -0.4795 -1.8530 -1.3821
  129OSM   C17S13881   4.687   0.888   8.422 -1.1879  0.3471 -0.1000
  129OSM   H17S13882   4.666   0.790   8.471 -0.4641 -0.7995 -1.9739
  129OSM   H17T13883   4.601   0.919   8.359  0.3990  3.1267 -1.0964
  129OSM   C18S13884   4.720   0.988   8.538  0.7478 -0.4481 -0.0944
  129OSM   H18S13885   4.628   0.993   8.600  1.1368 -2.2005  0.6862
  129OSM   H18T13886   4.736   1.095   8.510 -0.8144 -0.5857 -1.7537
  129OSM   H18U13887   4.801   0.950   8.603 -1.6569 -2.8456  1.7366
  129OSM    C1F13888   4.948   0.316   6.889 -0.7584 -0.0273 -0.5611
  129OSM     OF13889   5.050   0.251   6.863  0.0186  0.2610  0.7824
  129OSM    C2F13890   4.834   0.252   6.956 -0.1877 -0.4117  0.1712
  129OSM    H2F13891   4.789   0.180   6.884  1.0859 -1.4123  0.3360
  129OSM    H2G13892   4.759   0.323   6.998  0.8248 -0.6925  2.6186
  129OSM    C3F13893   4.877   0.175   7.080 -0.3810  0.4612 -0.3060
  129OSM    H3F13894   4.934   0.248   7.141  0.3309 -1.5845  1.6457
  129OSM    H3G13895   4.948   0.089   7.074 -0.9449 -0.3828  3.0680
  129OSM    C4F13896   4.751   0.122   7.147 -0.1505  0.3379 -0.2280
  129OSM    H4F13897   4.718   0.033   7.088  0.2607  0.3535 -0.4853
  129OSM    H4G13898   4.671   0.196   7.166  0.7262  0.8949  1.4876
  129OSM    C5F13899   4.794   0.056   7.279  0.6518 -0.3316 -0.1180
  129OSM    H5F13900   4.890   0.002   7.266  0.2263 -0.6887 -2.1527
  129OSM    H5G13901   4.713  -0.019   7.295  0.5231 -0.6491 -1.9952
  129OSM    C6F13902   4.792   0.143   7.401  0.5895  0.0338  0.4744
  129OSM    H6F13903   4.688   0.182   7.407  0.8543  0.6398  1.4115
  129OSM    H6G13904   4.863   0.229   7.403  1.4696 -0.6863  0.9392
  129OSM    C7F13905   4.807   0.069   7.531 -0.2453 -0.6650  0.0216
  129OSM    H7F13906   4.897   0.005   7.515  0.4263  0.4148 -0.6323
  129OSM    H7G13907   4.728  -0.008   7.544  1.5311 -2.3841  1.3172
  129OSM    C8F13908   4.810   0.162   7.658 -0.5301  0.0222 -0.6130
  129OSM    H8F13909   4.719   0.225   7.651  0.0666  0.9866  0.0596
  129OSM    H8G13910   4.899   0.225   7.640 -0.4250 -0.0130 -0.2221
  129OSM    C9F13911   4.806   0.085   7.783 -0.3160 -0.1559 -1.0007
  129OSM    H9F13912   4.814  -0.024   7.773 -1.1807 -0.0810 -2.9575
  129OSM   C10F13913   4.793   0.148   7.909  0.6958  0.5695 -0.9045
  129OSM   H10F13914   4.785   0.092   8.004 -1.9734 -0.0013 -1.3788
  129OSM   C11F13915   4.776   0.293   7.926 -0.2294 -0.9135 -0.2528
  129OSM   H11F13916   4.749   0.336   7.828  0.2198 -0.8562 -0.3564
  129OSM   H11G13917   4.868   0.348   7.956 -0.3340 -0.7037 -0.3144
  129OSM   C12F13918   4.671   0.341   8.040 -0.0867  0.9014  0.4604
  129OSM   H12F13919   4.568   0.302   8.028  0.8286 -1.4691 -0.2083
  129OSM   H12G13920   4.659   0.451   8.029 -0.9379  0.7837  0.1719
  129OSM   C13F13921   4.720   0.308   8.184 -0.4927 -0.5485  0.1389
  129OSM   H13F13922   4.819   0.359   8.184 -1.5505  1.6398  0.7631
  129OSM   H13G13923   4.720   0.198   8.200 -2.4152 -1.3175 -3.8465
  129OSM   C14F13924   4.635   0.384   8.296 -0.5270  0.2137 -0.3032
  129OSM   H14F13925   4.526   0.360   8.290 -0.9125  1.2453  1.7219
  129OSM   H14G13926   4.652   0.491   8.274  0.2076  0.3022  0.6656
  129OSM   C15F13927   4.687   0.359   8.435 -0.4933  0.4202  0.5142
  129OSM   H15F13928   4.798   0.361   8.425 -0.5425 -0.9170 -0.6786
  129OSM   H15G13929   4.665   0.258   8.474  0.5816  0.2037  0.5767
  129OSM   C16F13930   4.627   0.458   8.536  0.2120 -0.2230  0.4704
  129OSM   H16F13931   4.516   0.451   8.535  0.1015  1.2126 -1.5627
  129OSM   H16G13932   4.654   0.564   8.519 -0.4871 -0.5025 -3.0564
  129OSM   C17F13933   4.660   0.411   8.676 -0.7199 -0.5970  0.3815
  129OSM   H17F13934   4.768   0.386   8.682 -0.9660 -2.0166 -0.8432
  129OSM   H17G13935   4.621   0.307   8.683  0.1736 -0.9486  0.2389
  129OSM   C18F13936   4.610   0.494   8.794  0.2743 -0.6536 -0.0663
  129OSM   H18F13937   4.500   0.492   8.807  0.3983 -0.8558  0.9975
  129OSM   H18G13938   4.652   0.597   8.798 -0.8385 -0.1894  0.0742
  129OSM   H18H13939   4.637   0.443   8.889  0.4244  0.0977  0.3085
  130OSM      N13940   1.779   4.441   6.220  0.3212 -0.1146  0.1689
  130OSM    C1513941   1.885   4.418   6.119  0.5202  0.9973  0.2578
  130OSM   H15A13942   1.978   4.380   6.156 -0.0741  1.1365  1.9755
  130OSM   H15B13943   1.924   4.518   6.105  1.6842  1.0056  2.9740
  130OSM   H15C13944   1.853   4.394   6.018  1.7625 -0.5664  0.2094
  130OSM    C1413945   1.660   4.503   6.160  0.0506 -0.5911 -0.0683
  130OSM   H14A13946   1.616   4.437   6.088 -1.1526  0.5444 -0.4045
  130OSM   H14B13947   1.691   4.593   6.108  2.7058 -2.0200 -1.1610
  130OSM   H14C13948   1.580   4.516   6.231  0.9442  2.5675  0.5589
  130OSM    C1313949   1.742   4.315   6.281  0.2876  0.0494  0.0989
  130OSM   H13A13950   1.654   4.325   6.343 -0.3429  1.0191 -0.9067
  130OSM   H13B13951   1.822   4.276   6.342 -0.4742 -0.7640  0.5961
  130OSM   H13C13952   1.715   4.248   6.200  0.9784 -0.6211  0.4138
  130OSM    C1213953   1.832   4.528   6.341  0.0236  0.3944  0.6108
  130OSM   H12A13954   1.917   4.477   6.382  0.9339  0.2259 -1.3958
  130OSM   H12B13955   1.749   4.532   6.411 -0.8671  0.0485 -0.4083
  130OSM    C1113956   1.888   4.667   6.307 -0.6497  0.7243 -0.5484
  130OSM   H11A13957   1.905   4.708   6.409 -0.2900 -0.8128  0.0396
  130OSM   H11B13958   1.822   4.737   6.251 -0.8377  0.8434 -0.1826
  130OSM      P13959   2.142   4.646   6.310  0.3057  0.0961  0.1609
  130OSM    O1313960   2.112   4.566   6.430  0.0411  0.9143 -0.1591
  130OSM    O1413961   2.244   4.606   6.214  0.7610 -0.2337  0.0543
  130OSM    O1113962   2.178   4.790   6.357 -0.4176 -0.0267  0.0726
  130OSM    O1213963   2.010   4.661   6.227 -0.0380 -0.2825  0.2224
  130OSM    C1S13964   2.132   4.844   6.486  0.1457  0.0116  0.6455
  130OSM    H1S13965   2.188   4.786   6.562  1.0572 -0.1662 -0.1390
  130OSM    H1T13966   2.024   4.841   6.511  0.5719 -0.3654  2.6432
  130OSM     NF13967   2.167   5.046   6.636 -0.2133 -0.2259 -0.4031
  130OSM    HNF13968   2.097   5.114   6.657 -1.0934 -1.2997  0.2887
  130OSM    C2S13969   2.179   4.994   6.498 -0.0225 -0.2696  0.1645
  130OSM    H2S13970   2.287   5.000   6.474 -0.2175  1.3905 -0.3779
  130OSM    C3S13971   2.104   5.091   6.392 -0.0191  0.4349 -0.4470
  130OSM    H3S13972   1.997   5.099   6.420  0.2276  1.8952  0.1648
  130OSM     O313973   2.111   5.039   6.260 -0.3225 -0.0647  0.1331
  130OSM    HO313974   2.155   4.955   6.280  0.5811  0.5300  0.6992
  130OSM    C4S13975   2.167   5.232   6.393 -0.1027  0.3634 -0.3339
  130OSM    H4S13976   2.255   5.246   6.328  1.0304 -0.0829  1.0603
  130OSM    C5S13977   2.128   5.337   6.470 -0.5757 -0.1499  0.5135
  130OSM    H5S13978   2.051   5.322   6.547 -0.7685  0.4286  0.4343
  130OSM    C6S13979   2.198   5.467   6.471  0.0784  0.5998 -0.0267
  130OSM    H6S13980   2.141   5.542   6.411  0.5877  1.1447  0.1650
  130OSM    H6T13981   2.299   5.460   6.426  0.0669 -0.2365  0.0542
  130OSM    C7S13982   2.214   5.520   6.617  0.6363 -0.2331  0.3240
  130OSM    H7S13983   2.257   5.437   6.678 -3.3703 -1.2046  2.1750
  130OSM    H7T13984   2.111   5.543   6.652  0.4600 -0.6846  0.1104
  130OSM    C8S13985   2.309   5.643   6.637  0.3029 -0.1469  0.0755
  130OSM    H8S13986   2.289   5.720   6.560 -1.8491 -0.2797  0.4248
  130OSM    H8T13987   2.417   5.620   6.642  0.6384  1.4723  0.6743
  130OSM    C9S13988   2.289   5.729   6.770  0.2059  0.4972  0.3005
  130OSM    H9S13989   2.180   5.754   6.763 -0.4083 -1.6828  1.3230
  130OSM    H9T13990   2.353   5.820   6.760 -0.4088  0.7627 -1.9590
  130OSM   C10S13991   2.314   5.665   6.905 -0.4794  0.0336  0.1201
  130OSM   H10S13992   2.420   5.633   6.908 -0.6898 -1.0575 -1.8468
  130OSM   H10T13993   2.264   5.566   6.906 -0.3996 -0.0169 -0.3656
  130OSM   C11S13994   2.275   5.759   7.026  0.9763  0.2739  0.0412
  130OSM   H11S13995   2.254   5.700   7.117  1.6055 -0.3845 -0.2193
  130OSM   H11T13996   2.173   5.798   7.006 -0.3047 -0.8678  3.6683
  130OSM   C12S13997   2.384   5.863   7.057 -0.2731 -0.4101 -0.4205
  130OSM   H12S13998   2.332   5.936   7.123  0.7150 -0.2629  0.2237
  130OSM   H12T13999   2.400   5.914   6.959 -4.1852 -0.6425 -1.3677
  130OSM   C13S14000   2.514   5.818   7.131 -0.5854  0.5639  0.0116
  130OSM   H13S14001   2.581   5.901   7.160 -1.3537  1.0191  0.5161
  130OSM   H13T14002   2.569   5.747   7.065  1.1975  1.0368  0.9412
  130OSM   C14S14003   2.502   5.731   7.256  0.0031 -1.5288  0.0129
  130OSM   H14S14004   2.607   5.707   7.282 -0.1348 -2.1703  0.0091
  130OSM   H14T14005   2.443   5.637   7.240  0.1279 -1.6344  0.1734
  130OSM   C15S14006   2.432   5.811   7.364 -0.8551  0.4256  0.5676
  130OSM   H15S14007   2.324   5.831   7.345 -0.5795  0.6142 -0.9363
  130OSM   H15T14008   2.472   5.915   7.364  0.1468  0.0695  2.2514
  130OSM   C16S14009   2.437   5.746   7.508  0.5490 -0.2867  0.2327
  130OSM   H16S14010   2.537   5.698   7.514  1.0971  0.9637  2.2126
  130OSM   H16T14011   2.368   5.659   7.504 -0.0906  0.2556 -1.8993
  130OSM   C17S14012   2.417   5.837   7.624  0.4851 -0.2187  0.4861
  130OSM   H17S14013   2.316   5.882   7.616  0.4348 -0.4515 -0.2276
  130OSM   H17T14014   2.493   5.917   7.613  0.9445 -0.7720 -0.5927
  130OSM   C18S14015   2.424   5.767   7.760 -0.2591 -0.5390 -0.1453
  130OSM   H18S14016   2.349   5.685   7.769 -1.8481  1.0000  1.4751
  130OSM   H18T14017   2.415   5.836   7.847 -1.7410 -2.2249  1.1382
  130OSM   H18U14018   2.523   5.719   7.771 -1.1433 -2.3161  0.4606
  130OSM    C1F14019   2.237   4.991   6.733 -0.5801 -0.1977 -0.1464
  130OSM     OF14020   2.331   4.911   6.716 -0.1654  0.2889  0.6783
  130OSM    C2F14021   2.198   5.030   6.872 -0.2594  0.2359  0.1813
  130OSM    H2F14022   2.149   4.956   6.939  0.1862 -0.0953  0.1418
  130OSM    H2G14023   2.134   5.120   6.869 -0.0890  0.3373 -0.7332
  130OSM    C3F14024   2.329   5.058   6.957 -0.0474  0.0460 -0.1377
  130OSM    H3F14025   2.366   5.146   6.901  1.1601 -0.8933 -0.8419
  130OSM    H3G14026   2.395   4.969   6.960 -0.8043 -0.5239  2.1332
  130OSM    C4F14027   2.308   5.098   7.105 -0.1975  0.1666  0.7911
  130OSM    H4F14028   2.218   5.162   7.116 -0.3466  0.6095 -2.1094
  130OSM    H4G14029   2.397   5.143   7.153  0.4840 -0.3090 -0.0035
  130OSM    C5F14030   2.272   4.974   7.191  0.4865 -0.0044  0.7118
  130OSM    H5F14031   2.360   4.906   7.195  1.1066  0.5871 -1.5615
  130OSM    H5G14032   2.190   4.915   7.146  0.5022  0.9490 -0.5983
  130OSM    C6F14033   2.234   5.006   7.337 -0.4986 -0.3430  0.3969
  130OSM    H6F14034   2.195   4.913   7.383  0.8921 -0.7655  0.7422
  130OSM    H6G14035   2.152   5.082   7.334  0.5591  0.8171  0.1214
  130OSM    C7F14036   2.359   5.046   7.424 -0.3064 -0.3233  0.4494
  130OSM    H7F14037   2.417   5.125   7.371 -1.9853  1.9112  1.7850
  130OSM    H7G14038   2.427   4.959   7.439 -1.2997 -0.7561  2.7647
  130OSM    C8F14039   2.328   5.094   7.567  0.0735 -0.2421  0.3907
  130OSM    H8F14040   2.421   5.110   7.626 -0.0789  0.3618  0.4722
  130OSM    H8G14041   2.292   5.003   7.618 -2.1909 -0.4515 -1.4033
  130OSM    C9F14042   2.224   5.204   7.569  0.3016  0.7785 -0.4188
  130OSM    H9F14043   2.171   5.225   7.474  0.1795 -1.7609 -0.9814
  130OSM   C10F14044   2.202   5.275   7.677  0.5429  0.1195 -0.2125
  130OSM   H10F14045   2.116   5.343   7.687  0.8326  0.3013  1.4008
  130OSM   C11F14046   2.282   5.268   7.806  0.1949  0.9199 -0.0957
  130OSM   H11F14047   2.292   5.367   7.855  0.8104  1.5538 -1.4553
  130OSM   H11G14048   2.389   5.238   7.798 -0.4069 -1.7094  0.7384
  130OSM   C12F14049   2.191   5.184   7.904 -0.2477  0.5913  0.2064
  130OSM   H12F14050   2.178   5.083   7.858  1.3515  0.5439 -0.1945
  130OSM   H12G14051   2.087   5.222   7.911 -0.5501 -0.1159 -0.2821
  130OSM   C13F14052   2.249   5.154   8.036 -0.5300 -0.4947 -0.1556
  130OSM   H13F14053   2.264   5.251   8.088 -1.7282 -0.3322 -0.1025
  130OSM   H13G14054   2.352   5.112   8.040 -0.7723 -0.9833  1.6675
  130OSM   C14F14055   2.165   5.065   8.127 -0.0928  0.6974 -0.3209
  130OSM   H14F14056   2.228   5.020   8.207  0.3107  1.3303 -0.2689
  130OSM   H14G14057   2.119   4.981   8.071 -1.5492  1.1939  0.1038
  130OSM   C15F14058   2.045   5.140   8.188 -0.7445 -0.7944 -0.1143
  130OSM   H15F14059   1.963   5.148   8.113  0.9267 -2.1545 -2.1851
  130OSM   H15G14060   2.082   5.242   8.212  0.9089 -1.4683  0.3399
  130OSM   C16F14061   1.995   5.067   8.316  0.4434 -0.0481  0.1858
  130OSM   H16F14062   2.057   5.079   8.407 -0.6950  1.2028  0.8238
  130OSM   H16G14063   1.986   4.956   8.305  0.0164 -0.2520  2.2633
  130OSM   C17F14064   1.866   5.130   8.358 -0.1388  0.0606  0.1776
  130OSM   H17F14065   1.819   5.052   8.422  0.8837 -1.1971 -0.5738
  130OSM   H17G14066   1.803   5.133   8.267 -1.3095 -0.2238  0.9476
  130OSM   C18F14067   1.890   5.272   8.409 -0.2548  0.4435  0.7011
  130OSM   H18F14068   1.915   5.338   8.323  0.3156 -2.5245 -1.5711
  130OSM   H18G14069   1.973   5.283   8.482  0.9302 -2.2196 -0.1167
  130OSM   H18H14070   1.802   5.316   8.461 -0.9225  0.8487 -0.7234
  131OSM      N14071   4.266   0.159   5.827  0.2159 -0.6580 -0.2218
  131OSM    C1514072   4.383   0.107   5.742 -0.2328 -0.2967 -0.5189
  131OSM   H15A14073   4.357   0.027   5.675 -0.2025  0.8193 -1.9184
  131OSM   H15B14074   4.459   0.072   5.811  1.0924  1.6868 -0.8871
  131OSM   H15C14075   4.430   0.188   5.688  0.3366 -1.6960 -2.2135
  131OSM    C1414076   4.301   0.293   5.881 -0.0219 -0.3853 -0.6778
  131OSM   H14A14077   4.235   0.321   5.962  1.6512  1.2192  0.2073
  131OSM   H14B14078   4.299   0.362   5.797  1.1889  0.1567 -0.2906
  131OSM   H14C14079   4.395   0.300   5.933 -0.3834 -1.0691  0.0875
  131OSM    C1314080   4.139   0.161   5.747  0.1167 -0.1829 -0.3058
  131OSM   H13A14081   4.126   0.069   5.692  3.4571 -1.2918  0.5209
  131OSM   H13B14082   4.126   0.240   5.674  0.5022 -0.3529 -0.5625
  131OSM   H13C14083   4.056   0.170   5.816 -0.3372 -0.5451 -0.7999
  131OSM    C1214084   4.246   0.059   5.937 -0.2135  0.4310 -0.2646
  131OSM   H12A14085   4.344   0.053   5.982 -0.4686 -1.5524  0.1263
  131OSM   H12B14086   4.227  -0.034   5.887 -1.6826  0.3810  0.3291
  131OSM    C1114087   4.142   0.093   6.048 -0.3304  0.3655  0.8283
  131OSM   H11A14088   4.165   0.196   6.083  0.6239  0.2727  0.5108
  131OSM   H11B14089   4.168   0.030   6.136 -3.1488 -0.7653  0.9458
  131OSM      P14090   3.952  -0.068   5.985  0.3286  0.5723  0.2332
  131OSM    O1314091   3.806  -0.061   5.971  0.1961 -0.0302 -0.1209
  131OSM    O1414092   4.020  -0.130   5.870  0.0674 -0.1589 -0.2803
  131OSM    O1114093   3.990  -0.143   6.121 -0.3373 -0.2020 -0.0993
  131OSM    O1214094   4.009   0.074   6.005  0.0757  0.0455 -0.4921
  131OSM    C1S14095   3.930  -0.102   6.248  0.0826 -0.4301 -0.6165
  131OSM    H1S14096   3.821  -0.097   6.227  0.4573 -0.9634 -2.9909
  131OSM    H1T14097   3.977  -0.004   6.272  0.5595 -0.9590  0.7120
  131OSM     NF14098   3.863  -0.167   6.464 -0.4912 -0.7669 -0.3371
  131OSM    HNF14099   3.890  -0.090   6.521  0.8181  0.1670 -2.1606
  131OSM    C2S14100   3.950  -0.206   6.359  0.5876 -0.5684  0.5885
  131OSM    H2S14101   3.918  -0.302   6.314  1.3646  0.6583 -2.8661
  131OSM    C3S14102   4.106  -0.205   6.391  0.6647 -0.8637  0.4587
  131OSM    H3S14103   4.129  -0.114   6.450  0.2474 -1.4313  1.5242
  131OSM     O314104   4.198  -0.217   6.278 -0.1712 -0.4736 -0.2211
  131OSM    HO314105   4.135  -0.210   6.206 -0.7519  2.2376  0.4306
  131OSM    C4S14106   4.128  -0.322   6.480 -0.3147 -0.1535  0.3719
  131OSM    H4S14107   4.133  -0.421   6.434  2.0977  0.6989 -1.4279
  131OSM    C5S14108   4.175  -0.309   6.604  0.0403 -0.0055  0.0208
  131OSM    H5S14109   4.204  -0.214   6.650 -1.2367  0.2808  0.2629
  131OSM    C6S14110   4.195  -0.433   6.688 -0.1077 -0.5313 -0.5138
  131OSM    H6S14111   4.304  -0.452   6.677  0.3664  1.3444  0.5969
  131OSM    H6T14112   4.144  -0.524   6.648  0.8940 -0.9985 -0.7772
  131OSM    C7S14113   4.143  -0.431   6.835  0.5589  0.1324 -0.0038
  131OSM    H7S14114   4.160  -0.527   6.887  0.8908  0.9675  1.5002
  131OSM    H7T14115   4.033  -0.413   6.830  0.2168 -1.5500  0.8080
  131OSM    C8S14116   4.216  -0.320   6.921 -0.0733  0.8526  0.2414
  131OSM    H8S14117   4.228  -0.234   6.851 -0.1592 -1.5675 -2.9750
  131OSM    H8T14118   4.316  -0.360   6.946 -0.7392 -1.9168 -1.2084
  131OSM    C9S14119   4.143  -0.288   7.053  0.8823 -0.6463 -0.4616
  131OSM    H9S14120   4.042  -0.254   7.020  1.2950  2.3158  1.0008
  131OSM    H9T14121   4.174  -0.195   7.105 -0.7168 -0.4865  0.2628
  131OSM   C10S14122   4.145  -0.392   7.160  0.1295  0.5224 -0.5114
  131OSM   H10S14123   4.244  -0.441   7.172 -0.8339 -1.0847  1.5225
  131OSM   H10T14124   4.073  -0.474   7.138  2.0324 -1.9686  1.8625
  131OSM   C11S14125   4.100  -0.337   7.299  0.1240  0.5505  0.2409
  131OSM   H11S14126   3.994  -0.307   7.289 -0.0528 -0.5440 -1.7335
  131OSM   H11T14127   4.158  -0.247   7.331 -0.9229  1.4465 -0.3090
  131OSM   C12S14128   4.102  -0.451   7.408  0.6112 -0.6362  0.2873
  131OSM   H12S14129   4.206  -0.487   7.416  1.6841  1.7734 -1.6195
  131OSM   H12T14130   4.040  -0.533   7.367  1.1510 -1.5985  1.3545
  131OSM   C13S14131   4.043  -0.404   7.540 -0.3380  0.8650  0.5610
  131OSM   H13S14132   4.071  -0.489   7.607  0.5527  0.9148  0.2655
  131OSM   H13T14133   3.932  -0.406   7.537 -0.3239 -1.1570 -0.9587
  131OSM   C14S14134   4.107  -0.283   7.605  0.3661 -0.1416 -0.5138
  131OSM   H14S14135   4.090  -0.187   7.551  3.5627  1.1267  0.5172
  131OSM   H14T14136   4.217  -0.290   7.603  0.4750 -0.1695  2.2543
  131OSM   C15S14137   4.056  -0.256   7.750 -0.3570  0.1252 -0.1435
  131OSM   H15S14138   4.026  -0.348   7.804 -1.4922  1.1779  1.1197
  131OSM   H15T14139   3.968  -0.188   7.745 -0.8740 -0.5438 -0.2957
  131OSM   C16S14140   4.160  -0.180   7.822  0.1794  0.3483 -0.0324
  131OSM   H16S14141   4.174  -0.084   7.768  0.5635  1.1873  1.5017
  131OSM   H16T14142   4.259  -0.228   7.817 -0.0743 -0.0639 -1.5607
  131OSM   C17S14143   4.123  -0.166   7.968 -1.0426 -0.4249  0.3775
  131OSM   H17S14144   4.183  -0.082   8.010  2.3590 -0.9273 -3.0277
  131OSM   H17T14145   4.156  -0.260   8.017  2.8894 -1.0654 -2.9837
  131OSM   C18S14146   3.978  -0.130   8.006 -0.5615  0.0256 -0.4431
  131OSM   H18S14147   3.984  -0.061   8.092 -0.2488 -3.5325  2.6243
  131OSM   H18T14148   3.930  -0.224   8.042  1.5704 -1.9406 -2.3871
  131OSM   H18U14149   3.924  -0.084   7.920  0.1855  1.0866 -0.3618
  131OSM    C1F14150   3.742  -0.208   6.462 -0.0101  0.0303 -0.3790
  131OSM     OF14151   3.699  -0.273   6.369 -0.0543 -0.5166 -0.0558
  131OSM    C2F14152   3.656  -0.164   6.573  0.4391  0.4979 -0.3248
  131OSM    H2F14153   3.552  -0.132   6.552 -1.1799 -0.0124  5.2248
  131OSM    H2G14154   3.703  -0.074   6.619  0.1362  0.4412  0.0974
  131OSM    C3F14155   3.662  -0.264   6.687  0.6055 -0.5682 -0.2428
  131OSM    H3F14156   3.768  -0.284   6.710  0.1948 -0.3128  2.0854
  131OSM    H3G14157   3.613  -0.358   6.655 -0.5252  0.1533 -0.7112
  131OSM    C4F14158   3.595  -0.212   6.815  0.9480 -0.1320  0.0477
  131OSM    H4F14159   3.497  -0.166   6.789 -0.4641 -2.5940  0.6618
  131OSM    H4G14160   3.652  -0.129   6.861  1.8054  0.4580 -1.9591
  131OSM    C5F14161   3.574  -0.323   6.923 -0.6177  0.4329 -0.6225
  131OSM    H5F14162   3.597  -0.423   6.879  0.0997 -0.4908  1.6584
  131OSM    H5G14163   3.468  -0.333   6.956 -0.1155 -0.5335  0.8263
  131OSM    C6F14164   3.663  -0.305   7.049  0.6164 -0.5600  0.2225
  131OSM    H6F14165   3.691  -0.201   7.075  0.0652 -0.0771 -1.0371
  131OSM    H6G14166   3.765  -0.344   7.027  0.3640 -1.7009  1.0218
  131OSM    C7F14167   3.620  -0.385   7.175 -0.3144  0.0534  0.2909
  131OSM    H7F14168   3.570  -0.478   7.140  0.9479 -0.0326 -1.3810
  131OSM    H7G14169   3.542  -0.322   7.223 -0.6232 -0.2154  0.1417
  131OSM    C8F14170   3.734  -0.414   7.268  0.0641 -0.4314 -0.3698
  131OSM    H8F14171   3.774  -0.314   7.297  0.7279 -0.2672 -1.7919
  131OSM    H8G14172   3.815  -0.467   7.215 -0.1277  0.7562 -1.9482
  131OSM    C9F14173   3.681  -0.489   7.385  1.0385 -0.1757 -0.3738
  131OSM    H9F14174   3.678  -0.598   7.371 -4.1316 -0.2147 -0.7793
  131OSM   C10F14175   3.632  -0.436   7.507 -0.0978  0.2208  0.4356
  131OSM   H10F14176   3.593  -0.501   7.587  0.7689 -2.4927 -1.1949
  131OSM   C11F14177   3.612  -0.290   7.537  0.0398  0.0532 -0.1468
  131OSM   H11F14178   3.544  -0.251   7.458 -0.8890 -0.1517  0.5475
  131OSM   H11G14179   3.702  -0.228   7.520  1.0311 -1.2613  0.1185
  131OSM   C12F14180   3.538  -0.250   7.663  0.5084 -0.5548  0.1588
  131OSM   H12F14181   3.430  -0.271   7.645  0.7033 -0.4561 -1.2433
  131OSM   H12G14182   3.551  -0.140   7.671 -0.4644 -0.4504  0.4387
  131OSM   C13F14183   3.580  -0.311   7.801 -0.0011  0.2134  0.3051
  131OSM   H13F14184   3.691  -0.313   7.797  0.1228 -0.6229  2.5649
  131OSM   H13G14185   3.543  -0.415   7.815  1.9479 -0.6019 -0.2621
  131OSM   C14F14186   3.520  -0.219   7.907 -0.0024 -0.4382 -0.5383
  131OSM   H14F14187   3.410  -0.224   7.913 -0.0783  1.8442  2.0319
  131OSM   H14G14188   3.556  -0.117   7.881 -0.1337  0.1032  1.2730
  131OSM   C15F14189   3.580  -0.244   8.052 -0.0928 -0.3468  0.4462
  131OSM   H15F14190   3.688  -0.271   8.050  0.4620  1.6591  0.7105
  131OSM   H15G14191   3.524  -0.326   8.102 -1.4022  1.0144  1.3080
  131OSM   C16F14192   3.574  -0.113   8.129  0.4167  0.4340  0.2563
  131OSM   H16F14193   3.468  -0.081   8.123 -0.4358 -2.0789  0.6679
  131OSM   H16G14194   3.645  -0.040   8.084  0.3808  0.3559  0.0726
  131OSM   C17F14195   3.601  -0.131   8.276 -0.6658  0.0168 -0.7803
  131OSM   H17F14196   3.538  -0.215   8.313 -1.4523  1.7500  2.2566
  131OSM   H17G14197   3.568  -0.050   8.345  2.0408 -0.3999  1.1408
  131OSM   C18F14198   3.741  -0.160   8.319  0.8654 -0.6264  0.3356
  131OSM   H18F14199   3.793  -0.062   8.328 -1.7007  0.6421  2.7679
  131OSM   H18G14200   3.792  -0.218   8.239  0.9897 -0.2640  0.1458
  131OSM   H18H14201   3.752  -0.208   8.418  0.9967  0.5293  0.9061
  132OSM      N14202   5.215   3.295   6.336 -0.2449 -0.1116 -0.0807
  132OSM    C1514203   5.310   3.361   6.440 -0.1390  0.3735  0.3464
  132OSM   H15A14204   5.357   3.449   6.398  1.5087 -0.4806  0.3249
  132OSM   H15B14205   5.386   3.288   6.464 -0.2759  0.9141  2.7099
  132OSM   H15C14206   5.273   3.376   6.540  1.7460  2.2856  0.8236
  132OSM    C1414207   5.114   3.395   6.293 -0.4644 -0.1882 -0.6723
  132OSM   H14A14208   5.026   3.340   6.263 -0.2814 -1.2233  0.5909
  132OSM   H14B14209   5.151   3.461   6.216  1.0706  0.2151  0.3646
  132OSM   H14C14210   5.084   3.466   6.369 -4.1121 -0.5087 -1.6133
  132OSM    C1314211   5.288   3.259   6.208  0.5939  0.3507 -0.3371
  132OSM   H13A14212   5.326   3.349   6.160 -0.0307  0.0372 -1.4584
  132OSM   H13B14213   5.229   3.198   6.141  0.9303 -0.7516  0.3585
  132OSM   H13C14214   5.377   3.202   6.224  1.5236  1.9740  0.5800
  132OSM    C1214215   5.137   3.176   6.399  0.6924 -0.7540 -0.4242
  132OSM   H12A14216   5.067   3.140   6.326 -0.0669 -0.1081 -0.0419
  132OSM   H12B14217   5.074   3.205   6.483 -2.0047 -2.1982 -1.7979
  132OSM    C1114218   5.219   3.053   6.429  0.2301  0.1495 -0.2787
  132OSM   H11A14219   5.157   2.978   6.484  1.4308 -1.1759 -0.6747
  132OSM   H11B14220   5.301   3.083   6.496 -0.3803 -0.3765  0.7270
  132OSM      P14221   5.412   2.914   6.303  0.3470 -0.1697 -0.0425
  132OSM    O1314222   5.401   2.787   6.222 -0.2247  0.3101  0.8494
  132OSM    O1414223   5.514   3.013   6.263  0.2391 -0.1719  0.1951
  132OSM    O1114224   5.442   2.891   6.459  0.3654 -0.3168 -0.6993
  132OSM    O1214225   5.272   2.994   6.310 -0.1528  0.0465 -0.1568
  132OSM    C1S14226   5.396   2.770   6.518  0.5816 -0.3608  0.7394
  132OSM    H1S14227   5.447   2.687   6.464  0.8858 -0.7653  1.6369
  132OSM    H1T14228   5.286   2.770   6.511  0.5508  0.1741  1.1344
  132OSM     NF14229   5.389   2.655   6.747 -0.1075 -0.1008  0.3369
  132OSM    HNF14230   5.309   2.680   6.802 -0.6114  1.5369 -1.0852
  132OSM    C2S14231   5.440   2.768   6.668 -0.0728  0.5243 -0.3397
  132OSM    H2S14232   5.550   2.760   6.678 -0.2388 -0.5604  0.7920
  132OSM    C3S14233   5.416   2.907   6.749  0.7706 -0.1031  0.0324
  132OSM    H3S14234   5.306   2.919   6.759  0.1333 -0.2053 -4.4436
  132OSM     O314235   5.466   3.019   6.683 -1.3604  0.6456  0.3872
  132OSM    HO314236   5.482   2.988   6.594 -0.9596  1.0350  0.3186
  132OSM    C4S14237   5.465   2.900   6.897  0.2002 -0.2404  0.2643
  132OSM    H4S14238   5.382   2.887   6.968 -1.0092  0.1005 -1.0447
  132OSM    C5S14239   5.591   2.909   6.943 -0.3856 -0.4085  0.0639
  132OSM    H5S14240   5.666   2.952   6.875  0.6269 -2.1120  0.0549
  132OSM    C6S14241   5.643   2.895   7.087  0.1428 -0.7326  0.0832
  132OSM    H6S14242   5.652   2.996   7.135 -0.2605 -0.7629  0.2236
  132OSM    H6T14243   5.746   2.853   7.090  1.2960  1.9156  0.5472
  132OSM    C7S14244   5.566   2.792   7.176 -0.4003 -0.5887 -0.0049
  132OSM    H7S14245   5.552   2.700   7.115 -1.2246 -0.2544 -0.3367
  132OSM    H7T14246   5.464   2.831   7.199 -0.8871 -1.5821 -0.4074
  132OSM    C8S14247   5.637   2.762   7.303  1.0828 -0.6121  1.2607
  132OSM    H8S14248   5.741   2.741   7.269  0.2565 -1.4131 -0.8593
  132OSM    H8T14249   5.592   2.670   7.344 -3.0544  0.8427  0.4180
  132OSM    C9S14250   5.626   2.876   7.406 -0.1625  0.2420 -0.3202
  132OSM    H9S14251   5.527   2.927   7.411  0.4269  1.4687 -0.6874
  132OSM    H9T14252   5.695   2.956   7.373  1.7500 -1.5828 -0.9894
  132OSM   C10S14253   5.656   2.814   7.548 -0.1726 -0.8782  0.2711
  132OSM   H10S14254   5.748   2.752   7.542 -0.2833 -1.2629  1.9632
  132OSM   H10T14255   5.567   2.755   7.578 -1.0033  0.1512 -0.1055
  132OSM   C11S14256   5.673   2.931   7.647 -0.3288 -0.1713 -0.0246
  132OSM   H11S14257   5.605   3.016   7.625  2.0189  2.3634  1.7176
  132OSM   H11T14258   5.770   2.985   7.637 -1.0665  1.0726 -0.6237
  132OSM   C12S14259   5.675   2.891   7.803 -0.4086  0.6591 -0.3803
  132OSM   H12S14260   5.744   2.804   7.808  1.2220  1.8702 -0.8615
  132OSM   H12T14261   5.574   2.863   7.839 -0.4009 -0.0171 -0.8722
  132OSM   C13S14262   5.748   3.000   7.889 -0.4358 -0.5615 -0.7953
  132OSM   H13S14263   5.706   3.101   7.871  0.6522  0.0331 -0.0589
  132OSM   H13T14264   5.857   2.997   7.869 -0.3583 -2.4572 -0.2727
  132OSM   C14S14265   5.732   2.979   8.043 -0.4104 -0.0213  0.2802
  132OSM   H14S14266   5.630   3.012   8.072 -0.1596  0.0512  1.0938
  132OSM   H14T14267   5.808   3.050   8.084 -0.2388  0.2020 -0.3978
  132OSM   C15S14268   5.755   2.834   8.091  0.7227 -0.0786  0.1132
  132OSM   H15S14269   5.861   2.833   8.125  1.3979  2.6801 -1.5670
  132OSM   H15T14270   5.756   2.767   8.003  2.8861 -0.2382  0.1933
  132OSM   C16S14271   5.650   2.785   8.192  0.0145  0.0695  0.7257
  132OSM   H16S14272   5.549   2.794   8.147  0.3008  1.7762  0.3823
  132OSM   H16T14273   5.640   2.849   8.283 -3.4439 -0.5907  0.9483
  132OSM   C17S14274   5.688   2.650   8.247  0.6018  0.2233  0.1010
  132OSM   H17S14275   5.669   2.572   8.170  0.1218  0.3008  0.1337
  132OSM   H17T14276   5.619   2.616   8.327  3.4242 -0.0901  2.5847
  132OSM   C18S14277   5.825   2.641   8.310 -0.8186  0.7102 -0.9027
  132OSM   H18S14278   5.914   2.609   8.252  0.8115 -1.2403  2.3866
  132OSM   H18T14279   5.818   2.568   8.394  2.7396  0.9318 -0.2829
  132OSM   H18U14280   5.864   2.734   8.357  0.9889 -0.3883 -0.1220
  132OSM    C1F14281   5.426   2.528   6.728  0.0226  0.3715 -0.9252
  132OSM     OF14282   5.510   2.490   6.648 -0.0586  0.6033 -0.2178
  132OSM    C2F14283   5.357   2.425   6.823 -0.0100  0.1638 -0.2880
  132OSM    H2F14284   5.305   2.343   6.769 -0.4813  1.4993 -1.9384
  132OSM    H2G14285   5.275   2.472   6.881  0.3263 -1.7890  1.9378
  132OSM    C3F14286   5.466   2.396   6.935 -0.8535 -0.5272  0.2824
  132OSM    H3F14287   5.492   2.492   6.984  1.5658 -0.3441 -1.1688
  132OSM    H3G14288   5.556   2.347   6.891 -0.5241  0.1252  0.2173
  132OSM    C4F14289   5.402   2.321   7.050 -0.2536  0.1469  0.0657
  132OSM    H4F14290   5.479   2.262   7.103 -0.9309  0.0085  0.9173
  132OSM    H4G14291   5.326   2.253   7.006  2.3001 -1.5390 -2.0997
  132OSM    C5F14292   5.349   2.406   7.156  0.7881 -0.7804 -0.2929
  132OSM    H5F14293   5.270   2.475   7.120  0.2914 -0.9674  0.4200
  132OSM    H5G14294   5.435   2.464   7.196  0.3172 -0.6941  0.6199
  132OSM    C6F14295   5.287   2.323   7.268  0.2768  0.7669  0.0854
  132OSM    H6F14296   5.293   2.366   7.371 -2.5205 -1.3592  1.2693
  132OSM    H6G14297   5.354   2.236   7.286 -1.5703 -1.3341 -2.5066
  132OSM    C7F14298   5.146   2.272   7.232 -0.2441 -0.5379  0.3466
  132OSM    H7F14299   5.142   2.214   7.137 -2.7861  0.3682 -0.1812
  132OSM    H7G14300   5.075   2.357   7.228 -2.2268 -2.1580 -1.2177
  132OSM    C8F14301   5.080   2.186   7.342 -0.0088 -0.2117 -0.2044
  132OSM    H8F14302   4.969   2.183   7.345 -0.0015 -0.0993  0.3441
  132OSM    H8G14303   5.107   2.240   7.435 -1.4401  1.9450 -0.9462
  132OSM    C9F14304   5.129   2.046   7.357  0.4285 -0.2683 -0.6385
  132OSM    H9F14305   5.119   1.998   7.258 -3.3460  1.0343 -1.0842
  132OSM   C10F14306   5.166   1.988   7.472 -0.1694 -0.1046 -0.9018
  132OSM   H10F14307   5.205   1.885   7.469  0.9112  0.2061  0.9939
  132OSM   C11F14308   5.181   2.052   7.613 -0.5064  0.8681  0.5189
  132OSM   H11F14309   5.163   2.161   7.619  1.8261  1.2924  0.4744
  132OSM   H11G14310   5.282   2.023   7.647 -0.9480 -0.6688  0.5998
  132OSM   C12F14311   5.095   1.988   7.717  0.4562 -0.0816 -0.3832
  132OSM   H12F14312   5.082   1.878   7.707 -1.5620  0.1673 -0.8820
  132OSM   H12G14313   4.992   2.028   7.708 -0.4839 -1.4686  2.6413
  132OSM   C13F14314   5.149   2.028   7.850  0.0438  0.3032  0.1083
  132OSM   H13F14315   5.168   2.137   7.866  1.4648  0.1553 -0.4213
  132OSM   H13G14316   5.254   1.991   7.861  0.7110  2.3994  1.5492
  132OSM   C14F14317   5.072   1.967   7.963 -0.0508 -0.0539  0.2145
  132OSM   H14F14318   5.037   1.864   7.939 -1.0816  0.8610 -2.5006
  132OSM   H14G14319   4.980   2.027   7.976  0.3377  0.6859 -0.4037
  132OSM   C15F14320   5.144   1.951   8.096  0.1962 -0.2026  0.1260
  132OSM   H15F14321   5.183   2.049   8.131  0.4400 -1.0283  2.2994
  132OSM   H15G14322   5.234   1.888   8.082 -0.5996 -1.2992 -0.1822
  132OSM   C16F14323   5.053   1.889   8.201  0.6853  0.0927 -0.1278
  132OSM   H16F14324   5.118   1.816   8.255 -2.8381 -2.1375  1.5434
  132OSM   H16G14325   4.968   1.834   8.155 -0.7131  1.8113  0.2808
  132OSM   C17F14326   5.003   1.997   8.299  0.9260 -0.0153  0.2038
  132OSM   H17F14327   5.085   2.068   8.323  0.7236  0.0609  0.6938
  132OSM   H17G14328   4.954   1.955   8.390  0.4352 -2.2602 -1.0272
  132OSM   C18F14329   4.898   2.087   8.239  0.1877  0.1803  0.3698
  132OSM   H18F14330   4.947   2.143   8.156  2.4349 -0.6693  1.0555
  132OSM   H18G14331   4.854   2.173   8.293 -1.0640  0.6108 -1.2446
  132OSM   H18H14332   4.814   2.031   8.193 -1.9015  0.8264  3.1533
  133OSM      N14333   0.466   3.235   6.036  0.7013 -0.6672  0.0115
  133OSM    C1514334   0.519   3.245   5.898 -0.0675 -0.0468 -0.0700
  133OSM   H15A14335   0.618   3.286   5.901  0.5197 -0.8213 -3.5572
  133OSM   H15B14336   0.453   3.298   5.830 -0.1254 -0.3699 -0.2723
  133OSM   H15C14337   0.520   3.142   5.865  0.5685 -0.5971  1.5678
  133OSM    C1414338   0.331   3.162   6.032  0.3295 -0.8269  0.0255
  133OSM   H14A14339   0.253   3.221   5.986 -0.1030 -1.6309 -0.2954
  133OSM   H14B14340   0.299   3.150   6.135 -1.4097  2.7465  0.0486
  133OSM   H14C14341   0.330   3.066   5.982  2.5883 -1.0843  0.3682
  133OSM    C1314342   0.557   3.154   6.120  0.3043  0.2612  0.0339
  133OSM   H13A14343   0.646   3.209   6.143  0.5653 -0.9863  2.3367
  133OSM   H13B14344   0.565   3.057   6.074 -2.0109  0.6359 -1.3583
  133OSM   H13C14345   0.509   3.142   6.216  0.5260  1.0306  0.2436
  133OSM    C1214346   0.445   3.373   6.097  0.2322  0.1752  0.3405
  133OSM   H12A14347   0.370   3.427   6.042 -1.0658 -0.7626  1.1430
  133OSM   H12B14348   0.543   3.416   6.077  0.2933 -1.3057 -3.2161
  133OSM    C1114349   0.401   3.386   6.241  0.1961 -0.3646 -0.3348
  133OSM   H11A14350   0.388   3.496   6.247  1.2281 -0.3071  1.5137
  133OSM   H11B14351   0.487   3.366   6.308  1.2505  2.7457 -0.5965
  133OSM      P14352   0.150   3.374   6.257  0.1342 -0.0765 -0.3914
  133OSM    O1314353   0.152   3.516   6.242  0.0634 -0.3172 -0.1220
  133OSM    O1414354   0.077   3.300   6.154 -0.3241  0.1224 -0.5280
  133OSM    O1114355   0.084   3.327   6.395 -0.6896 -0.6773  0.2795
  133OSM    O1214356   0.288   3.318   6.277  0.0172  0.0808  0.0212
  133OSM    C1S14357   0.161   3.352   6.512  0.1159 -0.0161 -0.0700
  133OSM    H1S14358   0.175   3.461   6.528 -4.3378  0.7586 -0.1116
  133OSM    H1T14359   0.253   3.289   6.507 -1.0907 -1.8202 -0.6028
  133OSM     NF14360   0.158   3.316   6.751  0.1584 -0.3116 -1.1916
  133OSM    HNF14361   0.208   3.235   6.782 -0.1889 -0.5693 -1.2953
  133OSM    C2S14362   0.080   3.294   6.636  0.2612 -0.1869 -0.7897
  133OSM    H2S14363  -0.018   3.346   6.637 -0.5863 -1.7051  0.9930
  133OSM    C3S14364   0.034   3.149   6.616 -0.0581 -0.4635  0.2089
  133OSM    H3S14365   0.122   3.086   6.592 -0.4226 -0.6951 -0.5672
  133OSM     O314366  -0.056   3.133   6.503 -0.5189  0.4000  0.0645
  133OSM    HO314367  -0.046   3.208   6.444  1.2798  0.3683  0.2494
  133OSM    C4S14368  -0.028   3.087   6.742  0.4440 -0.1885  0.0440
  133OSM    H4S14369   0.012   2.990   6.775  2.4147  0.6309  0.1903
  133OSM    C5S14370  -0.130   3.142   6.807 -0.4276  0.3140  0.1768
  133OSM    H5S14371  -0.176   3.232   6.764  2.1028  2.0224  0.8685
  133OSM    C6S14372  -0.191   3.090   6.936  0.8314  0.1641 -0.3192
  133OSM    H6S14373  -0.291   3.046   6.919  0.3027  1.0171  0.5010
  133OSM    H6T14374  -0.220   3.172   7.004 -1.2551 -0.0721 -0.8681
  133OSM    C7S14375  -0.112   2.986   7.012 -0.8841  0.1682  0.5153
  133OSM    H7S14376  -0.022   3.030   7.061 -1.8285  2.7714  0.0769
  133OSM    H7T14377  -0.082   2.903   6.945  1.6582  1.8843 -0.6383
  133OSM    C8S14378  -0.200   2.928   7.125  0.1102  0.5052 -0.4419
  133OSM    H8S14379  -0.158   2.833   7.164  1.8371  1.2538 -0.3692
  133OSM    H8T14380  -0.303   2.916   7.086  0.4529 -1.9105 -0.7433
  133OSM    C9S14381  -0.210   3.001   7.258  0.1406 -0.1835  0.6402
  133OSM    H9S14382  -0.243   3.107   7.247  0.3629  0.0939  2.3266
  133OSM    H9T14383  -0.105   3.009   7.294 -0.3013  2.6114  1.5680
  133OSM   C10S14384  -0.281   2.932   7.376  0.3743  0.1993  0.2956
  133OSM   H10S14385  -0.256   2.824   7.382 -0.6935 -0.0413  0.6199
  133OSM   H10T14386  -0.391   2.943   7.374  0.3206  0.3489  2.4067
  133OSM   C11S14387  -0.242   2.997   7.509  0.4371 -0.2282 -0.1653
  133OSM   H11S14388  -0.289   3.098   7.507 -0.8238 -0.8138 -0.9156
  133OSM   H11T14389  -0.133   3.015   7.520  0.8124 -1.7659 -1.0653
  133OSM   C12S14390  -0.284   2.916   7.630 -0.4614 -1.0310 -0.4159
  133OSM   H12S14391  -0.239   2.816   7.610  1.4718  0.0084 -1.5448
  133OSM   H12T14392  -0.392   2.893   7.632 -0.3875 -1.7242 -2.4335
  133OSM   C13S14393  -0.237   2.977   7.762  0.0476  0.4587  0.7364
  133OSM   H13S14394  -0.266   3.084   7.759  0.2384  0.4965 -1.7771
  133OSM   H13T14395  -0.127   2.979   7.757  0.1190 -1.0116  1.3587
  133OSM   C14S14396  -0.280   2.890   7.879 -0.3194 -0.3054 -0.4143
  133OSM   H14S14397  -0.236   2.789   7.865 -1.0538 -0.6464 -0.3199
  133OSM   H14T14398  -0.390   2.875   7.882 -0.2737 -0.8726 -1.2645
  133OSM   C15S14399  -0.236   2.952   8.013  0.0698  0.0926  0.0286
  133OSM   H15S14400  -0.287   3.050   8.022 -0.2019 -0.2117  2.2249
  133OSM   H15T14401  -0.128   2.974   8.003 -0.4788  2.7836 -0.7253
  133OSM   C16S14402  -0.282   2.861   8.126 -0.1665 -0.3121  0.0616
  133OSM   H16S14403  -0.227   2.766   8.110  0.2573  0.0936 -0.9795
  133OSM   H16T14404  -0.390   2.835   8.126 -0.2416 -0.1745  2.2295
  133OSM   C17S14405  -0.236   2.913   8.265  0.5266  0.0600  0.1767
  133OSM   H17S14406  -0.299   3.004   8.273  1.7445  0.7806  2.5717
  133OSM   H17T14407  -0.130   2.948   8.269  1.1666 -1.7172 -0.2519
  133OSM   C18S14408  -0.258   2.817   8.382  0.3802 -0.2193 -0.0320
  133OSM   H18S14409  -0.350   2.756   8.372  1.8197 -2.4145 -0.9396
  133OSM   H18T14410  -0.267   2.872   8.478 -0.8217  0.0751 -0.3031
  133OSM   H18U14411  -0.185   2.733   8.383  2.4198  1.4737  0.7203
  133OSM    C1F14412   0.169   3.436   6.816  0.5232  0.1493 -0.2924
  133OSM     OF14413   0.130   3.542   6.767 -0.3231  0.1766 -0.2004
  133OSM    C2F14414   0.227   3.434   6.950 -0.0307 -0.6537  0.4197
  133OSM    H2F14415   0.285   3.529   6.951 -0.7816 -0.1703  2.2920
  133OSM    H2G14416   0.291   3.346   6.970 -1.7462 -1.6932  1.5527
  133OSM    C3F14417   0.110   3.422   7.053 -0.3316 -0.1151 -0.3436
  133OSM    H3F14418   0.076   3.317   7.043  0.1491 -0.0662 -4.2525
  133OSM    H3G14419   0.027   3.490   7.023 -0.8205 -0.6861 -0.2790
  133OSM    C4F14420   0.148   3.448   7.198 -0.6213 -0.5270  0.1673
  133OSM    H4F14421   0.178   3.551   7.226 -1.8892  0.1207 -0.7071
  133OSM    H4G14422   0.234   3.381   7.220  0.9144  1.6542  1.1461
  133OSM    C5F14423   0.028   3.418   7.299  0.3713 -0.1528  0.0111
  133OSM    H5F14424  -0.004   3.313   7.285  0.6057 -0.0767 -1.2546
  133OSM    H5G14425  -0.053   3.489   7.272  0.8803  0.6733  0.6076
  133OSM    C6F14426   0.065   3.439   7.443 -0.7092  0.1529 -0.5284
  133OSM    H6F14427   0.097   3.545   7.451 -0.3189  0.0163 -0.1885
  133OSM    H6G14428   0.147   3.368   7.470 -1.9058 -0.5320  1.5359
  133OSM    C7F14429  -0.058   3.417   7.535 -1.1437 -0.2321 -0.6158
  133OSM    H7F14430  -0.098   3.315   7.514  0.5044 -1.2086  0.7377
  133OSM    H7G14431  -0.118   3.508   7.516 -0.8514  0.2382  0.6160
  133OSM    C8F14432  -0.014   3.415   7.683 -0.4513  0.2947 -0.2261
  133OSM    H8F14433  -0.102   3.425   7.751 -0.9237 -2.0331 -0.4011
  133OSM    H8G14434   0.038   3.512   7.696 -2.9021  1.6512 -0.0652
  133OSM    C9F14435   0.073   3.297   7.723 -0.2280  0.9027 -0.4791
  133OSM    H9F14436   0.109   3.235   7.640  0.7382 -0.8421  1.1844
  133OSM   C10F14437   0.099   3.256   7.852 -0.3850 -0.7721  0.2139
  133OSM   H10F14438   0.150   3.162   7.879 -0.7245 -0.5306  1.8015
  133OSM   C11F14439   0.046   3.331   7.972  0.1305  1.0381  0.7933
  133OSM   H11F14440   0.038   3.437   7.942  0.2156  0.8505  0.0886
  133OSM   H11G14441   0.124   3.318   8.050  1.8649 -2.8455 -1.2619
  133OSM   C12F14442  -0.099   3.303   8.022  0.3276 -0.3892 -0.6274
  133OSM   H12F14443  -0.114   3.194   8.038  1.4257 -0.6009 -0.9664
  133OSM   H12G14444  -0.172   3.339   7.947 -0.0328  0.0141 -0.0904
  133OSM   C13F14445  -0.128   3.371   8.156  0.0235 -0.8006  0.0522
  133OSM   H13F14446  -0.237   3.375   8.175  0.3325  1.9814  1.7654
  133OSM   H13G14447  -0.105   3.480   8.148 -2.8847 -0.0136  1.0907
  133OSM   C14F14448  -0.053   3.320   8.275 -0.0682  0.6688 -0.4544
  133OSM   H14F14449   0.050   3.362   8.287  0.6668 -1.3276  0.8130
  133OSM   H14G14450  -0.051   3.209   8.270  1.1506  0.7194 -1.4421
  133OSM   C15F14451  -0.123   3.364   8.411  0.4342  0.2678 -0.2777
  133OSM   H15F14452  -0.217   3.304   8.419  1.9616 -2.0520  1.5025
  133OSM   H15G14453  -0.149   3.472   8.406 -0.6499  0.0237 -0.2668
  133OSM   C16F14454  -0.027   3.335   8.521 -0.2082  0.1523 -0.4867
  133OSM   H16F14455  -0.073   3.382   8.611  0.6817  0.6768 -0.2974
  133OSM   H16G14456   0.065   3.394   8.504 -0.2430  0.9373  1.7013
  133OSM   C17F14457   0.015   3.185   8.554  0.0593 -0.4416  0.7288
  133OSM   H17F14458   0.091   3.190   8.635 -3.2781  0.3290  4.0580
  133OSM   H17G14459   0.067   3.150   8.462 -1.4647 -0.9013  0.0015
  133OSM   C18F14460  -0.100   3.098   8.606  0.3989 -0.0162 -0.2694
  133OSM   H18F14461  -0.145   3.151   8.692  0.1788 -4.9794  3.0023
  133OSM   H18G14462  -0.067   2.996   8.633 -1.4101 -0.2237  1.2621
  133OSM   H18H14463  -0.174   3.087   8.524 -0.0881 -1.5565  0.3670
  134OSM      N14464   0.864   4.827   6.409  0.1524  0.0785  0.3536
  134OSM    C1514465   0.806   4.699   6.462  0.4842 -0.4055  0.6821
  134OSM   H15A14466   0.698   4.707   6.472  0.0030 -2.4306 -1.7871
  134OSM   H15B14467   0.851   4.675   6.557 -0.0334 -1.6056  0.6427
  134OSM   H15C14468   0.838   4.611   6.408  0.1569 -0.2390  0.2093
  134OSM    C1414469   0.808   4.867   6.273 -0.2786 -0.3004 -0.3514
  134OSM   H14A14470   0.848   4.962   6.242  2.8852 -0.6664  2.0823
  134OSM   H14B14471   0.702   4.877   6.289 -0.0488  0.5586  0.7726
  134OSM   H14C14472   0.827   4.791   6.199  0.3815 -0.8136  0.3261
  134OSM    C1314473   0.831   4.937   6.506  0.2254 -0.2245 -0.6757
  134OSM   H13A14474   0.724   4.944   6.515  0.2295 -0.3059 -0.5647
  134OSM   H13B14475   0.864   5.034   6.471 -2.2357  1.0554  0.3453
  134OSM   H13C14476   0.877   4.912   6.600  0.9798  0.3174 -0.8854
  134OSM    C1214477   1.015   4.813   6.391  0.1512 -0.9314 -1.0459
  134OSM   H12A14478   1.052   4.903   6.344 -0.0937  0.5692  1.4719
  134OSM   H12B14479   1.028   4.743   6.309  0.0846  1.1678 -2.9611
  134OSM    C1114480   1.091   4.765   6.521  0.1660 -0.0115  0.5106
  134OSM   H11A14481   1.175   4.702   6.486  1.0937  0.9991  0.8685
  134OSM   H11B14482   1.022   4.703   6.582 -1.0088 -0.1649 -0.9185
  134OSM      P14483   1.277   4.947   6.544  0.0621  0.3621 -0.5035
  134OSM    O1314484   1.291   4.950   6.397  0.6864 -0.4408 -0.1364
  134OSM    O1414485   1.295   5.076   6.616  0.0006  0.4547 -0.2066
  134OSM    O1114486   1.387   4.842   6.594 -0.4672 -0.2492  0.1582
  134OSM    O1214487   1.142   4.877   6.583  0.3148  0.6544  0.2736
  134OSM    C1S14488   1.412   4.814   6.733  0.2701 -0.4523  0.4723
  134OSM    H1S14489   1.316   4.780   6.777  1.0593  0.7045  3.3054
  134OSM    H1T14490   1.454   4.898   6.791 -0.3654 -0.0884  0.4069
  134OSM     NF14491   1.538   4.690   6.899  0.5758 -0.3066  0.0307
  134OSM    HNF14492   1.628   4.715   6.934  1.4399 -0.5852 -1.8884
  134OSM    C2S14493   1.512   4.692   6.752 -0.0194  0.0180  0.2595
  134OSM    H2S14494   1.457   4.598   6.731  1.2886 -0.9013  0.8535
  134OSM    C3S14495   1.633   4.710   6.656 -0.4298  0.1457  0.3034
  134OSM    H3S14496   1.695   4.803   6.664 -0.6392  0.5203 -1.7008
  134OSM     O314497   1.612   4.705   6.517 -0.3554  0.6107  0.3596
  134OSM    HO314498   1.517   4.718   6.514 -0.3214  0.7200 -0.5150
  134OSM    C4S14499   1.732   4.596   6.691  0.8981  0.5259  0.2765
  134OSM    H4S14500   1.686   4.496   6.694  2.8354 -0.4193 -0.0393
  134OSM    C5S14501   1.865   4.596   6.714  0.1082 -0.1839  0.3981
  134OSM    H5S14502   1.923   4.688   6.698 -0.5439  0.2793  0.6537
  134OSM    C6S14503   1.948   4.476   6.740 -0.1444  0.2150  0.0044
  134OSM    H6S14504   2.033   4.475   6.670 -0.0832 -0.0415  0.0818
  134OSM    H6T14505   1.889   4.384   6.719 -1.6339  0.7845  1.4726
  134OSM    C7S14506   2.009   4.459   6.882  0.2267 -0.1744  0.2274
  134OSM    H7S14507   2.081   4.542   6.899  1.9136 -1.7532  1.1018
  134OSM    H7T14508   2.075   4.370   6.867  1.4015  0.9584 -1.7805
  134OSM    C8S14509   1.904   4.427   6.984  0.0193  0.6223 -0.1231
  134OSM    H8S14510   1.859   4.329   6.959 -1.4490  1.1568  0.3265
  134OSM    H8T14511   1.816   4.494   6.975  0.2418  0.6850 -2.7104
  134OSM    C9S14512   1.962   4.419   7.131  0.0652 -0.1978  0.4530
  134OSM    H9S14513   1.973   4.523   7.167  0.1218 -0.8181  2.3206
  134OSM    H9T14514   2.057   4.363   7.126  1.9372  2.8702 -2.3647
  134OSM   C10S14515   1.864   4.339   7.220 -0.4875  0.2683  0.4522
  134OSM   H10S14516   1.870   4.238   7.174 -2.7117  0.8182 -1.2120
  134OSM   H10T14517   1.764   4.385   7.208 -0.7147  0.0795  1.4667
  134OSM   C11S14518   1.919   4.345   7.362 -0.4893 -0.6773  0.1826
  134OSM   H11S14519   1.965   4.443   7.389 -1.8609 -0.8090  3.4654
  134OSM   H11T14520   1.998   4.268   7.375  0.6094  0.6667  1.9027
  134OSM   C12S14521   1.810   4.312   7.461 -0.0781  0.1360  0.5214
  134OSM   H12S14522   1.746   4.232   7.418 -1.1326  1.8381 -1.2137
  134OSM   H12T14523   1.742   4.398   7.479  1.7053  1.7297 -0.0267
  134OSM   C13S14524   1.861   4.274   7.607 -0.4211  0.0528  0.2778
  134OSM   H13S14525   1.919   4.179   7.607  1.2153  0.9271  3.0647
  134OSM   H13T14526   1.780   4.254   7.680  1.3131 -1.3433  1.9455
  134OSM   C14S14527   1.954   4.380   7.664 -0.2457  0.4806 -0.6619
  134OSM   H14S14528   1.893   4.472   7.665 -0.2422  0.5108 -2.0031
  134OSM   H14T14529   2.046   4.395   7.604 -0.8135 -0.4114 -1.7932
  134OSM   C15S14530   1.985   4.363   7.822  0.0565 -0.1238  0.6161
  134OSM   H15S14531   2.059   4.438   7.855 -0.8460  1.4919 -0.8774
  134OSM   H15T14532   2.028   4.260   7.827 -1.1258 -0.6877 -0.2059
  134OSM   C16S14533   1.859   4.372   7.911 -0.2142  0.0746 -0.3837
  134OSM   H16S14534   1.793   4.286   7.886 -0.8608  1.0546 -2.1282
  134OSM   H16T14535   1.809   4.464   7.876 -1.9260 -0.6784 -0.0470
  134OSM   C17S14536   1.869   4.359   8.064  0.3248 -0.1335 -0.0581
  134OSM   H17S14537   1.930   4.431   8.122 -1.5671  0.9197  0.7269
  134OSM   H17T14538   1.908   4.256   8.076 -0.7231 -0.4675  0.5539
  134OSM   C18S14539   1.728   4.372   8.127  0.4750  0.3976 -0.1787
  134OSM   H18S14540   1.723   4.364   8.238 -2.1930  1.7530 -0.1227
  134OSM   H18T14541   1.663   4.294   8.083  1.0068 -0.2145  0.1086
  134OSM   H18U14542   1.686   4.472   8.104 -1.5037 -0.7148 -1.6993
  134OSM    C1F14543   1.447   4.664   6.999 -0.6414 -0.5617  0.5127
  134OSM     OF14544   1.336   4.628   6.971  0.3186  0.0541 -0.6612
  134OSM    C2F14545   1.505   4.682   7.138  0.4862 -0.2197  0.3672
  134OSM    H2F14546   1.528   4.790   7.155  0.4748 -0.0798 -0.4770
  134OSM    H2G14547   1.600   4.626   7.144 -0.2023 -1.4824 -0.2315
  134OSM    C3F14548   1.413   4.624   7.245  0.0772  0.4415  0.7588
  134OSM    H3F14549   1.394   4.516   7.226 -3.9719  1.4942 -2.9235
  134OSM    H3G14550   1.311   4.663   7.264 -0.3881 -1.4468  2.3980
  134OSM    C4F14551   1.490   4.629   7.374  0.7749  0.7868 -0.1099
  134OSM    H4F14552   1.504   4.735   7.407  0.3653  0.5391  0.8924
  134OSM    H4G14553   1.587   4.576   7.372  0.0990 -0.4872 -0.1540
  134OSM    C5F14554   1.420   4.551   7.492 -0.4740 -0.2947 -0.2014
  134OSM    H5F14555   1.425   4.442   7.471  1.6963  0.3824 -4.3297
  134OSM    H5G14556   1.315   4.584   7.507 -0.2366  0.0390  0.8197
  134OSM    C6F14557   1.494   4.576   7.631  0.5606  0.2439  0.0930
  134OSM    H6F14558   1.503   4.686   7.642  0.7510  0.3582 -1.1294
  134OSM    H6G14559   1.601   4.547   7.625  1.4291  2.9344  0.9298
  134OSM    C7F14560   1.441   4.496   7.750 -0.0667 -0.2722  0.0868
  134OSM    H7F14561   1.456   4.387   7.734 -1.0436 -0.4364  0.2137
  134OSM    H7G14562   1.332   4.515   7.761 -0.0014  1.5944 -1.8959
  134OSM    C8F14563   1.502   4.518   7.884  0.0646 -0.5173 -0.2971
  134OSM    H8F14564   1.612   4.535   7.881 -0.0899  0.4371 -0.7771
  134OSM    H8G14565   1.488   4.433   7.954  0.2899 -0.2031  0.1331
  134OSM    C9F14566   1.443   4.647   7.947  0.3514  0.9029 -0.4955
  134OSM    H9F14567   1.484   4.746   7.922  0.3016  0.6073 -1.8556
  134OSM   C10F14568   1.336   4.638   8.026 -0.2814  0.3968  0.2292
  134OSM   H10F14569   1.291   4.725   8.076  0.9001  0.3865  1.3623
  134OSM   C11F14570   1.267   4.517   8.075  0.0539  1.1702 -0.3305
  134OSM   H11F14571   1.299   4.434   8.008 -0.5882  1.4560 -0.9950
  134OSM   H11G14572   1.159   4.515   8.050  0.3863 -0.3987 -1.8608
  134OSM   C12F14573   1.298   4.490   8.226 -0.3039  0.0468  0.5570
  134OSM   H12F14574   1.399   4.520   8.260  0.2726 -0.6507 -0.4874
  134OSM   H12G14575   1.292   4.380   8.240  3.1308 -0.3979 -0.6039
  134OSM   C13F14576   1.192   4.550   8.313 -0.0864  0.0262 -0.2019
  134OSM   H13F14577   1.092   4.525   8.270 -0.7623  4.6025 -1.7905
  134OSM   H13G14578   1.203   4.660   8.321  1.2513 -0.1332  0.2765
  134OSM   C14F14579   1.196   4.491   8.465  0.4351 -0.4727  0.1883
  134OSM   H14F14580   1.220   4.569   8.540 -0.0110 -1.3346  1.2719
  134OSM   H14G14581   1.269   4.408   8.460 -0.0842 -1.1570  2.6188
  134OSM   C15F14582   1.063   4.426   8.497 -0.4622  0.4225  0.6243
  134OSM   H15F14583   1.039   4.348   8.421 -0.6273 -0.1778  1.2854
  134OSM   H15G14584   0.991   4.511   8.493  0.3337  1.1255  1.0320
  134OSM   C16F14585   1.041   4.369   8.638 -0.4216  0.1136 -1.0540
  134OSM   H16F14586   1.038   4.457   8.706  0.1340 -1.1368  0.6680
  134OSM   H16G14587   1.133   4.316   8.671  0.8733  3.6428  1.7654
  134OSM   C17F14588   0.900   4.299   8.641 -0.4740 -0.2323 -0.1969
  134OSM   H17F14589   0.912   4.209   8.577 -1.5498  0.4791 -1.4507
  134OSM   H17G14590   0.829   4.371   8.594  1.6670  1.1679 -1.4823
  134OSM   C18F14591   0.866   4.266   8.782  0.5770 -0.1201  1.0484
  134OSM   H18F14592   0.781   4.194   8.784  1.7393 -1.5796  0.1227
  134OSM   H18G14593   0.840   4.360   8.834 -0.5203 -0.5082  1.2338
  134OSM   H18H14594   0.952   4.217   8.831 -0.5175 -0.6362  2.5178
  135OSM      N14595   0.916   4.022   6.247 -1.1270  0.8381  0.3793
  135OSM    C1514596   0.793   4.027   6.333  0.2616  0.3419  0.1673
  135OSM   H15A14597   0.768   3.938   6.389  1.3559  0.7052  1.2837
  135OSM   H15B14598   0.709   4.037   6.266  0.1891 -0.4357  0.1350
  135OSM   H15C14599   0.794   4.115   6.396 -1.3207 -0.2207  1.0205
  135OSM    C1414600   0.909   3.897   6.163 -0.1931  0.8185  0.1389
  135OSM   H14A14601   0.817   3.904   6.106 -1.4354  0.7945  2.0431
  135OSM   H14B14602   0.911   3.807   6.223  1.2561  1.8438  1.7350
  135OSM   H14C14603   0.995   3.885   6.099 -1.6808 -1.2003 -1.6466
  135OSM    C1314604   0.914   4.122   6.143 -0.2305 -0.0718  0.2534
  135OSM   H13A14605   0.970   4.094   6.054 -0.5995  1.1657 -0.3876
  135OSM   H13B14606   0.958   4.214   6.178  0.4133 -0.2406 -0.1079
  135OSM   H13C14607   0.811   4.142   6.116 -0.0016  0.8404  0.0304
  135OSM    C1214608   1.043   4.023   6.333  0.4402  0.6649  0.3834
  135OSM   H12A14609   1.112   3.990   6.256 -1.0661 -0.9975 -0.3175
  135OSM   H12B14610   1.046   3.932   6.392  1.5891  0.3816 -0.0745
  135OSM    C1114611   1.085   4.148   6.409  0.4686  0.3049 -0.6218
  135OSM   H11A14612   1.187   4.130   6.449  0.9633 -0.2165 -2.0421
  135OSM   H11B14613   1.022   4.156   6.500  1.3101 -2.8610  0.3685
  135OSM      P14614   1.060   4.393   6.413 -0.1884  0.1162 -0.0960
  135OSM    O1314615   1.122   4.500   6.331  0.2828  0.2661  0.5219
  135OSM    O1414616   0.917   4.414   6.449  0.7124 -0.2903 -0.3737
  135OSM    O1114617   1.143   4.368   6.543 -0.2220  0.0762 -0.7463
  135OSM    O1214618   1.085   4.260   6.334 -0.2498  0.5215 -0.7463
  135OSM    C1S14619   1.132   4.443   6.661 -0.1435  0.1049  0.1980
  135OSM    H1S14620   1.031   4.488   6.670  0.9195  2.6241  0.5700
  135OSM    H1T14621   1.208   4.524   6.663  0.0357 -0.0671  1.3502
  135OSM     NF14622   1.149   4.452   6.900  0.0841  0.4116  0.1702
  135OSM    HNF14623   1.230   4.502   6.930  0.3970  1.4766 -2.2248
  135OSM    C2S14624   1.173   4.367   6.790 -0.2674  0.1773  0.1481
  135OSM    H2S14625   1.104   4.280   6.800 -0.4074 -0.0443 -2.0608
  135OSM    C3S14626   1.315   4.308   6.783 -1.0013  0.4455  0.1200
  135OSM    H3S14627   1.398   4.380   6.766  0.2319 -0.9788 -0.0957
  135OSM     O314628   1.333   4.214   6.672  0.7158  0.4146  0.2071
  135OSM    HO314629   1.283   4.260   6.604 -1.8431 -0.3070  1.4746
  135OSM    C4S14630   1.354   4.242   6.914 -0.3914 -0.3499  0.6008
  135OSM    H4S14631   1.286   4.159   6.937 -0.9281 -0.8190 -2.2672
  135OSM    C5S14632   1.454   4.286   6.991 -0.5541 -0.7651  0.4155
  135OSM    H5S14633   1.523   4.360   6.949  0.6136 -2.5979 -1.0762
  135OSM    C6S14634   1.486   4.207   7.118  0.1419 -0.1081 -0.8094
  135OSM    H6S14635   1.453   4.262   7.208  0.0917 -2.4077  0.6816
  135OSM    H6T14636   1.597   4.205   7.125  0.2242  0.5953 -1.7883
  135OSM    C7S14637   1.442   4.066   7.140 -0.6221 -0.5194 -0.4915
  135OSM    H7S14638   1.459   4.016   7.042 -0.9032 -2.3404  0.3452
  135OSM    H7T14639   1.334   4.043   7.153 -0.6340 -0.0327  0.3181
  135OSM    C8S14640   1.508   3.995   7.260  0.8250 -0.3687 -0.2016
  135OSM    H8S14641   1.612   4.029   7.273  0.7233 -0.4974  1.1516
  135OSM    H8T14642   1.511   3.887   7.234  1.2160 -0.0669 -1.4497
  135OSM    C9S14643   1.439   4.009   7.399 -0.8721  0.3708  0.0081
  135OSM    H9S14644   1.346   3.950   7.411  0.0836 -1.5059 -1.3709
  135OSM    H9T14645   1.419   4.117   7.418  2.3969  1.1395 -0.2625
  135OSM   C10S14646   1.542   3.993   7.521  0.1710 -0.2976  0.4777
  135OSM   H10S14647   1.629   4.058   7.498  1.3050 -0.9986  2.5073
  135OSM   H10T14648   1.583   3.890   7.529  2.5610  0.4753 -1.0827
  135OSM   C11S14649   1.473   4.032   7.664 -0.2074  0.3062  0.2728
  135OSM   H11S14650   1.402   3.948   7.678 -0.3903 -0.1468 -2.7901
  135OSM   H11T14651   1.433   4.135   7.663 -0.5287  0.1860 -1.0713
  135OSM   C12S14652   1.563   4.037   7.788  0.6602  0.4299  0.1808
  135OSM   H12S14653   1.651   4.105   7.787  0.7641  0.2970 -0.3417
  135OSM   H12T14654   1.595   3.931   7.797 -0.2008  0.0615 -0.8552
  135OSM   C13S14655   1.489   4.072   7.912 -0.1596 -0.1821 -0.0984
  135OSM   H13S14656   1.425   4.158   7.887  1.8580  1.1992 -0.7879
  135OSM   H13T14657   1.568   4.103   7.985  1.6131  0.9420 -2.3860
  135OSM   C14S14658   1.406   3.950   7.965 -0.1565 -0.2096 -0.0614
  135OSM   H14S14659   1.464   3.857   7.980 -1.1381 -0.7342  0.5684
  135OSM   H14T14660   1.332   3.929   7.884  0.4953  1.4794 -1.1504
  135OSM   C15S14661   1.329   3.977   8.097 -0.1981  0.6393 -0.6769
  135OSM   H15S14662   1.400   3.997   8.181 -1.5676 -1.0246  0.9791
  135OSM   H15T14663   1.282   3.882   8.130  0.7549  0.9558  1.8950
  135OSM   C16S14664   1.216   4.088   8.086 -0.3871  0.0001  0.6069
  135OSM   H16S14665   1.171   4.065   7.987  1.7768  0.1564 -0.4722
  135OSM   H16T14666   1.250   4.193   8.085  1.8326 -0.6261  2.1156
  135OSM   C17S14667   1.109   4.083   8.200  0.3888  0.4721 -0.3892
  135OSM   H17S14668   1.058   3.984   8.193 -0.0015  0.3663  2.6126
  135OSM   H17T14669   1.033   4.164   8.194 -0.1648 -0.0017  0.1025
  135OSM   C18S14670   1.172   4.094   8.339 -0.0449  0.0785  0.1277
  135OSM   H18S14671   1.116   4.049   8.423  0.7032  1.7769  1.6109
  135OSM   H18T14672   1.185   4.201   8.366  0.2554  0.0041  0.2811
  135OSM   H18U14673   1.280   4.066   8.342 -0.6499 -2.5412  3.8009
  135OSM    C1F14674   1.031   4.479   6.952  0.1685  0.5176 -0.9007
  135OSM     OF14675   0.925   4.431   6.899  0.5887 -0.0673 -0.2569
  135OSM    C2F14676   1.022   4.577   7.067 -0.3828 -0.4440  0.6831
  135OSM    H2F14677   1.052   4.681   7.043  3.3029 -0.5671  3.7209
  135OSM    H2G14678   1.094   4.545   7.146 -0.3037  1.5232  1.4625
  135OSM    C3F14679   0.889   4.565   7.137 -0.3341 -0.1755  0.3616
  135OSM    H3F14680   0.846   4.463   7.124  3.0725 -1.9471  1.5089
  135OSM    H3G14681   0.822   4.631   7.079 -0.4616 -0.8330 -0.2644
  135OSM    C4F14682   0.894   4.606   7.282 -0.5729 -0.6987 -0.5129
  135OSM    H4F14683   0.794   4.634   7.321 -1.6854 -1.4608 -2.6924
  135OSM    H4G14684   0.959   4.696   7.294 -1.0371 -0.5625  1.3592
  135OSM    C5F14685   0.951   4.504   7.376  0.2967 -0.1308 -0.1371
  135OSM    H5F14686   1.054   4.471   7.352 -0.0954 -1.4343 -0.1294
  135OSM    H5G14687   0.898   4.409   7.353  2.3827 -1.1454 -0.9299
  135OSM    C6F14688   0.938   4.540   7.520 -0.3112  0.1021 -0.0859
  135OSM    H6F14689   0.838   4.583   7.544 -0.5788 -0.1480 -0.7019
  135OSM    H6G14690   0.992   4.635   7.534  2.3926 -0.7962 -3.1950
  135OSM    C7F14691   0.984   4.430   7.619  0.1149  0.4340  0.2546
  135OSM    H7F14692   1.080   4.383   7.588  0.4562  1.6509 -0.6254
  135OSM    H7G14693   0.906   4.352   7.612 -1.3519  1.7718  1.0043
  135OSM    C8F14694   1.004   4.477   7.761  0.6143  0.0087  1.2002
  135OSM    H8F14695   0.909   4.529   7.786  0.5289  0.6322 -0.3112
  135OSM    H8G14696   1.085   4.552   7.750  0.5242 -0.1091 -0.6196
  135OSM    C9F14697   1.043   4.359   7.840 -0.4882  0.5123  0.5284
  135OSM    H9F14698   1.142   4.319   7.815 -0.9082 -1.5999  1.9595
  135OSM   C10F14699   0.969   4.297   7.929  0.1825  0.0381  0.6242
  135OSM   H10F14700   1.016   4.214   7.983 -2.1121 -2.0750 -0.4070
  135OSM   C11F14701   0.823   4.333   7.967  0.1029 -0.5804 -0.8856
  135OSM   H11F14702   0.745   4.255   7.959 -1.0149  0.3501  0.6025
  135OSM   H11G14703   0.794   4.431   7.924  1.9889  0.5873  0.3826
  135OSM   C12F14704   0.815   4.378   8.116 -0.5826  0.8314 -0.3870
  135OSM   H12F14705   0.858   4.481   8.115  1.6929 -0.0268  1.0158
  135OSM   H12G14706   0.876   4.315   8.185  0.4612  1.7204 -0.4726
  135OSM   C13F14707   0.667   4.376   8.164  0.0816  0.2911  0.2590
  135OSM   H13F14708   0.625   4.273   8.170 -0.2987  0.4709  0.8251
  135OSM   H13G14709   0.599   4.439   8.103  1.6965  0.3366 -1.5631
  135OSM   C14F14710   0.666   4.437   8.304 -0.4277  0.2010  0.2183
  135OSM   H14F14711   0.695   4.544   8.293  0.8935 -0.0499  1.0458
  135OSM   H14G14712   0.743   4.384   8.364 -1.2869 -0.4111  0.8057
  135OSM   C15F14713   0.529   4.431   8.382  0.1029 -1.0110 -0.4164
  135OSM   H15F14714   0.507   4.327   8.415 -0.3851 -0.5429  0.7616
  135OSM   H15G14715   0.451   4.473   8.315  1.0115  1.6692  0.1047
  135OSM   C16F14716   0.513   4.538   8.495  0.2556  0.7445 -0.3344
  135OSM   H16F14717   0.512   4.632   8.436 -1.0511  0.5603 -0.6424
  135OSM   H16G14718   0.594   4.530   8.570  0.3938  0.3488 -0.5229
  135OSM   C17F14719   0.387   4.521   8.574  0.7479 -0.1151 -0.0283
  135OSM   H17F14720   0.306   4.504   8.500  1.4875 -0.6342 -0.7325
  135OSM   H17G14721   0.362   4.615   8.629 -1.1943 -0.4220 -0.3413
  135OSM   C18F14722   0.381   4.401   8.669 -0.0477  0.0374  0.2324
  135OSM   H18F14723   0.285   4.390   8.725 -0.2532 -0.8888 -0.2865
  135OSM   H18G14724   0.466   4.413   8.740  1.0214 -0.1072 -0.9966
  135OSM   H18H14725   0.406   4.303   8.622  0.9343  1.0918 -1.5110
  136OSM      N14726   4.676   5.967   5.977  0.3230  0.4669  0.5034
  136OSM    C1514727   4.706   6.034   6.110  0.1785  0.3798  0.2636
  136OSM   H15A14728   4.656   5.984   6.192 -0.3670  0.2891 -0.1224
  136OSM   H15B14729   4.671   6.136   6.119 -2.0606 -0.4060  1.1087
  136OSM   H15C14730   4.813   6.027   6.123  0.1465 -0.5177  0.1029
  136OSM    C1414731   4.721   6.054   5.867  0.0327 -0.3413 -0.2870
  136OSM   H14A14732   4.686   6.014   5.773  0.1005  1.5129 -1.1455
  136OSM   H14B14733   4.827   6.070   5.848 -0.4600  2.5636 -0.9363
  136OSM   H14C14734   4.679   6.151   5.886 -1.8221 -0.7274 -2.0604
  136OSM    C1314735   4.758   5.837   5.980  0.0488  0.2473  0.1109
  136OSM   H13A14736   4.751   5.795   6.080  1.3843  0.4140  0.2838
  136OSM   H13B14737   4.865   5.847   5.970  0.7504 -2.8309  2.7126
  136OSM   H13C14738   4.730   5.761   5.909  1.5655 -2.6130  2.3433
  136OSM    C1214739   4.525   5.934   5.978 -0.4629 -0.4048 -0.2078
  136OSM   H12A14740   4.484   6.032   5.999  2.9839  0.9754  0.7605
  136OSM   H12B14741   4.485   5.879   6.061 -0.9044  1.9102  1.1941
  136OSM    C1114742   4.463   5.870   5.848  0.6116  0.2182 -0.7978
  136OSM   H11A14743   4.484   5.938   5.763 -0.3402 -0.4841 -1.6295
  136OSM   H11B14744   4.352   5.869   5.843  0.6159 -0.4985 -0.7452
  136OSM      P14745   4.447   5.609   5.902  0.0297  0.0422 -0.2548
  136OSM    O1314746   4.319   5.588   5.826 -0.1311  0.8795  0.5710
  136OSM    O1414747   4.545   5.495   5.907  0.5796  0.0989  0.7114
  136OSM    O1114748   4.418   5.665   6.045  0.3582 -0.2332  0.6199
  136OSM    O1214749   4.515   5.732   5.833 -0.5096 -0.5495  0.0534
  136OSM    C1S14750   4.479   5.614   6.162  0.6743  0.8220  0.2766
  136OSM    H1S14751   4.579   5.661   6.177  0.3580  0.8432  2.8937
  136OSM    H1T14752   4.481   5.503   6.168 -2.1920  0.6817  0.0344
  136OSM     NF14753   4.475   5.607   6.399 -0.5467  0.8033 -0.5835
  136OSM    HNF14754   4.446   5.516   6.427 -0.6320  0.6805 -1.0584
  136OSM    C2S14755   4.401   5.645   6.288 -0.9385 -0.1682 -0.3252
  136OSM    H2S14756   4.383   5.755   6.297 -2.2908 -0.4416  0.5941
  136OSM    C3S14757   4.257   5.581   6.285 -0.3921 -0.3264  0.0415
  136OSM    H3S14758   4.262   5.471   6.269 -1.1492 -0.5450  1.2097
  136OSM     O314759   4.177   5.632   6.181  0.2960 -0.5008  0.0964
  136OSM    HO314760   4.238   5.674   6.120  0.8144 -0.5833  0.5511
  136OSM    C4S14761   4.186   5.613   6.409 -0.7825 -0.5076  0.7108
  136OSM    H4S14762   4.151   5.717   6.411 -0.3010 -0.2562 -1.3300
  136OSM    C5S14763   4.154   5.527   6.504 -0.4028  0.2938  0.0256
  136OSM    H5S14764   4.181   5.422   6.491 -0.1464  0.5609 -1.9021
  136OSM    C6S14765   4.076   5.567   6.626 -0.5878  0.2143 -0.0866
  136OSM    H6S14766   3.974   5.525   6.611 -0.4422  0.5527 -2.2947
  136OSM    H6T14767   4.062   5.676   6.644  1.9329  0.3087  1.7715
  136OSM    C7S14768   4.147   5.517   6.751 -0.0276  0.2573 -0.5380
  136OSM    H7S14769   4.246   5.566   6.757 -0.8488  2.0924 -1.0863
  136OSM    H7T14770   4.160   5.407   6.748 -0.3947  0.1564  0.7205
  136OSM    C8S14771   4.063   5.558   6.872 -0.6379 -0.7183 -0.3845
  136OSM    H8S14772   3.968   5.504   6.849  0.3985 -1.9934 -1.8640
  136OSM    H8T14773   4.050   5.667   6.887  0.0602 -0.5134 -1.2004
  136OSM    C9S14774   4.119   5.480   6.993  0.3368 -0.3632  0.5089
  136OSM    H9S14775   4.226   5.501   7.011  0.7329  1.0825 -2.7885
  136OSM    H9T14776   4.092   5.373   6.979 -2.4352  0.3450 -0.3952
  136OSM   C10S14777   4.042   5.526   7.123 -0.4291  0.6951 -0.3185
  136OSM   H10S14778   3.936   5.501   7.102 -0.2555 -0.1408 -0.2427
  136OSM   H10T14779   4.061   5.635   7.130  0.5818  0.4789  0.6135
  136OSM   C11S14780   4.087   5.446   7.241  0.2056 -0.2021 -0.5422
  136OSM   H11S14781   4.192   5.409   7.233  0.7393  1.3040 -0.8256
  136OSM   H11T14782   4.019   5.359   7.256  0.3615 -0.3050 -0.4246
  136OSM   C12S14783   4.056   5.523   7.375 -0.2694 -0.4136 -0.0530
  136OSM   H12S14784   3.945   5.529   7.373 -0.2343  0.0854 -1.2000
  136OSM   H12T14785   4.101   5.623   7.355  0.0536 -0.3855  0.7826
  136OSM   C13S14786   4.102   5.457   7.504  0.2151  0.2448  0.1275
  136OSM   H13S14787   4.212   5.445   7.503  0.5934  2.9966  0.9705
  136OSM   H13T14788   4.065   5.353   7.517 -0.6419  0.3919 -0.9545
  136OSM   C14S14789   4.074   5.536   7.633  0.0098 -0.5861 -0.1721
  136OSM   H14S14790   3.964   5.554   7.642  0.0634 -0.2737 -0.1063
  136OSM   H14T14791   4.111   5.640   7.628 -2.0033  0.1264 -1.5472
  136OSM   C15S14792   4.134   5.474   7.756 -0.1577 -0.5205 -0.2549
  136OSM   H15S14793   4.244   5.479   7.750 -0.1797  4.9249 -4.1166
  136OSM   H15T14794   4.095   5.370   7.766 -0.9441 -0.3352 -1.1563
  136OSM   C16S14795   4.107   5.537   7.891 -0.1293  0.5074 -0.4547
  136OSM   H16S14796   4.176   5.499   7.970  0.7717  0.4859 -1.2311
  136OSM   H16T14797   4.015   5.495   7.936  1.5004 -1.4732  1.2318
  136OSM   C17S14798   4.132   5.694   7.901 -0.2083  0.5664  1.1234
  136OSM   H17S14799   4.071   5.734   7.817  1.2105 -4.4184 -2.7845
  136OSM   H17T14800   4.239   5.704   7.873 -0.3371 -2.1221 -0.7763
  136OSM   C18S14801   4.104   5.757   8.035  0.4250 -0.6315 -0.5933
  136OSM   H18S14802   4.098   5.868   8.033  0.8043 -0.5554  0.8613
  136OSM   H18T14803   4.182   5.734   8.111 -0.6740  0.1032  0.8128
  136OSM   H18U14804   4.003   5.725   8.067  0.7506  0.1243  1.4031
  136OSM    C1F14805   4.573   5.679   6.446  0.0041  0.1556 -0.8738
  136OSM     OF14806   4.607   5.778   6.385  0.1706  0.6240  0.3471
  136OSM    C2F14807   4.627   5.631   6.575 -0.4163  0.9903  0.4053
  136OSM    H2F14808   4.698   5.545   6.568 -1.9479 -0.2264 -1.1035
  136OSM    H2G14809   4.540   5.607   6.639 -0.1216 -1.7089 -0.0838
  136OSM    C3F14810   4.718   5.736   6.645  0.6191 -0.2905  0.0895
  136OSM    H3F14811   4.673   5.837   6.658  1.6025  0.3026 -0.9813
  136OSM    H3G14812   4.811   5.738   6.585 -0.6310 -1.4106 -1.9743
  136OSM    C4F14813   4.756   5.684   6.786  0.6560 -0.4012 -0.4751
  136OSM    H4F14814   4.851   5.741   6.794  0.2713  0.2636 -0.5369
  136OSM    H4G14815   4.786   5.578   6.772  2.5229 -0.0332  0.3849
  136OSM    C5F14816   4.666   5.726   6.905 -0.4908 -0.2643 -0.5582
  136OSM    H5F14817   4.561   5.697   6.881 -0.7769 -0.9006  1.3150
  136OSM    H5G14818   4.667   5.837   6.914  1.2693 -0.4136  2.0008
  136OSM    C6F14819   4.715   5.651   7.034  0.8418  0.3158  0.4097
  136OSM    H6F14820   4.809   5.697   7.068  1.5750 -1.0589  0.3196
  136OSM    H6G14821   4.740   5.543   7.028 -2.3138 -0.4983  0.0674
  136OSM    C7F14822   4.603   5.656   7.139 -0.0920 -0.0341 -0.7310
  136OSM    H7F14823   4.509   5.616   7.096  0.0093  0.2219 -1.1975
  136OSM    H7G14824   4.596   5.763   7.167 -0.0261 -0.2918  0.3209
  136OSM    C8F14825   4.640   5.575   7.270 -0.1181 -0.0131  0.0654
  136OSM    H8F14826   4.736   5.621   7.301 -0.4494 -0.1469  1.3260
  136OSM    H8G14827   4.669   5.469   7.255 -1.8756 -0.5521  0.2835
  136OSM    C9F14828   4.530   5.593   7.374 -0.2180  0.0679 -0.2985
  136OSM    H9F14829   4.484   5.690   7.355  2.9943  1.7746 -0.0423
  136OSM   C10F14830   4.512   5.520   7.483  0.6396  1.7897  0.0637
  136OSM   H10F14831   4.450   5.562   7.563  0.4700  2.4638 -0.4127
  136OSM   C11F14832   4.590   5.397   7.528 -0.6199  0.1643 -0.5317
  136OSM   H11F14833   4.653   5.363   7.443 -1.5398  1.3285 -1.7243
  136OSM   H11G14834   4.523   5.313   7.555  1.1898 -1.4127 -0.7320
  136OSM   C12F14835   4.688   5.438   7.638  0.4532  0.3072 -0.6565
  136OSM   H12F14836   4.641   5.462   7.736  0.9567  1.0904 -0.6037
  136OSM   H12G14837   4.744   5.530   7.614 -0.0627  0.9556  0.5435
  136OSM   C13F14838   4.791   5.338   7.672 -0.3692  0.0261 -0.0648
  136OSM   H13F14839   4.844   5.380   7.760  0.4975 -1.1225 -0.0054
  136OSM   H13G14840   4.855   5.306   7.587 -1.2906 -3.1062  0.2915
  136OSM   C14F14841   4.729   5.205   7.722  0.1020 -0.1606 -0.6735
  136OSM   H14F14842   4.681   5.151   7.638 -0.1125 -0.7979 -0.1454
  136OSM   H14G14843   4.647   5.219   7.796  1.2586  0.5420  0.5362
  136OSM   C15F14844   4.815   5.095   7.778 -0.1249  0.2300 -0.7759
  136OSM   H15F14845   4.872   5.047   7.695 -1.8480 -0.1046 -1.8154
  136OSM   H15G14846   4.741   5.026   7.825  1.7991 -1.7340 -0.4779
  136OSM   C16F14847   4.893   5.127   7.907  0.1807  0.4411 -0.2056
  136OSM   H16F14848   4.966   5.207   7.883 -0.8166  1.7952  1.0856
  136OSM   H16G14849   4.937   5.029   7.936 -0.3699 -0.6538 -2.8055
  136OSM   C17F14850   4.796   5.186   8.010 -0.2234 -0.2615 -0.3784
  136OSM   H17F14851   4.735   5.101   8.049  1.2061  0.2025  3.2361
  136OSM   H17G14852   4.734   5.268   7.966  2.0308  2.0091  0.4434
  136OSM   C18F14853   4.857   5.247   8.132  0.2896 -0.3916  0.4466
  136OSM   H18F14854   4.786   5.287   8.207 -2.3463  1.0399 -2.5806
  136OSM   H18G14855   4.909   5.342   8.106  1.6880 -1.4516 -0.8026
  136OSM   H18H14856   4.933   5.177   8.173 -0.0089 -1.0283 -0.0824
  137OSM      N14857   2.436   4.928   5.813 -0.2791  0.1763  0.0236
  137OSM    C1514858   2.548   4.843   5.765 -0.5257 -0.2552  0.2095
  137OSM   H15A14859   2.643   4.894   5.760  0.6469 -2.4161 -0.9936
  137OSM   H15B14860   2.541   4.796   5.668  1.1473  0.7511 -0.4407
  137OSM   H15C14861   2.559   4.758   5.830  0.5078  0.2409  0.7040
  137OSM    C1414862   2.430   5.039   5.710 -0.6133  0.0580 -0.3903
  137OSM   H14A14863   2.528   5.085   5.710  0.1914 -1.3814  2.7010
  137OSM   H14B14864   2.359   5.112   5.743  1.1776  0.5877  2.6231
  137OSM   H14C14865   2.405   4.997   5.613  0.8191  3.6027 -2.4777
  137OSM    C1314866   2.308   4.858   5.800  0.2779 -0.5779  0.4634
  137OSM   H13A14867   2.297   4.808   5.705 -1.9263  0.8376 -0.0963
  137OSM   H13B14868   2.231   4.933   5.799  0.5177 -0.3246 -0.3591
  137OSM   H13C14869   2.290   4.788   5.880  0.9054 -1.1058  0.1544
  137OSM    C1214870   2.443   4.995   5.946  0.2063  0.4639  0.1484
  137OSM   H12A14871   2.367   5.072   5.949  1.8205  2.2336 -1.2453
  137OSM   H12B14872   2.539   5.044   5.956  0.4634 -0.3463  2.0436
  137OSM    C1114873   2.425   4.905   6.067  0.7753 -0.0471 -0.6902
  137OSM   H11A14874   2.320   4.868   6.074  0.9592 -0.6152 -0.8619
  137OSM   H11B14875   2.434   4.969   6.157  3.2794  0.5372 -1.2761
  137OSM      P14876   2.669   4.852   6.114  0.4852  0.0199  0.0821
  137OSM    O1314877   2.766   4.744   6.091  0.3099  0.6323  0.0432
  137OSM    O1414878   2.703   4.981   6.061 -0.6991 -0.1199 -0.1521
  137OSM    O1114879   2.655   4.864   6.271 -0.0782  0.5226  0.0028
  137OSM    O1214880   2.525   4.808   6.074  0.0142 -0.1490  0.2993
  137OSM    C1S14881   2.553   4.802   6.355 -0.3262 -0.3499  0.4510
  137OSM    H1S14882   2.545   4.695   6.325 -0.3752 -0.7164  1.6798
  137OSM    H1T14883   2.454   4.849   6.342 -0.0616  0.4311  1.1739
  137OSM     NF14884   2.495   4.745   6.586 -0.1593  0.4284  0.6119
  137OSM    HNF14885   2.426   4.806   6.624 -1.4200 -0.9030  0.5662
  137OSM    C2S14886   2.596   4.808   6.503  0.6951  0.7054 -0.3058
  137OSM    H2S14887   2.696   4.763   6.518 -0.1998 -1.4615 -0.5417
  137OSM    C3S14888   2.607   4.965   6.541 -0.4144  0.7606  0.1050
  137OSM    H3S14889   2.504   5.006   6.528 -2.1472 -2.9766  0.8266
  137OSM     O314890   2.687   5.045   6.458  0.0052 -0.3668 -0.5089
  137OSM    HO314891   2.686   4.989   6.380  1.2040 -1.3326  0.1221
  137OSM    C4S14892   2.654   4.971   6.681 -0.0068  0.9260  0.4019
  137OSM    H4S14893   2.586   4.920   6.752 -0.9860  2.9646  0.9955
  137OSM    C5S14894   2.764   5.021   6.742  0.2339  0.5240  0.2381
  137OSM    H5S14895   2.837   5.073   6.678  0.7059 -1.2884 -0.7600
  137OSM    C6S14896   2.801   5.019   6.887  0.1774  0.1217  0.5461
  137OSM    H6S14897   2.790   5.124   6.921  1.3452  0.2736  0.5010
  137OSM    H6T14898   2.910   4.995   6.896  0.2125  0.2944  0.5761
  137OSM    C7S14899   2.709   4.948   6.988 -0.0767  0.8394  0.6381
  137OSM    H7S14900   2.692   4.840   6.966 -0.3951  1.3888 -2.2218
  137OSM    H7T14901   2.615   5.007   6.979 -1.8565 -1.5882  2.0096
  137OSM    C8S14902   2.767   4.970   7.130 -0.3272  0.1631 -0.2848
  137OSM    H8S14903   2.805   5.073   7.146  1.6863 -0.4756 -0.6051
  137OSM    H8T14904   2.860   4.911   7.142 -0.2113  0.1499 -1.1487
  137OSM    C9S14905   2.670   4.926   7.235  0.1120 -0.0934  0.0883
  137OSM    H9S14906   2.667   4.815   7.247 -0.6131  0.0759  1.9028
  137OSM    H9T14907   2.565   4.956   7.217  0.6055  0.3063 -2.5102
  137OSM   C10S14908   2.717   4.975   7.371  0.4148  0.8261  0.7452
  137OSM   H10S14909   2.643   5.054   7.395 -1.6149 -0.6043 -0.4718
  137OSM   H10T14910   2.819   5.018   7.363  0.3093  0.8232 -0.9019
  137OSM   C11S14911   2.716   4.876   7.482  0.5894 -0.4430 -0.9003
  137OSM   H11S14912   2.771   4.784   7.455  1.8250  0.3338 -1.1430
  137OSM   H11T14913   2.610   4.848   7.502  0.2925 -0.0049 -1.7903
  137OSM   C12S14914   2.778   4.936   7.608 -0.0016  0.6380  0.4073
  137OSM   H12S14915   2.719   5.026   7.638  0.0354  0.4542  1.0593
  137OSM   H12T14916   2.875   4.977   7.573 -0.6991  2.0400  0.0052
  137OSM   C13S14917   2.799   4.842   7.721  0.1346  0.3750 -0.5750
  137OSM   H13S14918   2.888   4.781   7.696  0.5950  0.6936  0.2648
  137OSM   H13T14919   2.711   4.774   7.717  1.2064 -1.1146  0.3169
  137OSM   C14S14920   2.817   4.899   7.862  0.2077 -0.2678 -0.0739
  137OSM   H14S14921   2.725   4.957   7.886  1.1362  1.0222  0.4922
  137OSM   H14T14922   2.903   4.964   7.838 -0.3736 -0.2636 -2.4311
  137OSM   C15S14923   2.856   4.806   7.972  0.2914  0.1560  0.1958
  137OSM   H15S14924   2.951   4.752   7.948  0.3290 -0.8303  2.3335
  137OSM   H15T14925   2.771   4.737   7.993  0.3292  0.7626  2.5542
  137OSM   C16S14926   2.904   4.884   8.092 -0.5730 -0.1083  0.1461
  137OSM   H16S14927   2.812   4.920   8.142 -1.4363 -2.4681  0.3765
  137OSM   H16T14928   2.956   4.978   8.066  1.4466 -0.7955  1.4184
  137OSM   C17S14929   2.987   4.805   8.195 -0.3822 -0.1649 -0.4529
  137OSM   H17S14930   3.084   4.765   8.157 -0.2630 -0.1162 -0.2028
  137OSM   H17T14931   2.930   4.714   8.224  1.5990 -0.6874  2.2102
  137OSM   C18S14932   3.008   4.887   8.326 -0.3119 -0.6885  0.5510
  137OSM   H18S14933   3.072   4.820   8.388  0.5828 -1.9854 -1.6549
  137OSM   H18T14934   2.915   4.914   8.381 -0.8605  1.0641 -1.1130
  137OSM   H18U14935   3.066   4.980   8.309  0.4604 -1.6512 -2.9385
  137OSM    C1F14936   2.479   4.612   6.594 -0.4097  0.8047 -0.3536
  137OSM     OF14937   2.528   4.541   6.508  0.2359 -0.0051 -0.5871
  137OSM    C2F14938   2.392   4.563   6.711  0.0339  0.2559  0.2315
  137OSM    H2F14939   2.362   4.458   6.691  1.2973  0.3369 -2.6198
  137OSM    H2G14940   2.299   4.623   6.715  0.4553  1.0575 -1.1397
  137OSM    C3F14941   2.468   4.564   6.849 -0.5106  0.6910  0.2551
  137OSM    H3F14942   2.524   4.660   6.859  2.4075 -0.7314 -1.3548
  137OSM    H3G14943   2.538   4.478   6.844 -0.9749  0.3410 -0.3215
  137OSM    C4F14944   2.374   4.534   6.967  0.2125  0.1868 -0.2255
  137OSM    H4F14945   2.320   4.441   6.939  2.0584 -2.1247  3.1558
  137OSM    H4G14946   2.304   4.620   6.971  1.1908  1.1107 -1.7626
  137OSM    C5F14947   2.450   4.512   7.103  0.1912 -0.0247 -0.0178
  137OSM    H5F14948   2.494   4.609   7.135 -1.5689  1.2063 -1.1554
  137OSM    H5G14949   2.531   4.437   7.090 -1.8186 -2.0411 -1.6615
  137OSM    C6F14950   2.356   4.457   7.217  0.5146 -0.1301 -0.1140
  137OSM    H6F14951   2.424   4.403   7.286  0.8419 -0.1766 -0.4672
  137OSM    H6G14952   2.286   4.383   7.171 -0.6530  1.6872 -1.3650
  137OSM    C7F14953   2.279   4.571   7.284  0.4176 -0.6939  0.5546
  137OSM    H7F14954   2.177   4.568   7.241  0.6657  1.1249 -0.2777
  137OSM    H7G14955   2.306   4.675   7.255  2.2537 -1.3878 -0.3943
  137OSM    C8F14956   2.281   4.550   7.433 -0.1887 -0.3357  0.5298
  137OSM    H8F14957   2.385   4.524   7.462 -1.0187 -2.5384  1.7625
  137OSM    H8G14958   2.225   4.458   7.461  0.0845  0.1113  2.7672
  137OSM    C9F14959   2.228   4.671   7.506  0.3390 -0.4690 -0.2466
  137OSM    H9F14960   2.132   4.698   7.460  0.3588  1.8911  0.9219
  137OSM   C10F14961   2.261   4.743   7.616 -0.3837 -1.0619 -0.8851
  137OSM   H10F14962   2.197   4.826   7.649  1.2914 -0.8153  2.1308
  137OSM   C11F14963   2.365   4.718   7.717 -0.5614  0.2460 -0.1785
  137OSM   H11F14964   2.468   4.734   7.677 -0.5319 -0.7702 -0.5507
  137OSM   H11G14965   2.364   4.610   7.742  1.9415 -0.2799 -1.9315
  137OSM   C12F14966   2.348   4.775   7.861  0.9615  1.1553 -0.0671
  137OSM   H12F14967   2.252   4.747   7.910  0.9393  1.5566  0.1208
  137OSM   H12G14968   2.347   4.886   7.860  0.2464  1.1549 -0.9615
  137OSM   C13F14969   2.459   4.731   7.958 -0.0850  0.0232 -0.8349
  137OSM   H13F14970   2.559   4.765   7.926 -0.2060  1.7294  0.4465
  137OSM   H13G14971   2.457   4.621   7.970  2.9788 -0.1299 -0.9948
  137OSM   C14F14972   2.435   4.790   8.106 -0.1856 -0.5843  0.4665
  137OSM   H14F14973   2.338   4.759   8.148 -1.1708  0.4748 -0.9341
  137OSM   H14G14974   2.439   4.900   8.088  0.7462 -0.7781 -0.6741
  137OSM   C15F14975   2.535   4.745   8.209 -1.1166  0.1671 -0.0513
  137OSM   H15F14976   2.628   4.792   8.169 -0.6271 -3.2636 -3.5657
  137OSM   H15G14977   2.556   4.636   8.213  1.4939  0.6330  0.7357
  137OSM   C16F14978   2.498   4.796   8.346  0.2699 -0.4804 -0.4202
  137OSM   H16F14979   2.397   4.761   8.376  0.0087  1.7857  1.6022
  137OSM   H16G14980   2.492   4.907   8.341 -0.0255 -0.5413 -1.7527
  137OSM   C17F14981   2.596   4.756   8.453 -0.1728 -0.8547  0.0683
  137OSM   H17F14982   2.701   4.770   8.420 -0.5261  1.2001 -0.3579
  137OSM   H17G14983   2.581   4.649   8.477 -0.8401 -0.5972  0.8424
  137OSM   C18F14984   2.574   4.814   8.589 -0.2662 -0.4581  0.2927
  137OSM   H18F14985   2.475   4.795   8.637  0.2246 -0.2933  1.3943
  137OSM   H18G14986   2.575   4.925   8.583  3.0727 -0.4547 -1.1127
  137OSM   H18H14987   2.658   4.785   8.656  0.5000 -0.2125 -0.5489
  138OSM      N14988   2.323   6.698   6.305 -0.4728 -0.7981 -0.2735
  138OSM    C1514989   2.268   6.617   6.410  0.2723  0.7333 -0.5935
  138OSM   H15A14990   2.336   6.581   6.485 -0.5275 -0.9669 -0.6153
  138OSM   H15B14991   2.210   6.531   6.379  1.0279 -0.0883  0.2165
  138OSM   H15C14992   2.187   6.672   6.456 -1.6470 -1.7327 -0.7568
  138OSM    C1414993   2.210   6.771   6.238  0.7236  0.3875  0.0671
  138OSM   H14A14994   2.258   6.839   6.170 -2.4381  2.2749 -0.4757
  138OSM   H14B14995   2.152   6.827   6.310  1.8743  1.9892 -0.2029
  138OSM   H14C14996   2.154   6.711   6.168  2.6568 -1.5693  0.0682
  138OSM    C1314997   2.405   6.803   6.368  0.3111 -0.7510  0.4289
  138OSM   H13A14998   2.415   6.884   6.297 -0.4392 -1.5981 -0.6665
  138OSM   H13B14999   2.503   6.774   6.404  0.0042 -1.8933  0.3531
  138OSM   H13C15000   2.351   6.827   6.458 -1.9492 -1.3467 -0.7061
  138OSM    C1215001   2.406   6.632   6.209  0.6033  0.9967  0.5040
  138OSM   H12A15002   2.434   6.703   6.133 -1.1169  2.4298  1.1385
  138OSM   H12B15003   2.360   6.544   6.165  3.3575  0.5725 -1.7998
  138OSM    C1115004   2.539   6.585   6.266  0.2771  0.5351  0.8280
  138OSM   H11A15005   2.526   6.510   6.346 -1.6941 -0.3958 -0.2709
  138OSM   H11B15006   2.597   6.658   6.327  2.4899  0.0125 -0.5367
  138OSM      P15007   2.598   6.389   6.100 -0.3209 -0.1025  0.6317
  138OSM    O1315008   2.478   6.392   6.012  0.2546  0.3280  0.1615
  138OSM    O1415009   2.729   6.350   6.040 -0.3683 -0.1676 -0.2709
  138OSM    O1115010   2.571   6.284   6.210  0.0021  0.5026 -0.0569
  138OSM    O1215011   2.621   6.537   6.157 -0.4786 -0.0608  0.0031
  138OSM    C1S15012   2.664   6.252   6.318 -0.2378 -0.1036 -0.0400
  138OSM    H1S15013   2.730   6.338   6.342 -1.7205  0.4921  2.2703
  138OSM    H1T15014   2.725   6.163   6.290  0.7230  0.6416 -0.3636
  138OSM     NF15015   2.715   6.192   6.564  0.0068  0.8028  0.3819
  138OSM    HNF15016   2.710   6.102   6.606  0.6600  0.0460 -1.0866
  138OSM    C2S15017   2.609   6.222   6.466  0.7640  0.3929  0.0727
  138OSM    H2S15018   2.555   6.311   6.505  0.2417 -0.6378  1.8537
  138OSM    C3S15019   2.497   6.110   6.456 -0.6719  0.2996  0.4845
  138OSM    H3S15020   2.544   6.013   6.428  0.9152  1.2110 -0.1005
  138OSM     O315021   2.403   6.145   6.343 -0.3149  0.2497  0.5668
  138OSM    HO315022   2.456   6.195   6.281 -1.5235  0.5407 -0.2720
  138OSM    C4S15023   2.430   6.083   6.586 -0.9454  0.3709  0.2839
  138OSM    H4S15024   2.473   6.006   6.651 -0.4886  0.8021  0.4947
  138OSM    C5S15025   2.315   6.143   6.626 -0.0880 -0.6758  0.9371
  138OSM    H5S15026   2.278   6.221   6.557  2.5715 -0.1890 -0.0624
  138OSM    C6S15027   2.238   6.126   6.756 -0.3626 -0.1059  1.0707
  138OSM    H6S15028   2.274   6.033   6.805  0.2793 -0.3023  0.2402
  138OSM    H6T15029   2.133   6.111   6.722 -0.4872 -1.5974  2.0163
  138OSM    C7S15030   2.239   6.242   6.852  0.5512 -0.9311  0.3335
  138OSM    H7S15031   2.218   6.338   6.800 -0.5429 -0.3059  1.8483
  138OSM    H7T15032   2.339   6.255   6.899 -0.3283 -0.8178  2.2928
  138OSM    C8S15033   2.149   6.217   6.973 -0.3668 -1.0850  0.3832
  138OSM    H8S15034   2.190   6.121   7.010 -0.7126 -2.6488 -2.9136
  138OSM    H8T15035   2.042   6.197   6.952  0.0895 -2.6448 -0.7078
  138OSM    C9S15036   2.162   6.342   7.063  0.1541  0.2366  0.1968
  138OSM    H9S15037   2.118   6.432   7.015 -0.7056 -0.1131  0.2973
  138OSM    H9T15038   2.271   6.363   7.070  0.7096 -2.5268  0.7486
  138OSM   C10S15039   2.102   6.334   7.208 -0.2045 -0.0542  0.5469
  138OSM   H10S15040   2.152   6.258   7.273 -1.7113 -0.3679  1.3929
  138OSM   H10T15041   1.993   6.312   7.200 -0.2325  0.3812 -0.2954
  138OSM   C11S15042   2.110   6.467   7.283 -0.5543 -0.3361 -0.9691
  138OSM   H11S15043   2.043   6.536   7.228 -1.8408 -0.4978  0.3488
  138OSM   H11T15044   2.217   6.495   7.270 -0.0853 -0.8558  1.4201
  138OSM   C12S15045   2.066   6.460   7.434 -1.2317  0.5030  0.2621
  138OSM   H12S15046   2.143   6.395   7.481 -0.2965  0.8420 -0.7716
  138OSM   H12T15047   1.963   6.419   7.445 -1.5327  1.4929  1.2893
  138OSM   C13S15048   2.086   6.592   7.510  0.3561  0.0869  0.0624
  138OSM   H13S15049   2.010   6.665   7.475 -0.3148 -0.5406  0.1623
  138OSM   H13T15050   2.191   6.623   7.496  0.1649  0.2758 -1.0414
  138OSM   C14S15051   2.073   6.575   7.664  0.2609  0.2446  0.3803
  138OSM   H14S15052   2.145   6.494   7.689 -0.0069  0.1528  0.8521
  138OSM   H14T15053   1.968   6.544   7.679 -0.1816  1.3216 -0.3454
  138OSM   C15S15054   2.092   6.709   7.745 -0.3931  0.5441  0.0713
  138OSM   H15S15055   2.051   6.792   7.683  0.0540 -0.5453 -1.7741
  138OSM   H15T15056   2.200   6.731   7.758 -0.3290 -0.1117  0.6742
  138OSM   C16S15057   2.038   6.708   7.885  0.0754  0.1234  0.0469
  138OSM   H16S15058   1.928   6.714   7.877  0.1849  4.4571 -0.6306
  138OSM   H16T15059   2.061   6.802   7.939  0.7175  1.8833 -3.0522
  138OSM   C17S15060   2.086   6.594   7.977 -0.0539 -0.1079  0.4639
  138OSM   H17S15061   2.192   6.618   8.000  0.4546 -0.4895 -1.2960
  138OSM   H17T15062   2.082   6.500   7.917 -1.8200 -0.8349  1.6122
  138OSM   C18S15063   1.992   6.572   8.102  0.0729 -0.7131  0.2879
  138OSM   H18S15064   2.012   6.471   8.143  4.2816 -0.2628 -0.2282
  138OSM   H18T15065   1.884   6.575   8.074 -0.6492 -1.4657  2.7140
  138OSM   H18U15066   2.025   6.651   8.173 -0.2515  0.8489 -1.2207
  138OSM    C1F15067   2.810   6.282   6.599  0.3103 -0.4448  0.0570
  138OSM     OF15068   2.797   6.398   6.560 -0.5368  0.6634  0.1690
  138OSM    C2F15069   2.920   6.232   6.694 -0.4758 -0.7433 -0.0201
  138OSM    H2F15070   3.009   6.202   6.636 -0.7578 -1.4103 -0.1165
  138OSM    H2G15071   2.879   6.148   6.754  0.1076 -0.9076  0.1529
  138OSM    C3F15072   2.955   6.349   6.792  0.0003 -0.0690  0.4646
  138OSM    H3F15073   3.003   6.435   6.740 -0.8025 -0.5763 -1.1982
  138OSM    H3G15074   3.034   6.303   6.855 -0.1371 -0.8486  0.0886
  138OSM    C4F15075   2.835   6.388   6.871  0.9095 -0.6867 -0.3607
  138OSM    H4F15076   2.768   6.455   6.814  2.6204  1.7723  0.3450
  138OSM    H4G15077   2.877   6.452   6.951  0.8223  0.0665 -0.9102
  138OSM    C5F15078   2.769   6.274   6.949 -1.1259 -0.0045 -0.2466
  138OSM    H5F15079   2.848   6.207   6.990 -1.9728 -1.1964 -0.5173
  138OSM    H5G15080   2.709   6.209   6.883  0.9154 -1.3421 -0.8803
  138OSM    C6F15081   2.680   6.336   7.062 -0.2642  0.6142 -0.1136
  138OSM    H6F15082   2.611   6.412   7.019  0.4308  1.3824  0.1099
  138OSM    H6G15083   2.753   6.398   7.118 -0.9307 -0.0475  1.5807
  138OSM    C7F15084   2.613   6.226   7.142  0.0548 -0.3478  0.7362
  138OSM    H7F15085   2.703   6.167   7.172  0.1105  0.0389  1.3377
  138OSM    H7G15086   2.550   6.156   7.083 -0.6275  0.3472  0.6300
  138OSM    C8F15087   2.538   6.281   7.262 -0.8290 -0.0128  0.3641
  138OSM    H8F15088   2.483   6.368   7.219  0.2184  0.1923 -0.6045
  138OSM    H8G15089   2.606   6.322   7.339 -1.4711  2.7242 -0.4289
  138OSM    C9F15090   2.437   6.194   7.330 -0.2703  0.0372 -0.0734
  138OSM    H9F15091   2.390   6.120   7.263  4.3101 -2.1649 -1.2067
  138OSM   C10F15092   2.407   6.208   7.463  0.0877  0.4291  0.2221
  138OSM   H10F15093   2.327   6.141   7.498 -0.5844  1.4600  0.7073
  138OSM   C11F15094   2.454   6.303   7.564  0.3152 -0.2947  0.1989
  138OSM   H11F15095   2.450   6.406   7.522  0.4385  2.1497  5.4456
  138OSM   H11G15096   2.550   6.255   7.590 -0.8270 -1.4459  2.6399
  138OSM   C12F15097   2.380   6.299   7.702 -0.3873  0.0017  0.3997
  138OSM   H12F15098   2.270   6.309   7.692 -0.2822  0.9161  0.0544
  138OSM   H12G15099   2.407   6.384   7.769  2.6610 -0.3801 -0.1878
  138OSM   C13F15100   2.421   6.177   7.785 -0.9519 -0.3851 -0.2679
  138OSM   H13F15101   2.527   6.184   7.815 -0.9291 -0.4891 -0.3224
  138OSM   H13G15102   2.392   6.089   7.723  0.1282  0.9684 -2.8597
  138OSM   C14F15103   2.332   6.167   7.911 -0.1800  0.0474  0.1658
  138OSM   H14F15104   2.318   6.265   7.962  2.0445  1.0024 -0.9430
  138OSM   H14G15105   2.389   6.109   7.986 -0.8618 -1.9319 -0.7731
  138OSM   C15F15106   2.196   6.105   7.880 -0.6452  0.3252 -0.4866
  138OSM   H15F15107   2.204   5.994   7.869  0.5165  0.4016 -0.5475
  138OSM   H15G15108   2.164   6.148   7.783 -0.7605  2.1312  0.3134
  138OSM   C16F15109   2.091   6.139   7.989  0.6360 -0.3501 -0.4245
  138OSM   H16F15110   1.998   6.083   7.965  2.1650 -2.4139 -1.8963
  138OSM   H16G15111   2.073   6.248   7.996 -2.3467 -0.8049  0.3367
  138OSM   C17F15112   2.120   6.082   8.129 -0.3117 -0.3526 -0.0716
  138OSM   H17F15113   2.195   6.131   8.193 -1.4612 -1.7902  2.5612
  138OSM   H17G15114   2.145   5.974   8.114 -0.4674 -0.1002 -2.4597
  138OSM   C18F15115   1.995   6.082   8.216 -0.2529 -0.1360 -0.3041
  138OSM   H18F15116   1.997   6.019   8.307  0.1142 -1.4721 -1.2038
  138OSM   H18G15117   1.898   6.060   8.166 -0.9250  0.8430  0.5524
  138OSM   H18H15118   1.995   6.185   8.256 -0.1783 -0.4364  0.4830
  139OSM      N15119   1.677   1.142   5.799  0.1702 -0.1644 -0.3639
  139OSM    C1515120   1.550   1.123   5.886 -0.9539  0.2018  0.1106
  139OSM   H15A15121   1.563   1.028   5.936  1.4324  0.1423 -0.4775
  139OSM   H15B15122   1.461   1.113   5.825  0.4662  1.8617 -2.4615
  139OSM   H15C15123   1.538   1.204   5.956  1.9145  1.2135 -0.4062
  139OSM    C1415124   1.691   1.052   5.687  1.1019 -0.1508  0.3782
  139OSM   H14A15125   1.703   0.951   5.725 -2.8386 -0.5950  0.9067
  139OSM   H14B15126   1.772   1.088   5.626  0.2523  1.7631  0.3086
  139OSM   H14C15127   1.599   1.061   5.631  2.4840 -1.2046 -2.2299
  139OSM    C1315128   1.673   1.288   5.744 -0.0111 -0.0274  0.5235
  139OSM   H13A15129   1.695   1.359   5.822  2.6454  0.6215 -0.7181
  139OSM   H13B15130   1.574   1.309   5.705  0.6318  0.6685 -0.8126
  139OSM   H13C15131   1.744   1.297   5.663 -0.3960 -1.0255  0.0579
  139OSM    C1215132   1.797   1.140   5.884 -0.1363  0.5255 -0.1908
  139OSM   H12A15133   1.882   1.183   5.833 -0.3913  0.9801 -0.2431
  139OSM   H12B15134   1.827   1.039   5.908  0.8645  1.1201  1.2106
  139OSM    C1115135   1.794   1.206   6.022 -0.1263  0.3261  0.1356
  139OSM   H11A15136   1.898   1.188   6.058  0.5962  1.8642 -1.0409
  139OSM   H11B15137   1.723   1.149   6.085 -0.2218  1.1625  0.8116
  139OSM      P15138   1.708   1.416   6.130 -0.2726 -0.1498 -0.1206
  139OSM    O1315139   1.721   1.563   6.101 -0.4869  0.0197 -0.3610
  139OSM    O1415140   1.576   1.364   6.168  0.5726 -0.2951  0.2617
  139OSM    O1115141   1.813   1.379   6.231  0.0142 -0.7251 -0.1760
  139OSM    O1215142   1.776   1.347   6.009  0.2172  0.1734  0.9399
  139OSM    C1S15143   1.831   1.447   6.355  0.1604  0.1059  0.2379
  139OSM    H1S15144   1.755   1.527   6.370 -1.3950 -1.3510  0.3564
  139OSM    H1T15145   1.939   1.472   6.367 -0.2617  1.8219  0.7934
  139OSM     NF15146   1.785   1.400   6.595  0.2575  0.2597  0.2768
  139OSM    HNF15147   1.861   1.383   6.658 -0.5375  2.0461  1.8555
  139OSM    C2S15148   1.802   1.341   6.473  0.0784  0.6936  0.7328
  139OSM    H2S15149   1.712   1.281   6.447  1.0847 -0.4837 -0.1235
  139OSM    C3S15150   1.914   1.231   6.453  0.5943  0.2896 -0.8404
  139OSM    H3S15151   2.010   1.282   6.476  0.5110  0.2874 -0.4864
  139OSM     O315152   1.923   1.154   6.329  0.1687 -0.1465 -0.4153
  139OSM    HO315153   1.863   1.200   6.269 -0.6824  1.4623  1.5690
  139OSM    C4S15154   1.912   1.139   6.576  0.3991 -0.2861  0.0117
  139OSM    H4S15155   1.961   1.181   6.664  0.2422  0.0536 -0.0610
  139OSM    C5S15156   1.835   1.029   6.588 -0.6559  0.2678  0.6052
  139OSM    H5S15157   1.769   0.992   6.508 -1.5058  0.8411  1.0258
  139OSM    C6S15158   1.834   0.947   6.714 -0.4921 -1.0874 -0.3895
  139OSM    H6S15159   1.890   0.853   6.695  1.5740 -0.1400  0.5771
  139OSM    H6T15160   1.728   0.927   6.741 -0.3581 -0.4140  0.7224
  139OSM    C7S15161   1.904   1.013   6.834 -0.6272 -0.0997  0.0544
  139OSM    H7S15162   1.868   1.116   6.853 -2.6931 -0.8937  0.6892
  139OSM    H7T15163   2.012   1.022   6.810 -0.1967 -0.0602  1.9002
  139OSM    C8S15164   1.878   0.943   6.967 -0.0640  0.9633  0.2349
  139OSM    H8S15165   1.917   0.841   6.949  1.1809  1.6803 -1.5189
  139OSM    H8T15166   1.768   0.938   6.984  0.0591  0.6760  0.9880
  139OSM    C9S15167   1.940   1.006   7.094 -0.8905  0.5279  0.0105
  139OSM    H9S15168   1.902   1.109   7.105  0.4893  1.0348  0.2635
  139OSM    H9T15169   2.048   1.021   7.071 -0.8248 -1.6183 -1.4477
  139OSM   C10S15170   1.926   0.928   7.217 -0.0733  0.0956  0.0208
  139OSM   H10S15171   1.978   0.831   7.208 -0.2147 -0.0632  0.8972
  139OSM   H10T15172   1.818   0.911   7.237  0.0910 -1.1717 -0.1181
  139OSM   C11S15173   1.999   1.010   7.330 -0.7919 -0.5116  0.4321
  139OSM   H11S15174   1.934   1.097   7.352 -2.4422 -1.6846  0.4158
  139OSM   H11T15175   2.097   1.054   7.302 -1.4227  0.3578 -0.4788
  139OSM   C12S15176   1.997   0.936   7.465 -0.5937 -0.0744  0.2731
  139OSM   H12S15177   2.059   0.844   7.463 -0.3107  0.1014  0.7837
  139OSM   H12T15178   1.893   0.919   7.500  0.8578 -1.6961  4.3951
  139OSM   C13S15179   2.063   1.017   7.577  0.1147 -0.4718  0.8697
  139OSM   H13S15180   1.993   1.102   7.593  0.4705 -0.2247  1.1189
  139OSM   H13T15181   2.157   1.064   7.541 -1.4410  0.5323 -2.2056
  139OSM   C14S15182   2.079   0.928   7.699 -0.3253  0.3872  0.5511
  139OSM   H14S15183   2.138   0.836   7.682  0.7484  0.6679  2.5241
  139OSM   H14T15184   1.977   0.894   7.727 -0.0836  0.1651  1.1619
  139OSM   C15S15185   2.159   0.992   7.816  0.8008 -0.9381 -0.5454
  139OSM   H15S15186   2.159   1.102   7.802  2.5224 -0.7181  0.7727
  139OSM   H15T15187   2.265   0.965   7.794  0.8829 -0.0596 -1.3167
  139OSM   C16S15188   2.121   0.939   7.957  0.8970 -0.3121 -0.2965
  139OSM   H16S15189   2.149   0.831   7.963 -0.7747 -0.7133  0.8126
  139OSM   H16T15190   2.014   0.961   7.978  0.7159  1.7693 -2.8558
  139OSM   C17S15191   2.205   1.012   8.063 -0.1361  0.3413  0.7039
  139OSM   H17S15192   2.190   1.121   8.048  1.0301  0.3087 -0.8863
  139OSM   H17T15193   2.308   0.980   8.035 -0.8623  0.1742 -2.0315
  139OSM   C18S15194   2.177   0.966   8.198  0.2423  0.3428 -0.2043
  139OSM   H18S15195   2.245   1.021   8.266 -0.5149 -1.3125  2.0127
  139OSM   H18T15196   2.193   0.858   8.218 -0.6506  0.5866  2.1141
  139OSM   H18U15197   2.074   0.992   8.230  0.2801 -0.1405  0.3289
  139OSM    C1F15198   1.677   1.469   6.637  0.2124  0.3479  0.1756
  139OSM     OF15199   1.578   1.493   6.563 -0.0678 -0.0561  0.7728
  139OSM    C2F15200   1.684   1.533   6.771 -0.8214  1.0241  0.4256
  139OSM    H2F15201   1.793   1.541   6.793 -0.5780 -0.5708 -0.1228
  139OSM    H2G15202   1.656   1.470   6.858 -1.8852  0.6308 -0.1957
  139OSM    C3F15203   1.631   1.682   6.778  1.2940  0.4714  0.3333
  139OSM    H3F15204   1.521   1.670   6.769  0.9809  1.2516  2.5912
  139OSM    H3G15205   1.668   1.729   6.685  0.6632  1.4296  0.5591
  139OSM    C4F15206   1.676   1.761   6.902 -0.0317 -0.1874  0.6186
  139OSM    H4F15207   1.786   1.769   6.888  0.2278 -1.1358  1.9343
  139OSM    H4G15208   1.644   1.710   6.995 -0.5548 -1.7614 -0.3796
  139OSM    C5F15209   1.615   1.901   6.917  0.8053  0.5944  0.1729
  139OSM    H5F15210   1.520   1.892   6.975  0.9417 -0.8282  0.2015
  139OSM    H5G15211   1.602   1.953   6.819 -0.8132 -1.0339 -0.5293
  139OSM    C6F15212   1.711   1.986   7.000 -0.5830  0.0061  0.0648
  139OSM    H6F15213   1.682   2.093   7.006  1.5710  0.6363 -0.1593
  139OSM    H6G15214   1.808   1.991   6.947 -0.0637  1.8350  1.1096
  139OSM    C7F15215   1.754   1.924   7.139 -0.3836  0.5033  0.3190
  139OSM    H7F15216   1.826   1.839   7.139 -1.3252 -0.3232  1.3185
  139OSM    H7G15217   1.657   1.898   7.187 -0.2985  0.8294  0.6691
  139OSM    C8F15218   1.818   2.034   7.222  0.3993 -0.4155  0.1454
  139OSM    H8F15219   1.740   2.113   7.221  1.9685  1.2300  1.2160
  139OSM    H8G15220   1.909   2.078   7.175  0.2655 -0.5624 -0.2493
  139OSM    C9F15221   1.839   1.996   7.368 -1.0008 -0.1904  0.0417
  139OSM    H9F15222   1.922   1.925   7.384 -0.4832  0.2409 -0.6585
  139OSM   C10F15223   1.760   2.020   7.470 -0.5070  0.2645 -0.0513
  139OSM   H10F15224   1.798   1.993   7.569 -0.2070 -2.3546 -0.8049
  139OSM   C11F15225   1.636   2.107   7.488 -0.8458  0.1548 -0.0312
  139OSM   H11F15226   1.558   2.030   7.507 -0.3616 -0.3368  0.0042
  139OSM   H11G15227   1.603   2.159   7.396  3.2811  1.6285 -0.9054
  139OSM   C12F15228   1.659   2.189   7.610  0.1521  0.4400  0.6050
  139OSM   H12F15229   1.576   2.261   7.610  1.2650  1.7887 -0.8215
  139OSM   H12G15230   1.748   2.254   7.625  2.1673 -2.3259  1.5169
  139OSM   C13F15231   1.652   2.103   7.738  0.3731 -0.4976 -0.0933
  139OSM   H13F15232   1.750   2.053   7.754  0.5704 -0.8568 -2.1851
  139OSM   H13G15233   1.569   2.029   7.737 -2.0139  1.8902  2.3940
  139OSM   C14F15234   1.616   2.188   7.865 -0.6019  0.1766  0.1772
  139OSM   H14F15235   1.510   2.213   7.842 -1.5395 -2.0021  1.8512
  139OSM   H14G15236   1.689   2.272   7.859 -1.1532  0.7990  1.6580
  139OSM   C15F15237   1.624   2.115   8.002  1.0326  0.6284 -0.5444
  139OSM   H15F15238   1.625   2.189   8.085  1.4608  0.9818 -0.8559
  139OSM   H15G15239   1.730   2.081   7.999  0.5781 -0.7880 -1.2358
  139OSM   C16F15240   1.536   1.997   8.016  0.0108  0.5599 -1.2732
  139OSM   H16F15241   1.554   1.933   7.927 -1.8179 -0.0914 -1.2096
  139OSM   H16G15242   1.433   2.039   8.016  0.1200  1.1059  1.9631
  139OSM   C17F15243   1.549   1.919   8.150 -0.1604 -0.2223 -0.5954
  139OSM   H17F15244   1.642   1.858   8.147  0.7664  1.1600 -1.1328
  139OSM   H17G15245   1.464   1.849   8.160  0.4786 -0.8252  0.9384
  139OSM   C18F15246   1.545   2.000   8.277  0.2426 -0.5873 -0.4985
  139OSM   H18F15247   1.512   1.937   8.362 -0.1841  1.0996  0.6231
  139OSM   H18G15248   1.478   2.086   8.259  0.8338 -0.1780 -0.7827
  139OSM   H18H15249   1.644   2.041   8.306 -0.7514 -0.6641  3.7028
  140OSM      N15250   0.621   1.661   6.128  0.1318 -0.1746  0.5120
  140OSM    C1515251   0.525   1.586   6.207  0.8369 -1.1403 -0.9046
  140OSM   H15A15252   0.511   1.486   6.168 -0.8952 -0.4587 -2.1617
  140OSM   H15B15253   0.430   1.638   6.203  0.1284 -2.0663  1.8308
  140OSM   H15C15254   0.539   1.580   6.314  0.8955  0.8533 -0.7715
  140OSM    C1415255   0.758   1.619   6.163 -0.3739  0.1714 -0.0537
  140OSM   H14A15256   0.847   1.664   6.121  1.0212  0.1586  2.6426
  140OSM   H14B15257   0.758   1.515   6.136  2.7678  0.5004 -1.7756
  140OSM   H14C15258   0.777   1.609   6.269  2.8589 -3.5266 -0.7680
  140OSM    C1315259   0.594   1.640   5.974 -0.0577  0.5022 -0.4653
  140OSM   H13A15260   0.501   1.686   5.944 -0.5705  0.4579  0.9754
  140OSM   H13B15261   0.582   1.538   5.943 -0.7238  0.1308  0.9150
  140OSM   H13C15262   0.678   1.680   5.919  0.2369 -1.3366 -1.4141
  140OSM    C1215263   0.617   1.810   6.170 -0.6192 -0.2680  0.3613
  140OSM   H12A15264   0.679   1.879   6.114 -1.7957 -1.0406 -2.0037
  140OSM   H12B15265   0.651   1.812   6.272  1.2544  0.3989 -0.2316
  140OSM    C1115266   0.474   1.868   6.173 -0.5358  0.3902  0.3560
  140OSM   H11A15267   0.415   1.845   6.081  1.2339  0.6505 -0.9153
  140OSM   H11B15268   0.492   1.977   6.168  0.2699  0.2215 -1.7575
  140OSM      P15269   0.408   1.909   6.426  0.1299 -0.0545 -0.4424
  140OSM    O1315270   0.358   2.051   6.411 -0.2595  0.2544 -0.1793
  140OSM    O1415271   0.351   1.819   6.530  0.7348  0.0297  0.4170
  140OSM    O1115272   0.559   1.920   6.443 -0.8294 -0.9451 -0.7165
  140OSM    O1215273   0.396   1.843   6.285  0.3100  0.0766 -0.4168
  140OSM    C1S15274   0.620   1.941   6.576 -0.2542  0.0932  0.0804
  140OSM    H1S15275   0.560   2.007   6.642 -2.0578  0.3477 -1.7304
  140OSM    H1T15276   0.723   1.979   6.552 -0.6378  2.7972  2.2136
  140OSM     NF15277   0.700   1.859   6.787 -0.2861  0.2422 -0.3937
  140OSM    HNF15278   0.799   1.858   6.793 -0.3623 -1.4480  2.3610
  140OSM    C2S15279   0.644   1.814   6.657 -0.4901  0.2608 -0.2420
  140OSM    H2S15280   0.546   1.769   6.683 -0.1825 -0.3821 -0.1801
  140OSM    C3S15281   0.730   1.710   6.581  0.4441  0.0983 -0.0600
  140OSM    H3S15282   0.829   1.750   6.549  0.3056 -0.7541 -1.6497
  140OSM     O315283   0.669   1.666   6.462  0.4943 -0.5471 -0.2492
  140OSM    HO315284   0.608   1.738   6.446  1.8339  0.6819 -0.1021
  140OSM    C4S15285   0.751   1.595   6.674  0.3595  0.2231 -1.3268
  140OSM    H4S15286   0.831   1.602   6.750  2.6731  0.6779 -3.6670
  140OSM    C5S15287   0.656   1.502   6.702  0.7727  0.8470  0.4307
  140OSM    H5S15288   0.565   1.504   6.640 -0.1565 -1.4295  1.6024
  140OSM    C6S15289   0.657   1.396   6.809 -0.0689 -0.7229 -0.0855
  140OSM    H6S15290   0.695   1.301   6.766  1.3482 -0.1769 -0.1226
  140OSM    H6T15291   0.558   1.376   6.856  0.6232  1.9294  2.8702
  140OSM    C7S15292   0.743   1.415   6.931 -0.7290  0.0608 -0.6241
  140OSM    H7S15293   0.848   1.437   6.903 -0.5481 -0.1576 -0.1432
  140OSM    H7T15294   0.745   1.315   6.978 -1.4671  0.2931 -0.0685
  140OSM    C8S15295   0.681   1.509   7.026  0.9367  0.3229  0.8005
  140OSM    H8S15296   0.583   1.465   7.054  0.0651  1.5787 -0.2123
  140OSM    H8T15297   0.656   1.606   6.978  0.3477  0.8206  2.0714
  140OSM    C9S15298   0.765   1.537   7.151 -0.3572  0.2049 -0.3556
  140OSM    H9S15299   0.846   1.610   7.133 -0.4975  0.8756  1.5026
  140OSM    H9T15300   0.807   1.435   7.168 -1.3985 -0.4306 -1.3736
  140OSM   C10S15301   0.676   1.564   7.265  0.7549  0.3742  0.3497
  140OSM   H10S15302   0.609   1.477   7.283  1.9343 -0.3382  1.4581
  140OSM   H10T15303   0.609   1.650   7.247  1.7591  1.1656  0.2966
  140OSM   C11S15304   0.772   1.588   7.379 -0.3821 -0.1011  0.8309
  140OSM   H11S15305   0.836   1.674   7.351  0.5073 -1.1348 -0.4739
  140OSM   H11T15306   0.850   1.509   7.389 -0.2931 -0.2040 -0.5020
  140OSM   C12S15307   0.699   1.608   7.520  0.4619  0.1362  0.1201
  140OSM   H12S15308   0.784   1.613   7.591  0.3231 -0.3492  0.3215
  140OSM   H12T15309   0.622   1.529   7.532 -0.8474  0.8098 -2.8960
  140OSM   C13S15310   0.614   1.740   7.533  0.1400  0.3751  0.0485
  140OSM   H13S15311   0.546   1.747   7.446 -0.7154 -2.8167  0.3307
  140OSM   H13T15312   0.677   1.831   7.541  0.6093  0.0558  0.0511
  140OSM   C14S15313   0.540   1.724   7.666 -0.5623  0.0948  0.0741
  140OSM   H14S15314   0.606   1.672   7.739  1.0418  2.4495  0.3972
  140OSM   H14T15315   0.456   1.652   7.655 -1.1307  0.7365  0.1484
  140OSM   C15S15316   0.490   1.855   7.723  0.2870  0.7749  0.4831
  140OSM   H15S15317   0.419   1.910   7.659  1.0258 -1.5158 -2.5080
  140OSM   H15T15318   0.571   1.929   7.742  0.7442  0.6114 -0.7714
  140OSM   C16S15319   0.429   1.839   7.866 -0.1864 -0.6485 -0.0877
  140OSM   H16S15320   0.485   1.767   7.930 -1.8090  0.0255  2.2630
  140OSM   H16T15321   0.334   1.782   7.861 -1.1121  0.7108  1.1715
  140OSM   C17S15322   0.401   1.971   7.945  0.3337  0.3185 -0.2637
  140OSM   H17S15323   0.342   2.042   7.882  1.5595  0.4470 -1.2949
  140OSM   H17T15324   0.498   2.018   7.972 -1.0230  1.8642  2.3360
  140OSM   C18S15325   0.314   1.953   8.072 -0.3471 -0.4275 -1.0657
  140OSM   H18S15326   0.362   1.878   8.138  3.0283  0.6766 -2.0724
  140OSM   H18T15327   0.218   1.906   8.041 -2.0628  2.2066 -0.1541
  140OSM   H18U15328   0.294   2.048   8.126  1.1086 -0.0807 -1.1090
  140OSM    C1F15329   0.622   1.908   6.886  0.0519  0.1663 -0.0261
  140OSM     OF15330   0.501   1.895   6.871  0.2148 -0.1147 -0.1986
  140OSM    C2F15331   0.686   1.979   7.002  0.0019 -0.2245 -0.2572
  140OSM    H2F15332   0.702   2.087   6.984  2.6336 -0.7380 -1.3731
  140OSM    H2G15333   0.783   1.935   7.031 -0.5411  0.5918  3.2447
  140OSM    C3F15334   0.587   1.981   7.121  0.2786 -0.3666  0.0139
  140OSM    H3F15335   0.549   1.878   7.138  0.6790 -0.4159  0.6498
  140OSM    H3G15336   0.504   2.054   7.116  0.8823  0.9183  4.4919
  140OSM    C4F15337   0.650   2.028   7.257 -0.0321 -0.0519  0.3023
  140OSM    H4F15338   0.719   2.111   7.227 -1.5763  0.9198 -0.7061
  140OSM    H4G15339   0.706   1.943   7.300  2.8219  1.3658 -0.3098
  140OSM    C5F15340   0.552   2.085   7.352  0.0085 -0.2564  0.3717
  140OSM    H5F15341   0.513   1.994   7.402 -0.0458 -0.0825  0.6457
  140OSM    H5G15342   0.468   2.134   7.299  1.3259 -0.0415 -1.6444
  140OSM    C6F15343   0.620   2.184   7.446 -0.2258 -0.2971 -0.6580
  140OSM    H6F15344   0.656   2.276   7.396 -0.4436  0.7597  1.0531
  140OSM    H6G15345   0.714   2.132   7.477  0.8618  1.2227 -1.2758
  140OSM    C7F15346   0.534   2.221   7.569 -0.0050  0.7296 -0.7165
  140OSM    H7F15347   0.489   2.132   7.619  0.9613  1.0246  0.7592
  140OSM    H7G15348   0.439   2.267   7.535 -0.7352 -1.3367 -1.6795
  140OSM    C8F15349   0.616   2.307   7.668  0.4411  0.1883 -0.6689
  140OSM    H8F15350   0.679   2.380   7.612 -1.3628  1.8969 -0.5807
  140OSM    H8G15351   0.688   2.240   7.719  1.7534  1.9333 -0.1054
  140OSM    C9F15352   0.531   2.386   7.766 -0.9961 -0.5658  0.4203
  140OSM    H9F15353   0.455   2.449   7.717 -0.7530 -0.3774  0.2885
  140OSM   C10F15354   0.538   2.388   7.902 -0.6949  0.3024 -0.6321
  140OSM   H10F15355   0.462   2.451   7.950  0.0286  0.9938 -0.3796
  140OSM   C11F15356   0.645   2.320   7.983  0.3445 -0.3938 -0.9118
  140OSM   H11F15357   0.743   2.372   7.974  0.8302 -1.0589  0.3301
  140OSM   H11G15358   0.670   2.216   7.953 -0.0624 -1.1559  1.2520
  140OSM   C12F15359   0.605   2.312   8.126  0.0189 -0.6073 -0.3782
  140OSM   H12F15360   0.664   2.241   8.188 -1.3257 -1.1267  0.3507
  140OSM   H12G15361   0.500   2.277   8.133 -0.4158  0.3340 -1.6993
  140OSM   C13F15362   0.611   2.452   8.180  0.0746  0.0610 -0.1973
  140OSM   H13F15363   0.570   2.525   8.108  1.8499  0.5654 -0.7580
  140OSM   H13G15364   0.716   2.483   8.199 -0.1892  0.3531  0.8411
  140OSM   C14F15365   0.537   2.462   8.318  0.1977  0.2576 -0.0880
  140OSM   H14F15366   0.577   2.373   8.371  0.5294 -0.4209 -1.4328
  140OSM   H14G15367   0.430   2.439   8.306 -0.1085 -0.2109  2.7909
  140OSM   C15F15368   0.562   2.585   8.407  0.5262 -0.1759  0.0250
  140OSM   H15F15369   0.503   2.669   8.365 -1.0475  0.3260  3.0255
  140OSM   H15G15370   0.671   2.607   8.404  1.3624 -3.6766 -1.1657
  140OSM   C16F15371   0.506   2.570   8.546 -0.4840 -0.9846 -0.0383
  140OSM   H16F15372   0.538   2.470   8.584 -1.7028 -2.6123 -2.9429
  140OSM   H16G15373   0.397   2.552   8.543 -0.8752  0.9560  1.0564
  140OSM   C17F15374   0.548   2.676   8.642 -0.2699 -0.2749 -0.8017
  140OSM   H17F15375   0.525   2.778   8.604  1.7429  0.1413 -1.0184
  140OSM   H17G15376   0.658   2.659   8.643 -0.4283 -2.5352 -4.2835
  140OSM   C18F15377   0.503   2.663   8.788 -0.8165  0.8992  0.3503
  140OSM   H18F15378   0.393   2.655   8.804 -0.7840  1.6867  0.9809
  140OSM   H18G15379   0.549   2.754   8.832  2.0351 -0.4204  0.3447
  140OSM   H18H15380   0.553   2.577   8.838 -0.3807 -0.9947 -3.0337
  141OSM      N15381   2.379   5.927   5.978 -0.4214 -0.2416 -0.6537
  141OSM    C1515382   2.363   6.058   6.038  0.1969 -0.1574 -0.4614
  141OSM   H15A15383   2.427   6.064   6.125  0.1272  0.6799 -0.4608
  141OSM   H15B15384   2.261   6.081   6.064  0.0071 -1.7496  0.3720
  141OSM   H15C15385   2.398   6.137   5.973  1.7911  0.1703  0.7131
  141OSM    C1415386   2.280   5.907   5.867  0.0376 -0.4996  0.3694
  141OSM   H14A15387   2.181   5.896   5.909 -0.2264  2.0749  0.5728
  141OSM   H14B15388   2.310   5.821   5.808 -1.3691  0.0043 -1.1162
  141OSM   H14C15389   2.275   5.996   5.807 -2.1326 -1.0025 -0.2671
  141OSM    C1315390   2.518   5.929   5.915 -0.3243  0.3592 -0.3907
  141OSM   H13A15391   2.531   5.825   5.889 -0.1891 -0.8307  3.6809
  141OSM   H13B15392   2.594   5.955   5.988 -0.0111 -1.2055 -0.1062
  141OSM   H13C15393   2.526   5.994   5.830  0.6580  1.4223  0.4856
  141OSM    C1215394   2.351   5.812   6.077  0.3006 -0.6298 -0.5068
  141OSM   H12A15395   2.353   5.717   6.027  0.0304 -1.0906  0.3284
  141OSM   H12B15396   2.247   5.821   6.104 -0.2854  1.3478 -3.0579
  141OSM    C1115397   2.456   5.794   6.200 -0.0703 -0.4236  0.3259
  141OSM   H11A15398   2.417   5.715   6.267 -0.9773 -0.6112 -0.3919
  141OSM   H11B15399   2.468   5.890   6.254  0.6641  0.8702 -1.9705
  141OSM      P15400   2.728   5.790   6.169 -0.7456 -0.1502  0.4983
  141OSM    O1315401   2.822   5.685   6.132 -0.1260  0.1448  0.4684
  141OSM    O1415402   2.742   5.928   6.103 -0.5057  0.0282 -0.4629
  141OSM    O1115403   2.725   5.803   6.323 -0.0435  0.1201  0.1984
  141OSM    O1215404   2.581   5.746   6.145 -0.0201 -0.6576  0.4131
  141OSM    C1S15405   2.825   5.770   6.416  0.1313 -0.9459  0.5049
  141OSM    H1S15406   2.867   5.867   6.452 -0.0845 -1.0345  1.0109
  141OSM    H1T15407   2.908   5.709   6.374  1.5710 -0.1748  2.0697
  141OSM     NF15408   2.856   5.709   6.652 -0.3664  0.8063  0.0438
  141OSM    HNF15409   2.929   5.648   6.680 -1.1380  1.2315  3.4244
  141OSM    C2S15410   2.770   5.686   6.535  0.4714  0.0989 -0.3283
  141OSM    H2S15411   2.670   5.725   6.563  0.9960  1.5080 -0.3129
  141OSM    C3S15412   2.745   5.539   6.487  0.6862  0.3333  0.5746
  141OSM    H3S15413   2.830   5.479   6.447 -1.1364 -1.4402 -0.8619
  141OSM     O315414   2.632   5.518   6.394 -0.2458 -0.3199 -0.2428
  141OSM    HO315415   2.612   5.602   6.351 -1.8536  0.6706  2.1887
  141OSM    C4S15416   2.724   5.460   6.614  0.5039 -0.1661 -0.0754
  141OSM    H4S15417   2.818   5.427   6.660  0.0635 -1.4685 -0.0783
  141OSM    C5S15418   2.609   5.423   6.665  0.7995  0.1304  0.0625
  141OSM    H5S15419   2.521   5.444   6.604  1.2236 -0.2278 -0.6854
  141OSM    C6S15420   2.584   5.351   6.792 -0.1547 -0.1466  0.0143
  141OSM    H6S15421   2.605   5.242   6.798  0.1916 -0.0111  2.3951
  141OSM    H6T15422   2.475   5.349   6.818  0.1571 -1.4452  1.4141
  141OSM    C7S15423   2.652   5.432   6.907  0.4279  0.6571  0.4401
  141OSM    H7S15424   2.615   5.536   6.920  0.0066  0.5704 -0.0088
  141OSM    H7T15425   2.761   5.429   6.884  0.4252 -0.1408  0.5020
  141OSM    C8S15426   2.610   5.361   7.039  0.3356  0.7506  0.2304
  141OSM    H8S15427   2.634   5.254   7.022 -0.8670  0.8130 -2.2842
  141OSM    H8T15428   2.503   5.386   7.056  0.4955  1.3630  0.3888
  141OSM    C9S15429   2.686   5.412   7.159  0.7997  0.8991  0.1403
  141OSM    H9S15430   2.675   5.523   7.157  2.3934  1.0740 -1.7333
  141OSM    H9T15431   2.786   5.368   7.137  0.4031  0.8229 -1.5934
  141OSM   C10S15432   2.626   5.354   7.286 -0.3702  0.2646  0.4647
  141OSM   H10S15433   2.614   5.244   7.281 -0.8420  0.3479 -2.9264
  141OSM   H10T15434   2.523   5.393   7.303 -0.3563  1.3977 -1.6777
  141OSM   C11S15435   2.696   5.398   7.410 -0.3426  0.5670  0.2816
  141OSM   H11S15436   2.693   5.509   7.406 -1.5912  0.5251 -2.0913
  141OSM   H11T15437   2.805   5.378   7.400 -0.5865 -1.1764  0.7681
  141OSM   C12S15438   2.641   5.336   7.542 -0.3416 -0.4967  0.0200
  141OSM   H12S15439   2.655   5.226   7.538 -0.6394 -0.5106 -1.6845
  141OSM   H12T15440   2.531   5.354   7.551 -0.5403 -1.8719  0.5746
  141OSM   C13S15441   2.715   5.392   7.662 -0.4665  0.2617 -0.2253
  141OSM   H13S15442   2.694   5.501   7.670 -1.5471  0.0424  0.0643
  141OSM   H13T15443   2.824   5.375   7.651 -0.6301  0.0258 -1.5970
  141OSM   C14S15444   2.678   5.322   7.791  0.3269 -0.0697  0.3320
  141OSM   H14S15445   2.680   5.211   7.781 -0.2575 -0.0284 -0.2784
  141OSM   H14T15446   2.576   5.359   7.814  0.1633  1.4556 -2.4093
  141OSM   C15S15447   2.767   5.353   7.908 -0.0168 -0.1959 -0.1648
  141OSM   H15S15448   2.769   5.463   7.925  2.0501 -0.5633  2.6712
  141OSM   H15T15449   2.873   5.332   7.882  0.4576  1.6990  0.1268
  141OSM   C16S15450   2.718   5.286   8.040  0.1405 -0.1189  0.6586
  141OSM   H16S15451   2.741   5.178   8.032 -0.7789 -0.3396  0.8785
  141OSM   H16T15452   2.609   5.299   8.053  0.1585 -0.7236  1.4442
  141OSM   C17S15453   2.786   5.345   8.156  0.1659 -0.1373  0.2383
  141OSM   H17S15454   2.716   5.424   8.191  0.6897  2.3836 -3.7488
  141OSM   H17T15455   2.879   5.400   8.130  0.3161 -1.2487 -1.7394
  141OSM   C18S15456   2.810   5.244   8.265  0.2242  0.0621 -0.2068
  141OSM   H18S15457   2.722   5.182   8.292  0.3113  0.0724  0.1110
  141OSM   H18T15458   2.851   5.290   8.358 -0.0223 -1.2273  0.5649
  141OSM   H18U15459   2.897   5.178   8.241  0.8069  0.4601  0.7584
  141OSM    C1F15460   2.841   5.835   6.712 -0.4332 -0.1879  1.1695
  141OSM     OF15461   2.748   5.910   6.680 -0.0418 -0.2680 -0.4247
  141OSM    C2F15462   2.939   5.872   6.814  0.5511 -1.1623 -0.0240
  141OSM    H2F15463   3.003   5.956   6.779 -0.1105 -0.7244 -0.1960
  141OSM    H2G15464   3.011   5.787   6.813  0.6416 -1.1892 -3.2960
  141OSM    C3F15465   2.877   5.907   6.948 -0.5181 -0.3055  0.1888
  141OSM    H3F15466   2.806   5.829   6.983  0.4420 -1.0730  0.4499
  141OSM    H3G15467   2.811   5.996   6.938 -0.8587 -0.6226 -0.3939
  141OSM    C4F15468   2.994   5.914   7.047  0.4575 -0.7134 -0.7158
  141OSM    H4F15469   3.059   5.995   7.005  1.2555 -0.5529  0.7503
  141OSM    H4G15470   3.053   5.820   7.052  1.3216 -0.1191  2.3280
  141OSM    C5F15471   2.948   5.962   7.189  0.1041  0.3137  0.3373
  141OSM    H5F15472   2.897   6.060   7.177 -0.9032 -0.3158 -0.7182
  141OSM    H5G15473   3.037   5.977   7.253 -0.0753 -1.1701  0.9853
  141OSM    C6F15474   2.863   5.860   7.277  0.3767 -0.1627  0.2045
  141OSM    H6F15475   2.843   5.772   7.213  1.6466 -0.5258  0.2698
  141OSM    H6G15476   2.768   5.912   7.301  0.1863  0.3566 -1.5683
  141OSM    C7F15477   2.931   5.802   7.402  0.5568 -0.1036  0.6650
  141OSM    H7F15478   3.022   5.748   7.367  0.7337 -0.2661  1.3692
  141OSM    H7G15479   2.862   5.727   7.446  1.2206 -2.0460 -1.4126
  141OSM    C8F15480   2.976   5.898   7.502  0.3038 -0.0940 -0.0449
  141OSM    H8F15481   3.042   5.969   7.448  0.0487  0.4746  0.3853
  141OSM    H8G15482   3.041   5.853   7.580 -1.8537 -0.8381  1.3956
  141OSM    C9F15483   2.865   5.982   7.557  0.0140 -0.6322 -0.8360
  141OSM    H9F15484   2.814   6.046   7.484 -0.1095  0.7509  0.3999
  141OSM   C10F15485   2.833   5.983   7.686  0.1051  0.1479 -0.0585
  141OSM   H10F15486   2.749   6.045   7.721 -0.0965  0.4283 -0.9974
  141OSM   C11F15487   2.887   5.904   7.803  1.2272 -0.3454 -0.4190
  141OSM   H11F15488   2.822   5.940   7.886 -0.9774  2.4168 -3.1093
  141OSM   H11G15489   2.995   5.930   7.808  0.6178  2.3102  1.9054
  141OSM   C12F15490   2.880   5.751   7.794 -0.0175 -0.5944  0.0166
  141OSM   H12F15491   2.892   5.721   7.688  0.8011  2.3642 -0.8141
  141OSM   H12G15492   2.785   5.712   7.837 -0.2553 -1.1190 -0.9555
  141OSM   C13F15493   2.994   5.685   7.877  0.0467 -0.1234  0.0887
  141OSM   H13F15494   3.092   5.692   7.826 -0.0595 -2.6761 -0.5977
  141OSM   H13G15495   2.955   5.581   7.879 -0.9923  0.2409 -0.3505
  141OSM   C14F15496   3.021   5.754   8.012 -0.1204  0.3521 -0.1190
  141OSM   H14F15497   2.948   5.833   8.038  0.1742  1.2176 -1.7785
  141OSM   H14G15498   3.125   5.787   8.029  0.2577 -1.1114  0.5764
  141OSM   C15F15499   3.003   5.653   8.126  0.1496  0.2299  0.3971
  141OSM   H15F15500   3.036   5.556   8.084  1.1235 -0.1702  2.0040
  141OSM   H15G15501   2.898   5.636   8.158  0.1087  0.4770  0.3981
  141OSM   C16F15502   3.084   5.691   8.249  0.1158 -0.3603 -0.0910
  141OSM   H16F15503   3.192   5.699   8.221 -0.0563 -1.1944 -1.0691
  141OSM   H16G15504   3.080   5.615   8.330 -0.1652  1.0878  1.2853
  141OSM   C17F15505   3.030   5.815   8.318  0.0581  0.2878 -0.6797
  141OSM   H17F15506   2.919   5.823   8.330  0.0134 -0.9809 -0.0898
  141OSM   H17G15507   3.045   5.910   8.262 -0.8297  2.0900  1.9192
  141OSM   C18F15508   3.086   5.839   8.460  0.0354 -0.5949  0.6386
  141OSM   H18F15509   3.195   5.858   8.443 -0.3951  0.5092 -1.1481
  141OSM   H18G15510   3.074   5.749   8.524 -2.5715  0.6358  2.0064
  141OSM   H18H15511   3.034   5.925   8.507  1.5732  0.4406  0.5528
  142OSM      N15512   1.764   5.598   6.046 -0.4310 -0.4635  0.1688
  142OSM    C1515513   1.775   5.503   5.935 -0.0310 -0.4810  0.4135
  142OSM   H15A15514   1.870   5.495   5.885 -0.3114  0.0731 -0.2263
  142OSM   H15B15515   1.706   5.541   5.860 -1.5793 -0.8288  1.5960
  142OSM   H15C15516   1.747   5.400   5.954  0.3221 -0.7923 -0.6621
  142OSM    C1415517   1.672   5.540   6.143 -0.0445  0.4806  0.1718
  142OSM   H14A15518   1.649   5.596   6.232 -2.0293 -1.2760  0.8433
  142OSM   H14B15519   1.731   5.459   6.184  1.9158  0.9437 -1.5403
  142OSM   H14C15520   1.582   5.496   6.103 -0.9907  1.1386  1.5310
  142OSM    C1315521   1.901   5.588   6.111  0.1010 -1.3841 -0.1319
  142OSM   H13A15522   1.977   5.609   6.038 -0.1843  0.3536  0.0036
  142OSM   H13B15523   1.914   5.494   6.161  2.3186 -0.4810  1.1235
  142OSM   H13C15524   1.909   5.666   6.186  1.9745 -0.6524 -1.0283
  142OSM    C1215525   1.720   5.744   6.014  0.5655  0.7674  0.6375
  142OSM   H12A15526   1.613   5.741   5.998  0.9143  0.0696 -2.0655
  142OSM   H12B15527   1.774   5.769   5.924  0.2632 -2.4093 -0.5826
  142OSM    C1115528   1.744   5.846   6.128  0.0820 -0.2160  0.2978
  142OSM   H11A15529   1.720   5.944   6.081  0.1998 -0.7936 -1.0092
  142OSM   H11B15530   1.851   5.840   6.155  0.4534  0.5541 -0.9857
  142OSM      P15531   1.530   5.899   6.274  0.1829  0.0190  0.3941
  142OSM    O1315532   1.568   6.045   6.308 -0.0857  1.2718  0.0619
  142OSM    O1415533   1.426   5.864   6.168 -0.0693 -0.2614 -0.2159
  142OSM    O1115534   1.481   5.827   6.408 -0.2342 -0.3157 -0.2840
  142OSM    O1215535   1.661   5.814   6.242  0.0752 -0.2992 -0.3542
  142OSM    C1S15536   1.571   5.779   6.503  0.3416 -0.4871 -0.4786
  142OSM    H1S15537   1.676   5.809   6.482  0.0432  2.6690  1.7756
  142OSM    H1T15538   1.562   5.669   6.513 -0.9173 -0.3135  0.4916
  142OSM     NF15539   1.654   5.803   6.751 -0.2426 -0.4108 -0.1104
  142OSM    HNF15540   1.631   5.750   6.832  3.3987 -2.6203 -0.3138
  142OSM    C2S15541   1.550   5.844   6.652 -0.6222  0.7106 -0.0094
  142OSM    H2S15542   1.547   5.952   6.626 -1.5155  1.0567  1.3944
  142OSM    C3S15543   1.395   5.803   6.694 -0.4415 -0.9066 -0.1107
  142OSM    H3S15544   1.392   5.693   6.710 -1.8613 -0.8984 -0.1814
  142OSM     O315545   1.304   5.814   6.593  0.3121 -0.5811  0.5042
  142OSM    HO315546   1.360   5.845   6.522 -0.7913  0.7636  0.1606
  142OSM    C4S15547   1.348   5.880   6.812 -0.5564 -0.3700 -0.3405
  142OSM    H4S15548   1.364   5.827   6.907  0.7141 -0.6013 -0.6718
  142OSM    C5S15549   1.316   6.013   6.825 -0.3035  0.4033  0.1071
  142OSM    H5S15550   1.314   6.065   6.728  2.0291 -0.8073 -0.6688
  142OSM    C6S15551   1.267   6.089   6.945  0.1061 -0.6632  0.0907
  142OSM    H6S15552   1.158   6.073   6.955 -0.4210  1.9857 -0.6954
  142OSM    H6T15553   1.266   6.199   6.930 -2.1947 -0.7500 -0.8224
  142OSM    C7S15554   1.336   6.061   7.080  0.2028 -0.3121  0.9009
  142OSM    H7S15555   1.445   6.081   7.093  0.4138 -1.9476  1.9595
  142OSM    H7T15556   1.323   5.953   7.100 -0.4652 -0.2519  0.8155
  142OSM    C8S15557   1.289   6.137   7.203  0.3574  0.5382 -0.5576
  142OSM    H8S15558   1.180   6.124   7.221  0.0360  0.6716 -2.2695
  142OSM    H8T15559   1.312   6.246   7.198 -0.9150  0.8228 -0.4828
  142OSM    C9S15560   1.358   6.078   7.335 -0.3725 -0.3775 -1.2111
  142OSM    H9S15561   1.468   6.088   7.334  0.0437 -2.5324  2.6233
  142OSM    H9T15562   1.337   5.969   7.345 -1.5627 -0.0043  0.9101
  142OSM   C10S15563   1.305   6.150   7.459 -0.3935 -0.0915  0.6114
  142OSM   H10S15564   1.194   6.163   7.456 -0.5464 -1.2825  0.3187
  142OSM   H10T15565   1.336   6.256   7.448  1.5268 -0.6203  0.5748
  142OSM   C11S15566   1.360   6.085   7.587 -0.4375  0.8020 -0.0370
  142OSM   H11S15567   1.343   6.156   7.671  0.2168  1.5917 -0.5536
  142OSM   H11T15568   1.470   6.069   7.581 -0.4978  0.4048 -0.0833
  142OSM   C12S15569   1.290   5.955   7.615 -0.0577  0.1703 -0.2300
  142OSM   H12S15570   1.331   5.875   7.550 -1.0037 -1.8825  1.5745
  142OSM   H12T15571   1.181   5.962   7.591  0.0195  2.9965 -0.0409
  142OSM   C13S15572   1.295   5.903   7.762 -0.0313 -0.1376  0.0203
  142OSM   H13S15573   1.399   5.874   7.787  0.1551 -0.1895 -0.8077
  142OSM   H13T15574   1.231   5.812   7.755  0.9813 -0.7389 -5.8302
  142OSM   C14S15575   1.238   5.995   7.869  0.3384  0.0463 -0.0503
  142OSM   H14S15576   1.140   6.031   7.829  0.2052  0.1811  0.3927
  142OSM   H14T15577   1.295   6.090   7.878  0.3918 -0.1326  1.6511
  142OSM   C15S15578   1.206   5.918   8.003  0.7279  0.1774 -0.0508
  142OSM   H15S15579   1.302   5.890   8.052 -0.3991  0.3851  2.4228
  142OSM   H15T15580   1.148   5.829   7.971  0.7265 -0.0171  0.4757
  142OSM   C16S15581   1.121   6.007   8.098 -0.3637 -0.1888  1.5361
  142OSM   H16S15582   1.043   6.064   8.043  2.0811  1.7850 -0.0776
  142OSM   H16T15583   1.188   6.091   8.127 -1.1308  1.6963 -1.6848
  142OSM   C17S15584   1.051   5.936   8.209 -0.2013  0.5820  0.1258
  142OSM   H17S15585   1.118   5.861   8.257 -0.3350  0.1258 -0.3804
  142OSM   H17T15586   0.967   5.879   8.162  0.6335 -0.1258 -0.5450
  142OSM   C18S15587   0.990   6.019   8.314  0.0356  0.3046  0.0021
  142OSM   H18S15588   0.924   5.969   8.388 -0.8587  0.5226 -0.6242
  142OSM   H18T15589   0.920   6.094   8.270 -1.0873 -0.4275  0.4884
  142OSM   H18U15590   1.059   6.076   8.379  0.6858 -1.4247  0.8956
  142OSM    C1F15591   1.767   5.873   6.743 -0.4416  0.3158 -1.0544
  142OSM     OF15592   1.792   5.956   6.656  0.0215 -0.6287 -0.1268
  142OSM    C2F15593   1.860   5.859   6.866 -0.2003  0.3698 -0.0500
  142OSM    H2F15594   1.967   5.854   6.836 -0.0068  1.5633  0.4081
  142OSM    H2G15595   1.837   5.765   6.921  0.4120  1.6714  2.5642
  142OSM    C3F15596   1.839   5.978   6.958 -0.0531 -0.1269 -0.1816
  142OSM    H3F15597   1.729   5.986   6.965 -0.1270 -0.6790 -0.6686
  142OSM    H3G15598   1.881   6.074   6.920  0.9835 -0.5813 -0.2257
  142OSM    C4F15599   1.891   5.964   7.108  0.1099 -0.4341 -1.0491
  142OSM    H4F15600   2.002   5.965   7.114  0.0657 -1.6113  0.9343
  142OSM    H4G15601   1.856   5.861   7.133  2.7504 -1.0236  0.6965
  142OSM    C5F15602   1.819   6.058   7.205 -0.4526 -0.2931  0.2583
  142OSM    H5F15603   1.708   6.052   7.200 -0.6352  2.0873  0.2145
  142OSM    H5G15604   1.850   6.163   7.183  1.0642 -0.9860 -1.1425
  142OSM    C6F15605   1.852   6.042   7.363 -0.2452 -0.0378  0.3573
  142OSM    H6F15606   1.961   6.059   7.376 -0.3653  1.0185  0.0368
  142OSM    H6G15607   1.820   5.940   7.393 -1.3564 -0.2843 -1.4660
  142OSM    C7F15608   1.780   6.153   7.444 -0.5593 -0.0858  0.2634
  142OSM    H7F15609   1.673   6.130   7.424 -0.4541 -0.1143 -0.2565
  142OSM    H7G15610   1.810   6.257   7.419 -1.1788  0.0907  0.2297
  142OSM    C8F15611   1.816   6.133   7.594  0.0043  0.2687  0.0015
  142OSM    H8F15612   1.927   6.130   7.601  0.0263  1.5283  0.5239
  142OSM    H8G15613   1.797   6.029   7.627  1.0283  0.6307  1.8646
  142OSM    C9F15614   1.774   6.242   7.687  0.2641  0.2547 -0.4490
  142OSM    H9F15615   1.822   6.336   7.655  0.4686 -0.1980 -1.5347
  142OSM   C10F15616   1.697   6.241   7.802 -0.1106 -0.7177  0.0300
  142OSM   H10F15617   1.668   6.334   7.852 -0.4933 -0.1132 -1.2735
  142OSM   C11F15618   1.629   6.118   7.859  0.1450 -0.3880 -0.2075
  142OSM   H11F15619   1.653   6.027   7.800  0.3822  0.1516 -0.9611
  142OSM   H11G15620   1.518   6.125   7.858  0.0289 -2.0503 -0.8967
  142OSM   C12F15621   1.652   6.113   8.014  0.4499  0.5551 -0.3077
  142OSM   H12F15622   1.659   6.217   8.052  0.0437  0.4883 -0.0469
  142OSM   H12G15623   1.757   6.077   8.027 -0.6004 -2.2799  1.0947
  142OSM   C13F15624   1.544   6.036   8.089  1.0802  0.3482  0.0579
  142OSM   H13F15625   1.528   5.932   8.054 -2.1782  0.9081 -0.4276
  142OSM   H13G15626   1.447   6.090   8.090  0.2171 -0.9551  3.4767
  142OSM   C14F15627   1.570   6.020   8.237  0.3468 -0.1218 -0.1689
  142OSM   H14F15628   1.555   6.116   8.291  2.0256  0.1222 -0.0781
  142OSM   H14G15629   1.679   6.008   8.255  0.7067  1.9847 -0.6354
  142OSM   C15F15630   1.486   5.919   8.325  0.1757 -0.1830  0.0070
  142OSM   H15F15631   1.524   5.818   8.298  0.8296 -0.3072  1.2903
  142OSM   H15G15632   1.378   5.932   8.305  0.0249 -3.5875 -2.3151
  142OSM   C16F15633   1.512   5.941   8.477  0.1255  1.1465  0.4248
  142OSM   H16F15634   1.473   6.043   8.497 -0.0488  1.1843 -0.0890
  142OSM   H16G15635   1.622   5.940   8.495  0.1385 -0.5327  0.4537
  142OSM   C17F15636   1.450   5.838   8.579 -0.1110  0.8353  0.1490
  142OSM   H17F15637   1.494   5.741   8.548  0.1306  1.1730 -0.5876
  142OSM   H17G15638   1.340   5.842   8.563 -0.1147 -1.8015 -0.8750
  142OSM   C18F15639   1.474   5.872   8.728 -0.3741  0.4811  0.2412
  142OSM   H18F15640   1.580   5.905   8.727  1.0182 -3.4142  0.6516
  142OSM   H18G15641   1.476   5.786   8.798 -0.8265  0.2451 -0.0351
  142OSM   H18H15642   1.406   5.948   8.772 -0.0278 -0.2715  2.1742
  143OSM      N15643   1.516   0.462   6.190 -0.0013  0.0476  0.1310
  143OSM    C1515644   1.489   0.382   6.322  0.2192  0.0902  0.2220
  143OSM   H15A15645   1.573   0.398   6.388  1.8061 -1.8604 -1.2090
  143OSM   H15B15646   1.502   0.276   6.312  1.6987  0.3208 -0.4496
  143OSM   H15C15647   1.393   0.405   6.367 -0.8983  0.2756 -2.1298
  143OSM    C1415648   1.414   0.436   6.085 -0.2668 -0.4942 -0.3233
  143OSM   H14A15649   1.396   0.331   6.067 -1.8043 -0.1507 -0.9281
  143OSM   H14B15650   1.453   0.477   5.993  3.0396 -1.4389  0.5178
  143OSM   H14C15651   1.320   0.482   6.113  0.5913  0.4021  1.2434
  143OSM    C1315652   1.508   0.605   6.223  0.1162  0.2622  0.1678
  143OSM   H13A15653   1.585   0.628   6.295 -0.2500 -3.0345  1.8107
  143OSM   H13B15654   1.417   0.642   6.267 -0.8503  0.4069 -1.8553
  143OSM   H13C15655   1.539   0.659   6.135  0.3002  1.4310  0.9245
  143OSM    C1215656   1.657   0.432   6.133  0.2584  0.0859 -0.4083
  143OSM   H12A15657   1.669   0.478   6.036  1.1065 -0.2377 -0.4656
  143OSM   H12B15658   1.652   0.326   6.114 -0.5804 -0.1201  0.8312
  143OSM    C1115659   1.780   0.468   6.216  0.4458 -0.4399 -0.5538
  143OSM   H11A15660   1.764   0.427   6.318  2.8968 -5.0308 -1.7765
  143OSM   H11B15661   1.798   0.578   6.217  0.5036 -0.4513 -0.0557
  143OSM      P15662   1.919   0.247   6.181 -0.0100  0.0646 -0.0017
  143OSM    O1315663   1.795   0.185   6.130 -0.6949  0.8447  1.0419
  143OSM    O1415664   2.048   0.222   6.111 -0.2950 -0.0893 -0.2436
  143OSM    O1115665   1.936   0.215   6.335  0.4942  0.3351  0.1047
  143OSM    O1215666   1.899   0.402   6.178 -0.0703  0.2337 -0.0988
  143OSM    C1S15667   2.034   0.272   6.407  0.6841  0.3969  0.0830
  143OSM    H1S15668   2.034   0.383   6.406  1.7125  0.4100 -0.3502
  143OSM    H1T15669   2.133   0.246   6.364 -0.0152 -1.3861 -0.5258
  143OSM     NF15670   2.115   0.328   6.629 -0.3393 -0.0414 -0.0228
  143OSM    HNF15671   2.209   0.298   6.645 -0.5121 -0.8989 -0.5906
  143OSM    C2S15672   2.024   0.238   6.557 -0.0176  0.8120 -0.4998
  143OSM    H2S15673   1.929   0.254   6.612  0.3469  1.2408  0.0094
  143OSM    C3S15674   2.058   0.087   6.572 -0.7313 -0.0765  0.1460
  143OSM    H3S15675   2.150   0.067   6.513 -1.1773  0.6483 -0.8206
  143OSM     O315676   1.963  -0.001   6.512 -0.7979 -0.4109  0.4693
  143OSM    HO315677   1.912   0.068   6.467  1.5240  0.7185 -0.5934
  143OSM    C4S15678   2.085   0.055   6.721 -0.4916 -0.2752  0.5317
  143OSM    H4S15679   2.189   0.083   6.743 -0.0666  0.3027 -1.8766
  143OSM    C5S15680   1.992   0.015   6.808 -0.0584  0.1695 -0.5440
  143OSM    H5S15681   1.895  -0.019   6.769 -0.0116 -0.5418 -0.0708
  143OSM    C6S15682   2.005  -0.003   6.958 -0.2960 -0.9663 -0.3452
  143OSM    H6S15683   2.087  -0.076   6.976  0.8623  0.6232  1.1482
  143OSM    H6T15684   1.908  -0.040   6.998  0.3742  0.8838  3.4057
  143OSM    C7S15685   2.031   0.119   7.045  0.0268 -0.9343 -0.2043
  143OSM    H7S15686   1.948   0.193   7.045  0.2228 -0.7094 -0.2158
  143OSM    H7T15687   2.115   0.184   7.011 -0.2157  0.3104  1.4405
  143OSM    C8S15688   2.059   0.079   7.188 -0.0627  0.7763  1.0912
  143OSM    H8S15689   2.143   0.006   7.192  1.2198  2.1504  0.3188
  143OSM    H8T15690   1.967   0.036   7.232 -0.4510  3.0286  2.6695
  143OSM    C9S15691   2.088   0.207   7.268  0.8994  0.6088  0.2897
  143OSM    H9S15692   2.004   0.279   7.258  0.5233  0.6195  2.8107
  143OSM    H9T15693   2.179   0.253   7.225  0.5028 -0.7877 -2.2323
  143OSM   C10S15694   2.090   0.180   7.422  0.5517 -0.1612 -0.1470
  143OSM   H10S15695   2.156   0.103   7.466 -0.3723  0.2155  2.0481
  143OSM   H10T15696   1.984   0.154   7.445  0.6982  1.3572  2.7041
  143OSM   C11S15697   2.114   0.316   7.498  0.1704 -0.6206  0.5596
  143OSM   H11S15698   2.056   0.391   7.441 -0.8810 -3.3588 -2.3297
  143OSM   H11T15699   2.219   0.351   7.508 -0.8399  2.8827  0.1719
  143OSM   C12S15700   2.060   0.288   7.639 -0.0344 -0.0012 -0.0269
  143OSM   H12S15701   2.115   0.206   7.690 -0.4951  0.0417  0.5595
  143OSM   H12T15702   1.950   0.267   7.639 -0.6065  2.5886  0.4044
  143OSM   C13S15703   2.074   0.409   7.737  0.0428 -0.1541  0.1857
  143OSM   H13S15704   2.030   0.503   7.696  0.3194  0.6582  1.6771
  143OSM   H13T15705   2.180   0.437   7.751  0.5278 -1.0369 -1.4357
  143OSM   C14S15706   2.006   0.379   7.874  0.3972 -0.2448 -0.1912
  143OSM   H14S15707   2.074   0.306   7.924 -0.0171 -1.3066 -1.1322
  143OSM   H14T15708   1.911   0.322   7.871  0.8900 -1.0839 -0.2286
  143OSM   C15S15709   1.977   0.501   7.954 -0.2716  0.5121 -0.2801
  143OSM   H15S15710   1.920   0.571   7.890 -0.1939  1.3503  0.5477
  143OSM   H15T15711   2.074   0.551   7.974 -0.1769  0.3679 -0.3789
  143OSM   C16S15712   1.914   0.484   8.088 -0.3658  0.9540 -0.9952
  143OSM   H16S15713   1.813   0.442   8.070  0.0497 -1.0518  0.9589
  143OSM   H16T15714   1.905   0.578   8.146 -1.6424  1.0236 -1.2844
  143OSM   C17S15715   1.992   0.374   8.172 -0.2102 -0.0103 -0.0454
  143OSM   H17S15716   2.101   0.393   8.162 -0.4568  0.3710 -3.0164
  143OSM   H17T15717   1.970   0.275   8.128  0.0721 -1.0005  1.9372
  143OSM   C18S15718   1.946   0.371   8.315 -0.4148  0.0939 -0.4511
  143OSM   H18S15719   1.963   0.465   8.372 -0.1570  0.3749 -0.9946
  143OSM   H18T15720   1.997   0.288   8.370 -0.7036 -0.1020 -0.4747
  143OSM   H18U15721   1.838   0.345   8.323 -0.6742  1.5409  2.0692
  143OSM    C1F15722   2.106   0.464   6.631  0.1021  0.9888  0.2538
  143OSM     OF15723   2.005   0.515   6.590 -0.5811  0.1638  0.4271
  143OSM    C2F15724   2.233   0.545   6.651 -0.0937 -0.4622 -0.1660
  143OSM    H2F15725   2.254   0.582   6.549  0.5300 -1.4381 -0.4082
  143OSM    H2G15726   2.323   0.485   6.677  0.1946  0.0185 -0.0451
  143OSM    C3F15727   2.218   0.671   6.748 -0.0366  0.6828 -0.4419
  143OSM    H3F15728   2.125   0.727   6.723 -0.2979  0.6296  0.3821
  143OSM    H3G15729   2.301   0.739   6.721 -0.2303  0.8006 -0.7470
  143OSM    C4F15730   2.222   0.632   6.902  0.1271 -0.4555 -0.1675
  143OSM    H4F15731   2.159   0.540   6.911 -0.4928 -0.3452 -2.5319
  143OSM    H4G15732   2.185   0.717   6.962  1.0010  0.2720 -0.6438
  143OSM    C5F15733   2.363   0.587   6.959 -0.3185  0.5286  0.1637
  143OSM    H5F15734   2.438   0.667   6.940  0.2689  0.3891  1.7338
  143OSM    H5G15735   2.403   0.501   6.901 -1.0386  0.6340 -0.5064
  143OSM    C6F15736   2.366   0.560   7.108 -0.2405  0.2440  0.6241
  143OSM    H6F15737   2.464   0.524   7.146 -0.9969  0.0537  2.5143
  143OSM    H6G15738   2.304   0.473   7.140 -1.0539  0.1630 -1.1023
  143OSM    C7F15739   2.326   0.681   7.190  0.5381 -0.4127 -0.3029
  143OSM    H7F15740   2.228   0.659   7.237  0.5564 -0.5235 -0.3159
  143OSM    H7G15741   2.303   0.775   7.136 -0.8792 -1.0724 -0.8842
  143OSM    C8F15742   2.427   0.726   7.301  0.3116  0.4805 -1.0519
  143OSM    H8F15743   2.512   0.769   7.244 -2.2920  2.3394 -3.8686
  143OSM    H8G15744   2.462   0.636   7.357 -0.8985  0.9588  0.5566
  143OSM    C9F15745   2.364   0.825   7.398  0.4577  0.1608  0.4681
  143OSM    H9F15746   2.281   0.890   7.364 -0.1238  0.5886  2.5334
  143OSM   C10F15747   2.397   0.842   7.522 -0.5747  1.1339 -0.2144
  143OSM   H10F15748   2.344   0.923   7.573 -2.0750  1.5083 -2.2430
  143OSM   C11F15749   2.508   0.773   7.603  0.2467  0.2286 -0.1957
  143OSM   H11F15750   2.555   0.844   7.674  1.8387 -1.4608  0.5213
  143OSM   H11G15751   2.590   0.731   7.541  0.4311 -1.2769  1.0167
  143OSM   C12F15752   2.462   0.655   7.695  0.4720  0.3284 -0.7240
  143OSM   H12F15753   2.538   0.575   7.691 -0.7031 -0.8913  0.3194
  143OSM   H12G15754   2.364   0.610   7.668 -0.4416  0.8517  1.4448
  143OSM   C13F15755   2.455   0.707   7.837 -0.0591  0.0895  0.0056
  143OSM   H13F15756   2.436   0.816   7.842 -0.8899 -0.0464 -0.0466
  143OSM   H13G15757   2.562   0.699   7.868  0.0060  2.9670  0.8206
  143OSM   C14F15758   2.372   0.618   7.930 -0.7915  0.1390  0.2275
  143OSM   H14F15759   2.413   0.515   7.925  0.2601  0.6034 -1.9528
  143OSM   H14G15760   2.265   0.616   7.899 -0.4841 -5.1150 -1.4432
  143OSM   C15F15761   2.385   0.671   8.078  0.1691 -0.6842  0.2487
  143OSM   H15F15762   2.311   0.606   8.130  0.0015  0.2503  1.2070
  143OSM   H15G15763   2.346   0.775   8.077  1.2277 -0.2765 -0.7189
  143OSM   C16F15764   2.519   0.659   8.148 -0.5420 -0.9216  0.1615
  143OSM   H16F15765   2.599   0.707   8.087 -1.7415  0.0207 -0.7354
  143OSM   H16G15766   2.549   0.554   8.166 -1.3053 -1.3181 -0.8584
  143OSM   C17F15767   2.538   0.736   8.284 -0.5744  0.2527  0.9557
  143OSM   H17F15768   2.529   0.844   8.259 -1.9349 -0.2514 -0.9398
  143OSM   H17G15769   2.645   0.733   8.313 -0.7455 -1.3797  1.5358
  143OSM   C18F15770   2.444   0.688   8.387 -0.5811 -0.2702 -0.3110
  143OSM   H18F15771   2.337   0.714   8.378 -0.4450  0.8215  0.9128
  143OSM   H18G15772   2.468   0.732   8.486 -3.2056  0.0261  0.2594
  143OSM   H18H15773   2.438   0.577   8.393 -1.3982 -0.2603 -0.8104
  144OSM      N15774   1.190   2.141   6.343 -0.7539 -0.0906 -0.3570
  144OSM    C1515775   1.125   2.222   6.242  0.3589 -0.4865 -0.0286
  144OSM   H15A15776   1.107   2.170   6.149  1.7668 -1.3333  0.1294
  144OSM   H15B15777   1.188   2.305   6.214  0.1201 -0.8255 -1.6804
  144OSM   H15C15778   1.040   2.270   6.286  0.0599 -0.6249 -0.4519
  144OSM    C1415779   1.316   2.091   6.278  0.0155  0.1229 -0.0187
  144OSM   H14A15780   1.365   2.029   6.351 -1.2665  1.2432  1.8902
  144OSM   H14B15781   1.380   2.171   6.245  0.0748  0.3364  0.5934
  144OSM   H14C15782   1.281   2.036   6.192 -0.6974 -1.9970  1.5326
  144OSM    C1315783   1.230   2.235   6.458 -0.6341  0.0066 -0.5278
  144OSM   H13A15784   1.284   2.325   6.431 -1.6353  1.7301  2.7171
  144OSM   H13B15785   1.301   2.187   6.524 -2.2834 -0.5876  0.8782
  144OSM   H13C15786   1.141   2.276   6.503 -1.4344 -0.1396 -1.8960
  144OSM    C1215787   1.090   2.039   6.388  0.3714 -0.3257  0.3864
  144OSM   H12A15788   1.037   1.999   6.302 -0.2147  2.9271 -0.9512
  144OSM   H12B15789   1.016   2.091   6.448 -0.0332  0.6174 -0.8769
  144OSM    C1115790   1.147   1.921   6.464 -0.2457 -0.1223  0.6436
  144OSM   H11A15791   1.063   1.860   6.503 -1.0028  0.1898 -0.4644
  144OSM   H11B15792   1.199   1.946   6.560 -0.6462  1.6359  0.4450
  144OSM      P15793   1.203   1.745   6.276  0.1173  0.7866 -0.1688
  144OSM    O1315794   1.116   1.812   6.178  0.4451 -0.1179 -0.0625
  144OSM    O1415795   1.325   1.671   6.223  0.0144 -0.1184 -0.2642
  144OSM    O1115796   1.122   1.634   6.357 -0.3086  0.4244 -0.0593
  144OSM    O1215797   1.246   1.846   6.387  0.1645 -0.5858 -0.4791
  144OSM    C1S15798   1.191   1.584   6.472  0.0765  0.7680 -0.0549
  144OSM    H1S15799   1.219   1.656   6.552  0.3034 -1.8824  2.3888
  144OSM    H1T15800   1.286   1.531   6.452 -0.1490 -1.3494  3.5958
  144OSM     NF15801   1.138   1.441   6.678  0.6391 -0.1176 -0.6786
  144OSM    HNF15802   1.195   1.362   6.698  0.6720  0.1281  0.2561
  144OSM    C2S15803   1.093   1.478   6.545  0.2148 -0.3889  0.3912
  144OSM    H2S15804   1.007   1.547   6.560 -0.5018 -1.3288  0.7467
  144OSM    C3S15805   1.047   1.365   6.445  0.6328 -0.6919 -0.6915
  144OSM    H3S15806   1.134   1.318   6.394  0.4054 -1.6311 -0.2300
  144OSM     O315807   0.965   1.413   6.337 -0.0675  0.1852 -0.0686
  144OSM    HO315808   0.991   1.506   6.341  0.2369  0.1975 -1.7194
  144OSM    C4S15809   0.963   1.264   6.514  0.3010 -0.2350 -1.3542
  144OSM    H4S15810   0.858   1.296   6.525  1.1683  2.0700  1.2547
  144OSM    C5S15811   1.010   1.148   6.559  0.9379  0.0827 -0.2022
  144OSM    H5S15812   1.112   1.127   6.523  0.5125 -0.8204 -0.9220
  144OSM    C6S15813   0.935   1.045   6.636  0.7136 -0.0109  0.5772
  144OSM    H6S15814   0.951   0.946   6.589  0.2840  0.5711 -0.8351
  144OSM    H6T15815   0.826   1.066   6.651  0.3505  0.2807 -2.0773
  144OSM    C7S15816   0.991   1.031   6.781  0.2798  0.6507  0.2424
  144OSM    H7S15817   1.100   1.015   6.766 -0.2563 -2.8426 -0.7925
  144OSM    H7T15818   0.944   0.940   6.824 -0.7277  0.6089 -0.9264
  144OSM    C8S15819   0.971   1.141   6.885  0.0790  0.0716 -0.4162
  144OSM    H8S15820   0.861   1.156   6.887 -0.0759 -1.0875  0.9971
  144OSM    H8T15821   1.017   1.234   6.844  1.4390 -0.6652 -0.6211
  144OSM    C9S15822   1.019   1.108   7.032  0.3205  0.3684  0.2361
  144OSM    H9S15823   1.129   1.121   7.035  0.4960 -0.2344 -1.8136
  144OSM    H9T15824   0.988   1.002   7.047  0.1470  0.4095  0.1735
  144OSM   C10S15825   0.955   1.191   7.142  0.1203 -0.1279  0.0854
  144OSM   H10S15826   0.845   1.194   7.160  0.5630  0.0380  3.2854
  144OSM   H10T15827   0.975   1.297   7.113 -1.9454  0.0400 -0.9306
  144OSM   C11S15828   1.024   1.158   7.273 -0.3773 -0.5976  0.5059
  144OSM   H11S15829   1.134   1.151   7.262 -0.4017  0.4188 -0.5952
  144OSM   H11T15830   0.980   1.060   7.301  1.2818 -1.9389 -1.3008
  144OSM   C12S15831   0.988   1.268   7.373 -0.1888 -0.0081 -0.3964
  144OSM   H12S15832   0.877   1.270   7.370 -0.3070 -0.9653  1.5648
  144OSM   H12T15833   1.028   1.368   7.343 -0.5935  0.0010 -0.9007
  144OSM   C13S15834   1.023   1.227   7.519 -0.3440  1.0671 -0.6528
  144OSM   H13S15835   1.132   1.205   7.520  0.1294  3.1209 -1.7938
  144OSM   H13T15836   0.977   1.131   7.551 -0.1327  0.5358 -1.9160
  144OSM   C14S15837   0.999   1.344   7.617 -0.4039 -0.5381 -0.5536
  144OSM   H14S15838   0.889   1.348   7.606 -0.2752 -2.8918 -5.3204
  144OSM   H14T15839   1.032   1.446   7.585 -2.2134  0.5696  0.9310
  144OSM   C15S15840   1.014   1.318   7.766 -0.3407 -0.2253 -0.2684
  144OSM   H15S15841   1.118   1.341   7.798  0.1750 -4.1949  1.5748
  144OSM   H15T15842   1.003   1.208   7.779  1.4305 -0.7025 -2.1184
  144OSM   C16S15843   0.921   1.400   7.863 -0.1889 -0.3905 -0.8264
  144OSM   H16S15844   0.945   1.384   7.970 -0.1669  1.6674 -0.4786
  144OSM   H16T15845   0.818   1.361   7.848 -0.5379  0.7460 -1.5185
  144OSM   C17S15846   0.926   1.550   7.833  0.1173 -0.1642  0.7991
  144OSM   H17S15847   0.929   1.575   7.725  1.4930  1.2110  1.1069
  144OSM   H17T15848   1.029   1.585   7.858  0.4762 -0.3304 -0.3904
  144OSM   C18S15849   0.817   1.637   7.902 -0.2233 -0.7628  0.2776
  144OSM   H18S15850   0.839   1.676   8.003 -2.0636 -0.7164  0.6970
  144OSM   H18T15851   0.721   1.581   7.896 -1.3157  0.8759  1.6210
  144OSM   H18U15852   0.815   1.732   7.843 -0.2158  0.0864  1.6120
  144OSM    C1F15853   1.147   1.534   6.773 -0.3157  0.5001 -0.3115
  144OSM     OF15854   1.093   1.639   6.760 -0.0012 -0.2196 -0.6186
  144OSM    C2F15855   1.247   1.503   6.876  0.4014 -0.4111 -0.7700
  144OSM    H2F15856   1.348   1.486   6.834  0.1108  1.8800 -2.5923
  144OSM    H2G15857   1.216   1.406   6.922 -3.4396  1.8140  1.9491
  144OSM    C3F15858   1.246   1.596   7.004 -0.0946 -0.0928  0.4271
  144OSM    H3F15859   1.140   1.599   7.037 -0.3243  0.0503 -0.3084
  144OSM    H3G15860   1.281   1.697   6.974 -0.3787 -0.0972  0.0793
  144OSM    C4F15861   1.347   1.551   7.108 -0.0704  0.1607 -0.5610
  144OSM    H4F15862   1.441   1.518   7.058  0.4617 -0.6868  0.9494
  144OSM    H4G15863   1.308   1.469   7.171 -0.0037 -0.6723 -1.5637
  144OSM    C5F15864   1.397   1.661   7.205 -0.5755  0.0883  0.5104
  144OSM    H5F15865   1.430   1.751   7.149 -0.3831 -0.7382 -0.7385
  144OSM    H5G15866   1.485   1.626   7.263  2.1696  2.9546 -1.5776
  144OSM    C6F15867   1.286   1.701   7.299  0.8723  0.0292 -0.1902
  144OSM    H6F15868   1.195   1.706   7.237 -0.4606  2.2354  1.7971
  144OSM    H6G15869   1.308   1.801   7.341 -1.7591  0.3113  0.6397
  144OSM    C7F15870   1.246   1.612   7.420 -0.3427 -0.9395 -0.7040
  144OSM    H7F15871   1.239   1.507   7.385 -3.1282 -0.6447 -1.2458
  144OSM    H7G15872   1.148   1.649   7.457  0.8688  2.4803 -0.5417
  144OSM    C8F15873   1.354   1.630   7.524  0.2126  0.0789  0.2566
  144OSM    H8F15874   1.454   1.640   7.477 -0.6413 -1.7869 -2.2532
  144OSM    H8G15875   1.359   1.533   7.579 -1.0640 -1.1700 -1.6810
  144OSM    C9F15876   1.327   1.747   7.615  0.0350 -0.1970 -0.5340
  144OSM    H9F15877   1.328   1.839   7.555  1.5949  0.0636 -0.1621
  144OSM   C10F15878   1.323   1.747   7.748 -0.7257 -0.6219 -0.0125
  144OSM   H10F15879   1.314   1.844   7.799 -0.0482 -1.0609  0.9838
  144OSM   C11F15880   1.325   1.624   7.838  0.6059  0.6518 -0.0534
  144OSM   H11F15881   1.428   1.585   7.857 -0.7595 -2.4829  1.8014
  144OSM   H11G15882   1.269   1.541   7.790  0.6380  0.5768  0.0382
  144OSM   C12F15883   1.278   1.651   7.982  0.1961  0.2727 -0.9098
  144OSM   H12F15884   1.174   1.688   7.977  0.8244  2.9142  2.0002
  144OSM   H12G15885   1.333   1.737   8.026 -0.5650  0.7889 -0.9587
  144OSM   C13F15886   1.294   1.532   8.081  0.4173 -0.0179  0.7073
  144OSM   H13F15887   1.399   1.514   8.113  0.5781 -2.0299 -0.7704
  144OSM   H13G15888   1.257   1.444   8.024  2.2295  0.2433 -0.9825
  144OSM   C14F15889   1.209   1.536   8.210  0.2626  0.3740  0.2789
  144OSM   H14F15890   1.107   1.575   8.186 -0.6428 -2.5940 -1.1615
  144OSM   H14G15891   1.271   1.592   8.283  2.1045  1.9867 -2.3661
  144OSM   C15F15892   1.176   1.398   8.264  0.5453  0.5499 -0.1093
  144OSM   H15F15893   1.263   1.344   8.306 -1.2517 -0.2670  2.9472
  144OSM   H15G15894   1.123   1.329   8.196 -1.6214 -0.6756  2.5854
  144OSM   C16F15895   1.083   1.399   8.386 -0.2863  0.1912 -0.1525
  144OSM   H16F15896   0.990   1.455   8.366  0.9822  2.2030 -0.7190
  144OSM   H16G15897   1.132   1.464   8.462 -0.2118 -0.4173  0.3331
  144OSM   C17F15898   1.058   1.249   8.432 -0.0803 -0.6824 -0.3349
  144OSM   H17F15899   1.155   1.206   8.463 -0.1376 -0.6080 -0.0487
  144OSM   H17G15900   1.026   1.197   8.339 -1.0769 -0.4955 -0.1074
  144OSM   C18F15901   0.950   1.246   8.548 -0.0323  0.3526 -0.1681
  144OSM   H18F15902   0.850   1.289   8.530 -0.2786 -0.2170 -0.1993
  144OSM   H18G15903   0.992   1.293   8.639  1.2128  0.0215 -0.5369
  144OSM   H18H15904   0.932   1.140   8.578  0.8403  0.5176  1.0283
  145SAPE     N15905   6.513   1.443  10.746  0.1074  0.0385 -0.1626
  145SAPE   HN115906   6.584   1.399  10.808 -0.8799  0.8964  1.6622
  145SAPE   HN215907   6.518   1.545  10.765  3.7827 -0.3995  2.4250
  145SAPE   HN315908   6.421   1.411  10.782  0.4603 -0.4075  0.3714
  145SAPE   C1215909   6.528   1.422  10.601  0.0500  0.2168  0.3680
  145SAPE  H12A15910   6.437   1.441  10.540 -0.2883 -1.8269  0.1698
  145SAPE  H12B15911   6.545   1.313  10.587  0.1398  0.3071 -0.2547
  145SAPE   C1115912   6.649   1.500  10.531  0.2902  0.0730  0.3033
  145SAPE  H11A15913   6.661   1.463  10.427  2.1326  0.6836  0.2725
  145SAPE  H11B15914   6.741   1.480  10.590  0.4094  1.8541  0.7949
  145SAPE     P15915   6.659   1.736  10.635  0.1681 -0.2993  0.0176
  145SAPE   O1315916   6.585   1.862  10.612  0.0457 -0.5880 -0.5413
  145SAPE   O1415917   6.648   1.669  10.762 -0.0569  0.1725  0.2313
  145SAPE   O1215918   6.616   1.634  10.526  0.2600  0.0100  0.1458
  145SAPE   O1115919   6.812   1.756  10.608 -0.3038 -0.4474  0.6165
  145SAPE    C115920   6.859   1.888  10.567 -0.0933 -0.2070 -0.0957
  145SAPE    HA15921   6.835   1.963  10.646 -0.8480 -0.3186 -0.2033
  145SAPE    HB15922   6.968   1.875  10.554 -0.0969  0.5321 -0.9664
  145SAPE    C215923   6.807   1.955  10.437 -0.7128  0.1288  0.6356
  145SAPE    HS15924   6.696   1.957  10.444 -0.6910 -1.2748  1.7419
  145SAPE   O2115925   6.820   1.871  10.324  0.3666  0.4644  0.6241
  145SAPE   C2115926   6.938   1.856  10.271 -0.5330  0.0765 -0.0072
  145SAPE   O2215927   7.041   1.911  10.298  0.4722 -0.4706  0.1898
  145SAPE   C2215928   6.929   1.737  10.171  0.0896 -0.1784  0.0515
  145SAPE   H2R15929   6.933   1.640  10.225  2.6243 -0.5276 -0.6183
  145SAPE   H2S15930   6.832   1.747  10.120  0.0534  0.6209  0.2704
  145SAPE    C315931   6.856   2.097  10.424 -0.4282  0.0098  0.0882
  145SAPE    HX15932   6.967   2.097  10.437 -0.3107 -1.3111 -0.7170
  145SAPE    HY15933   6.815   2.156  10.509  1.3414 -1.0626  1.7796
  145SAPE   O3115934   6.829   2.157  10.299 -0.2850 -0.2444 -0.1957
  145SAPE   C3115935   6.705   2.192  10.277 -0.1033  0.4554  0.1812
  145SAPE   O3215936   6.612   2.196  10.356 -0.3556 -0.3067 -0.5008
  145SAPE   C3215937   6.681   2.213  10.121  0.5857 -0.4648  0.5275
  145SAPE   H2X15938   6.662   2.321  10.110 -2.5223 -0.9560  0.3202
  145SAPE   H2Y15939   6.591   2.154  10.092 -1.2577  1.6463  1.6808
  145SAPE   C2315940   7.044   1.746  10.066 -0.6379  0.3267  0.0761
  145SAPE   H3R15941   7.019   1.663   9.996 -2.8243  1.3826 -0.4951
  145SAPE   H3S15942   7.145   1.718  10.103  0.3818 -0.5817 -3.0370
  145SAPE   C2415943   7.036   1.879   9.996  0.1584  0.1876 -0.0003
  145SAPE   H4R15944   7.011   1.954  10.074  2.2770  0.2074  0.6947
  145SAPE   H4S15945   6.944   1.874   9.933 -0.3423 -0.2512  0.7418
  145SAPE   C2515946   7.165   1.922   9.932  0.0665 -0.5264  0.0791
  145SAPE   H5R15947   7.243   1.960   9.999 -0.2214  1.9992 -0.9038
  145SAPE   C2615948   7.191   1.926   9.801  0.2387  0.0802 -0.9429
  145SAPE   H6R15949   7.294   1.957   9.775  0.5461 -1.1150 -1.2100
  145SAPE   C2715950   7.099   1.890   9.690  0.4440 -0.2022 -0.6593
  145SAPE   H7R15951   7.034   1.979   9.675  0.1915 -0.0031  1.4062
  145SAPE   H7S15952   7.032   1.808   9.725  0.5087 -1.1343 -2.5695
  145SAPE   C2815953   7.168   1.846   9.558 -0.4159 -0.7922 -0.8505
  145SAPE   H8R15954   7.239   1.762   9.563 -1.2194 -1.4004  1.9981
  145SAPE   C2915955   7.151   1.905   9.437 -0.6295  0.7469  0.0465
  145SAPE   H9R15956   7.200   1.845   9.359 -1.3979 -0.1226  0.2126
  145SAPE  C21015957   7.059   2.018   9.406  0.0394  0.2611 -0.5630
  145SAPE  H10R15958   7.114   2.114   9.395  1.8228 -0.7448 -0.9174
  145SAPE  H10S15959   6.979   2.025   9.483 -1.5008 -3.4109 -1.6636
  145SAPE  C21115960   6.989   1.981   9.280  0.1439  0.3246 -0.1998
  145SAPE  H11R15961   6.881   1.960   9.283  0.1121  0.4973 -0.0835
  145SAPE  C21215962   7.037   1.985   9.154  0.3078  0.5308  0.0456
  145SAPE  H12R15963   6.976   1.958   9.067  0.7853  2.3362 -0.9031
  145SAPE  C21315964   7.168   2.027   9.114 -0.5789 -0.4164  0.5356
  145SAPE  H13R15965   7.244   2.015   9.195  0.6393 -0.2826 -0.5482
  145SAPE  H13S15966   7.172   2.133   9.084 -3.1221 -0.7727 -1.3662
  145SAPE  C21415967   7.222   1.944   9.003 -0.3007 -0.9496  0.9669
  145SAPE  H14R15968   7.205   1.837   9.019 -0.3085 -0.8412  1.7011
  145SAPE  C21515969   7.274   1.989   8.885 -0.3358  1.1910 -0.7545
  145SAPE  H15R15970   7.321   1.915   8.819 -3.1142 -1.5868  0.1820
  145SAPE  C21615971   7.284   2.131   8.834 -0.4173  0.1131 -0.1089
  145SAPE  H16R15972   7.388   2.167   8.821 -1.1417  1.5758 -2.5226
  145SAPE  H16S15973   7.243   2.206   8.905 -2.0061 -0.7238 -0.0908
  145SAPE  C21715974   7.212   2.136   8.701  0.2246  0.3620  0.1340
  145SAPE  H17R15975   7.214   2.241   8.663  0.2378  0.5315  0.5993
  145SAPE  H17S15976   7.107   2.114   8.727  0.4782 -0.9106  0.1647
  145SAPE  C21815977   7.262   2.047   8.592  0.4279 -0.4786 -0.1789
  145SAPE  H18R15978   7.231   1.943   8.616 -0.1730  0.3662  3.1674
  145SAPE  H18S15979   7.373   2.052   8.587  0.4044 -0.0903 -0.3581
  145SAPE  C21915980   7.226   2.100   8.451  0.2538 -0.2798 -0.4581
  145SAPE  H19R15981   7.246   2.210   8.446 -2.1553  0.3374  1.6488
  145SAPE  H19S15982   7.116   2.097   8.442  0.0491  3.1450 -0.4749
  145SAPE  C22015983   7.294   2.025   8.337  0.0752 -0.0675  0.5548
  145SAPE  H20R15984   7.405   2.026   8.338  0.1743 -2.5482 -0.0725
  145SAPE  H20S15985   7.255   2.066   8.242 -0.1633  0.9850  1.0936
  145SAPE  H20T15986   7.260   1.919   8.340 -1.3259  0.2726 -1.2869
  145SAPE   C3315987   6.808   2.195  10.037  0.5364 -0.3215  0.5863
  145SAPE   H3X15988   6.858   2.099  10.063  0.3364 -0.0809  1.9246
  145SAPE   H3Y15989   6.874   2.280  10.064  0.5775 -0.2944  0.4034
  145SAPE   C3415990   6.790   2.206   9.884  0.3386  0.1417 -0.3910
  145SAPE   H4X15991   6.886   2.216   9.830  0.7879 -0.5417  0.2516
  145SAPE   H4Y15992   6.720   2.292   9.874  1.2672  1.1067  1.0216
  145SAPE   C3515993   6.710   2.084   9.821 -0.4115 -0.5953 -0.1114
  145SAPE   H5X15994   6.617   2.080   9.881 -0.8397  4.3400 -0.0051
  145SAPE   H5Y15995   6.755   1.982   9.825  0.1033 -0.4703 -1.8072
  145SAPE   C3615996   6.664   2.109   9.678 -0.6517  0.3039  0.0095
  145SAPE   H6X15997   6.754   2.107   9.612 -0.2689 -0.4002  0.5340
  145SAPE   H6Y15998   6.606   2.203   9.671 -1.3066 -0.0393  0.7207
  145SAPE   C3715999   6.565   2.004   9.619  0.3389 -0.1020  0.1553
  145SAPE   H7X16000   6.488   1.995   9.698  0.1919  1.1772  0.1771
  145SAPE   H7Y16001   6.612   1.903   9.621 -0.2872 -0.4741 -1.8959
  145SAPE   C3816002   6.508   2.039   9.485 -0.4875 -0.4610  0.8871
  145SAPE   H8X16003   6.461   2.140   9.484  0.1031 -0.1736  1.1267
  145SAPE   H8Y16004   6.441   1.956   9.454 -0.8929  0.5568 -1.1479
  145SAPE   C3916005   6.614   2.035   9.370 -0.5679 -0.1623  0.0565
  145SAPE   H9X16006   6.650   1.930   9.380 -2.4959 -0.9126 -0.3835
  145SAPE   H9Y16007   6.695   2.109   9.386 -0.8041 -0.1807  1.4736
  145SAPE  C31016008   6.548   2.042   9.228 -0.0796 -0.4982  0.3484
  145SAPE  H10X16009   6.503   2.142   9.212  4.2414  2.4529  4.1634
  145SAPE  H10Y16010   6.479   1.955   9.221  0.6285 -1.4025  3.2618
  145SAPE  C31116011   6.657   2.033   9.118  0.8395 -0.3186  0.0472
  145SAPE  H11X16012   6.703   1.932   9.121  2.7498  0.3943 -2.0395
  145SAPE  H11Y16013   6.731   2.109   9.152  0.0791 -0.1242  1.3077
  145SAPE  C31216014   6.608   2.091   8.987 -0.6731 -0.4414  0.2169
  145SAPE  H12X16015   6.695   2.127   8.929 -0.9514 -0.3849 -0.1719
  145SAPE  H12Y16016   6.547   2.182   9.002 -1.7472 -1.0981  0.0082
  145SAPE  C31316017   6.534   1.985   8.902 -0.1533  0.4414 -0.3686
  145SAPE  H13X16018   6.453   1.939   8.963 -0.3999 -0.9948 -1.7003
  145SAPE  H13Y16019   6.606   1.903   8.882 -0.3069  0.2285 -0.0635
  145SAPE  C31416020   6.493   2.031   8.765 -0.4632  0.1731  0.3812
  145SAPE  H14X16021   6.410   2.104   8.750 -0.0515  0.2349 -2.1498
  145SAPE  H14Y16022   6.451   1.942   8.713 -0.7396  0.0755  0.7668
  145SAPE  C31516023   6.612   2.082   8.674 -0.6399 -0.2493 -0.2100
  145SAPE  H15X16024   6.712   2.053   8.710  0.4688  1.1637 -1.9682
  145SAPE  H15Y16025   6.602   2.193   8.675  1.4163 -0.0071  2.2896
  145SAPE  C31616026   6.604   2.034   8.526  0.3703 -0.0244  0.0603
  145SAPE  H16X16027   6.521   2.089   8.476 -0.4762  0.8834  2.3134
  145SAPE  H16Y16028   6.586   1.925   8.528  1.5348 -0.2106  1.4745
  145SAPE  C31716029   6.734   2.041   8.447 -0.1597  0.1949 -0.2939
  145SAPE  H17X16030   6.818   1.994   8.502 -0.1709 -0.2992 -0.6927
  145SAPE  H17Y16031   6.771   2.145   8.442  1.5363 -0.2291  1.8039
  145SAPE  C31816032   6.736   1.972   8.312 -0.0047  0.1636  0.0473
  145SAPE  H18X16033   6.705   1.866   8.320  0.5687 -0.0104  0.0597
  145SAPE  H18Y16034   6.840   1.962   8.273  0.2538 -1.2085  1.0117
  145SAPE  H18Z16035   6.669   2.028   8.243  0.8571  2.0735  0.6846
  146SAPE     N16036   5.070   3.664  10.491 -0.1965 -0.3134  0.0551
  146SAPE   HN116037   5.106   3.573  10.524  0.1973 -0.3681 -0.5053
  146SAPE   HN216038   4.981   3.646  10.441  0.1481 -0.4126 -0.5416
  146SAPE   HN316039   5.133   3.712  10.422 -0.5914 -0.8638 -0.7016
  146SAPE   C1216040   5.045   3.766  10.599  0.4606 -0.3532  0.3011
  146SAPE  H12A16041   4.995   3.849  10.545 -2.0843 -2.5484 -0.9433
  146SAPE  H12B16042   5.142   3.795  10.646  0.1272 -2.1633  2.3134
  146SAPE   C1116043   4.958   3.729  10.718  0.1504 -0.3988  0.4500
  146SAPE  H11A16044   4.857   3.705  10.678 -0.3793  1.4163  0.6506
  146SAPE  H11B16045   4.934   3.813  10.786 -1.5676  0.5785 -1.2617
  146SAPE     P16046   4.947   3.560  10.919  0.2194  0.2902 -0.2369
  146SAPE   O1316047   5.057   3.532  11.015 -0.0588  0.2828  0.1000
  146SAPE   O1416048   4.834   3.654  10.961 -0.3583  0.2292  0.5937
  146SAPE   O1216049   5.016   3.615  10.784 -0.1724  0.1747  0.0646
  146SAPE   O1116050   4.878   3.417  10.884  0.3296 -0.6107 -0.1352
  146SAPE    C116051   4.769   3.420  10.794  0.2145  0.0806  1.0530
  146SAPE    HA16052   4.710   3.514  10.794 -2.1623 -1.2981 -1.0652
  146SAPE    HB16053   4.807   3.419  10.690 -1.7831 -1.0259  0.2834
  146SAPE    C216054   4.667   3.314  10.819 -0.3005 -0.0104  0.2089
  146SAPE    HS16055   4.638   3.325  10.926 -0.7558  0.6666  0.0231
  146SAPE   O2116056   4.734   3.190  10.788 -0.7542  0.6947  0.2729
  146SAPE   C2116057   4.692   3.088  10.863  0.4941  0.2420 -0.7322
  146SAPE   O2216058   4.603   3.093  10.948  0.1135  0.1342 -0.0321
  146SAPE   C2216059   4.795   2.979  10.842 -0.4226 -0.0059  0.1699
  146SAPE   H2R16060   4.824   2.995  10.736 -2.5253  0.2706 -0.4059
  146SAPE   H2S16061   4.876   2.982  10.918 -0.9328 -1.3823  0.8117
  146SAPE    C316062   4.536   3.332  10.749 -0.2168 -0.3860  0.0041
  146SAPE    HX16063   4.486   3.426  10.782 -0.6210 -0.3847 -0.5857
  146SAPE    HY16064   4.468   3.250  10.781 -1.0036  0.5749  0.8832
  146SAPE   O3116065   4.548   3.331  10.601  0.0253  0.2914 -0.5941
  146SAPE   C3116066   4.502   3.442  10.533 -0.3489  0.6278 -0.3783
  146SAPE   O3216067   4.454   3.542  10.586  0.3332  0.0381  0.0932
  146SAPE   C3216068   4.533   3.413  10.392  0.1580 -0.4435 -0.6010
  146SAPE   H2X16069   4.470   3.328  10.358 -0.8952  0.2231 -0.3615
  146SAPE   H2Y16070   4.638   3.380  10.373 -0.5095 -1.7078 -2.3747
  146SAPE   C2316071   4.731   2.840  10.861  0.6780 -0.3340  0.2254
  146SAPE   H3R16072   4.680   2.835  10.959  0.1153 -0.1493 -0.0505
  146SAPE   H3S16073   4.803   2.757  10.851  1.9570  0.6279  1.1079
  146SAPE   C2416074   4.627   2.805  10.752 -0.0665 -0.1375  0.1941
  146SAPE   H4R16075   4.550   2.885  10.755  0.9144  0.8602 -0.6109
  146SAPE   H4S16076   4.576   2.710  10.781 -0.1592  0.4133  1.9861
  146SAPE   C2516077   4.695   2.795  10.623 -0.0130 -0.4784  0.5954
  146SAPE   H5R16078   4.761   2.708  10.612 -0.3399 -0.5949 -0.5089
  146SAPE   C2616079   4.670   2.865  10.511 -0.0318 -0.3009 -0.1808
  146SAPE   H6R16080   4.729   2.843  10.420  2.5940 -1.3376  1.6584
  146SAPE   C2716081   4.562   2.960  10.483 -0.2352  0.1604 -0.1108
  146SAPE   H7R16082   4.532   3.017  10.574  1.0005  1.9987 -0.8158
  146SAPE   H7S16083   4.474   2.904  10.446  1.4723 -0.9940 -2.7238
  146SAPE   C2816084   4.601   3.054  10.370 -0.4702  0.3050  0.2387
  146SAPE   H8R16085   4.650   3.144  10.410  1.7308 -0.1316 -1.2890
  146SAPE   C2916086   4.600   3.034  10.235 -0.3513  0.0295 -0.3785
  146SAPE   H9R16087   4.643   3.114  10.172 -0.5763 -0.8840 -1.7311
  146SAPE  C21016088   4.549   2.914  10.157  0.7207 -0.2788  0.2139
  146SAPE  H10R16089   4.535   2.832  10.232 -1.7055  0.7062  0.9413
  146SAPE  H10S16090   4.628   2.879  10.087  0.2475  0.9251 -0.9524
  146SAPE  C21116091   4.415   2.948  10.088 -0.1664  0.4036 -0.1434
  146SAPE  H11R16092   4.329   2.962  10.154 -0.7608  1.2599 -1.0695
  146SAPE  C21216093   4.400   2.947   9.954  0.1697 -0.2313 -0.0583
  146SAPE  H12R16094   4.297   2.956   9.918 -1.1516 -2.1148  2.8912
  146SAPE  C21316095   4.515   2.926   9.864 -0.3358  0.6608  0.3818
  146SAPE  H13R16096   4.477   2.850   9.792 -1.4196 -0.6979  2.2651
  146SAPE  H13S16097   4.596   2.861   9.904  1.1900  0.4597 -2.7612
  146SAPE  C21416098   4.570   3.051   9.817 -0.2646 -0.1687  0.3311
  146SAPE  H14R16099   4.621   3.106   9.898  0.4859  0.4064 -0.5126
  146SAPE  C21516100   4.550   3.124   9.700 -0.0302 -0.1172  0.3136
  146SAPE  H15R16101   4.603   3.218   9.680  1.6562 -1.2953 -1.0423
  146SAPE  C21616102   4.451   3.092   9.590 -0.4977  0.5048 -0.8159
  146SAPE  H16R16103   4.358   3.153   9.588  0.1645  1.5565 -0.0513
  146SAPE  H16S16104   4.400   2.995   9.610  0.3628  0.4713  1.5729
  146SAPE  C21716105   4.512   3.092   9.444  0.1414 -0.1032 -0.6657
  146SAPE  H17R16106   4.590   3.013   9.444 -1.9016 -2.2336  0.5705
  146SAPE  H17S16107   4.555   3.189   9.409 -0.0121  0.3142  0.2692
  146SAPE  C21816108   4.398   3.049   9.349  0.8357 -0.7303  0.2172
  146SAPE  H18R16109   4.309   3.105   9.386  0.5090  1.4565 -3.3712
  146SAPE  H18S16110   4.374   2.941   9.341  0.1056 -0.4482 -2.1416
  146SAPE  C21916111   4.429   3.087   9.201  1.4115 -0.1998  0.5595
  146SAPE  H19R16112   4.526   3.039   9.177  2.2470  2.1514 -1.1993
  146SAPE  H19S16113   4.442   3.197   9.214  1.6948 -0.1297 -0.2730
  146SAPE  C22016114   4.316   3.061   9.095 -0.2041  0.2031  0.2833
  146SAPE  H20R16115   4.214   3.085   9.134 -0.5823 -3.0565  1.6725
  146SAPE  H20S16116   4.307   2.951   9.079 -1.8824  0.4357 -0.6685
  146SAPE  H20T16117   4.344   3.103   8.996 -1.0382  1.2966  0.4854
  146SAPE   C3316118   4.497   3.532  10.297  0.3255  0.4757 -0.0151
  146SAPE   H3X16119   4.542   3.621  10.347 -0.7944 -0.0183  1.9768
  146SAPE   H3Y16120   4.390   3.556  10.314  0.9714  1.8653  2.5671
  146SAPE   C3416121   4.532   3.509  10.149 -0.1992 -0.8239  0.0752
  146SAPE   H4X16122   4.635   3.469  10.140  0.0250 -1.0116  2.5826
  146SAPE   H4Y16123   4.517   3.605  10.094 -0.1148 -0.1862  1.1337
  146SAPE   C3516124   4.424   3.423  10.088  0.2143 -0.0454  0.0317
  146SAPE   H5X16125   4.324   3.459  10.121  1.1784 -0.7306  4.2104
  146SAPE   H5Y16126   4.445   3.329  10.143  1.1754  1.1334  1.7769
  146SAPE   C3616127   4.434   3.397   9.938 -0.6408  0.1345 -0.2954
  146SAPE   H6X16128   4.390   3.300   9.904  1.6632 -0.8044 -0.8098
  146SAPE   H6Y16129   4.541   3.398   9.907 -0.9770 -0.5733 -1.5788
  146SAPE   C3716130   4.360   3.505   9.860  0.3190  0.0118 -0.4622
  146SAPE   H7X16131   4.404   3.606   9.871  1.4355 -0.5099  0.0974
  146SAPE   H7Y16132   4.254   3.500   9.892 -0.4014  0.6298 -2.5444
  146SAPE   C3816133   4.347   3.476   9.713  1.1622  0.0573  0.6938
  146SAPE   H8X16134   4.262   3.526   9.663  0.5452 -1.4206  0.1991
  146SAPE   H8Y16135   4.328   3.367   9.702  0.1255  0.2326  0.6924
  146SAPE   C3916136   4.467   3.514   9.635  0.1359 -0.0940  0.8310
  146SAPE   H9X16137   4.554   3.458   9.674  0.5256  0.8111  1.2965
  146SAPE   H9Y16138   4.497   3.619   9.655  1.0394 -0.7007  2.8459
  146SAPE  C31016139   4.448   3.484   9.483 -0.4674  0.5778 -0.3765
  146SAPE  H10X16140   4.424   3.375   9.490 -1.2175  0.6759 -1.1992
  146SAPE  H10Y16141   4.545   3.482   9.430 -1.3673  3.4341 -2.3679
  146SAPE  C31116142   4.365   3.577   9.405  1.0614  1.0895  0.9173
  146SAPE  H11X16143   4.385   3.681   9.437 -0.6920  0.9802  2.5877
  146SAPE  H11Y16144   4.259   3.554   9.429  0.7733  1.1948 -0.1755
  146SAPE  C31216145   4.395   3.581   9.254  0.0046  0.5447 -0.0232
  146SAPE  H12X16146   4.405   3.472   9.237 -2.3666 -0.1091  2.1448
  146SAPE  H12Y16147   4.487   3.635   9.224  1.1975 -2.0345 -1.3404
  146SAPE  C31316148   4.282   3.641   9.165  0.3599  0.3833  0.8852
  146SAPE  H13X16149   4.285   3.752   9.175 -0.1510  0.2884  2.2139
  146SAPE  H13Y16150   4.180   3.606   9.192  0.1361 -0.7291 -1.1660
  146SAPE  C31416151   4.294   3.607   9.014  0.1685  0.0067  0.9399
  146SAPE  H14X16152   4.270   3.499   9.003  0.1016  0.1724 -0.8417
  146SAPE  H14Y16153   4.395   3.633   8.978 -0.8472  0.4873 -1.8297
  146SAPE  C31516154   4.194   3.687   8.925  0.6550 -0.2342  0.3434
  146SAPE  H15X16155   4.226   3.793   8.937  0.2773 -0.2072  1.1955
  146SAPE  H15Y16156   4.089   3.673   8.959  0.4887  1.5717  0.6676
  146SAPE  C31616157   4.199   3.648   8.772  0.3178  0.1046 -0.2618
  146SAPE  H16X16158   4.151   3.549   8.752 -1.8531  0.9846  0.3205
  146SAPE  H16Y16159   4.308   3.642   8.749  0.2751 -0.3096 -0.3738
  146SAPE  C31716160   4.126   3.761   8.684 -0.8793  0.3447 -0.9367
  146SAPE  H17X16161   4.050   3.823   8.735 -0.6218  0.0814 -0.2196
  146SAPE  H17Y16162   4.072   3.690   8.617  0.4380 -0.3384 -1.3293
  146SAPE  C31816163   4.230   3.841   8.602 -0.4766 -0.4161  0.8590
  146SAPE  H18X16164   4.286   3.912   8.667 -1.1490 -0.2089  1.2215
  146SAPE  H18Y16165   4.184   3.902   8.522  0.3273 -1.2545 -0.2817
  146SAPE  H18Z16166   4.305   3.767   8.565 -1.6040 -1.7780  1.2008
  147SAPE     N16167   0.497   4.994  10.728  0.5216  0.0707 -0.1048
  147SAPE   HN116168   0.597   5.017  10.717  0.4927 -0.8437 -3.1802
  147SAPE   HN216169   0.456   5.017  10.821  1.2947  1.9063 -0.1746
  147SAPE   HN316170   0.500   4.891  10.713 -0.8426 -0.2854  1.7048
  147SAPE   C1216171   0.421   5.073  10.625  0.0957  0.4764 -0.9756
  147SAPE  H12A16172   0.315   5.040  10.619 -0.5007  1.8479  0.9990
  147SAPE  H12B16173   0.465   5.071  10.524 -0.4904  1.2830 -1.2527
  147SAPE   C1116174   0.429   5.221  10.672 -0.6716  0.1122 -0.2536
  147SAPE  H11A16175   0.397   5.227  10.779  0.3868 -0.7834  0.1322
  147SAPE  H11B16176   0.354   5.279  10.613 -0.8338  0.7977  0.6032
  147SAPE     P16177   0.619   5.401  10.730  0.0921 -0.1254 -0.1693
  147SAPE   O1316178   0.506   5.491  10.750 -0.6430 -0.1916  0.2342
  147SAPE   O1416179   0.697   5.350  10.845  0.3016  0.4030  0.6141
  147SAPE   O1216180   0.561   5.272  10.652 -0.4164 -0.1083 -0.2977
  147SAPE   O1116181   0.718   5.466  10.619  0.4174  0.0945  0.0911
  147SAPE    C116182   0.750   5.393  10.496  0.4231 -0.0928  0.5282
  147SAPE    HA16183   0.845   5.432  10.456  0.1983  1.3349  1.3171
  147SAPE    HB16184   0.773   5.286  10.515  1.3145  0.2281  1.3600
  147SAPE    C216185   0.633   5.397  10.387 -0.0578 -0.0673  0.4530
  147SAPE    HS16186   0.544   5.345  10.428  1.1418 -2.3817  0.2536
  147SAPE   O2116187   0.689   5.350  10.260 -0.6170  0.4112  0.3992
  147SAPE   C2116188   0.654   5.237  10.215 -0.2968 -0.0353  0.0171
  147SAPE   O2216189   0.565   5.166  10.264 -0.1507 -0.4042 -0.2106
  147SAPE   C2216190   0.724   5.206  10.076 -0.1466  0.1852 -0.0061
  147SAPE   H2R16191   0.761   5.302  10.033  0.6585 -0.0660  0.0966
  147SAPE   H2S16192   0.802   5.129  10.094 -1.9962 -2.2464 -1.7375
  147SAPE    C316193   0.590   5.540  10.367  0.2937 -0.0507  0.2522
  147SAPE    HX16194   0.676   5.604  10.337 -0.0652 -0.0842 -0.9244
  147SAPE    HY16195   0.569   5.583  10.467  0.4039  0.4364  0.0712
  147SAPE   O3116196   0.477   5.563  10.280  0.0318 -0.2259 -0.2544
  147SAPE   C3116197   0.422   5.680  10.288 -0.1960 -0.1896  0.6571
  147SAPE   O3216198   0.448   5.766  10.368  0.3287 -0.5641  0.8276
  147SAPE   C3216199   0.314   5.685  10.174 -0.0708  0.7666 -0.7231
  147SAPE   H2X16200   0.295   5.792  10.151 -0.3158  0.9901  0.4667
  147SAPE   H2Y16201   0.222   5.632  10.207  0.3473 -0.5346 -1.5749
  147SAPE   C2316202   0.625   5.135   9.979 -0.2378 -0.4155  0.4224
  147SAPE   H3R16203   0.575   5.052  10.033  0.1690 -0.0345  1.4205
  147SAPE   H3S16204   0.697   5.100   9.902 -1.1917  1.3103 -1.3484
  147SAPE   C2416205   0.518   5.228   9.909  0.1300 -0.0913  0.5579
  147SAPE   H4R16206   0.436   5.253   9.979  0.0411  0.4932  0.2490
  147SAPE   H4S16207   0.471   5.165   9.830  0.2659 -0.5458  0.8350
  147SAPE   C2516208   0.571   5.351   9.856  0.3198 -0.4654 -0.4057
  147SAPE   H5R16209   0.581   5.424   9.937  0.1429 -0.8070 -0.0761
  147SAPE   C2616210   0.607   5.382   9.730 -0.0950 -0.3868  0.1028
  147SAPE   H6R16211   0.649   5.480   9.702  3.0476 -1.9451 -1.1763
  147SAPE   C2716212   0.586   5.284   9.618 -0.5504 -0.1868  0.3134
  147SAPE   H7R16213   0.506   5.208   9.632 -1.0127 -0.2995 -2.4209
  147SAPE   H7S16214   0.683   5.240   9.588 -1.1474  0.2285 -2.4649
  147SAPE   C2816215   0.550   5.362   9.495 -0.4504  0.5715  0.2002
  147SAPE   H8R16216   0.446   5.349   9.462 -0.0653 -1.2430 -0.3919
  147SAPE   C2916217   0.622   5.455   9.424  0.1016  1.0309 -0.0568
  147SAPE   H9R16218   0.580   5.481   9.326  2.2681 -2.0724 -2.0028
  147SAPE  C21016219   0.773   5.475   9.431 -0.4958  0.0241  0.2255
  147SAPE  H10R16220   0.819   5.408   9.355  3.3312  3.1895 -0.5598
  147SAPE  H10S16221   0.800   5.442   9.533 -0.0486 -1.0575 -0.2181
  147SAPE  C21116222   0.825   5.617   9.404 -0.0403 -0.0069 -0.2895
  147SAPE  H11R16223   0.789   5.696   9.472 -0.8638 -0.8217  0.2436
  147SAPE  C21216224   0.904   5.659   9.301 -0.2980 -0.0241 -0.1066
  147SAPE  H12R16225   0.935   5.764   9.304 -0.2719 -0.0541  1.3336
  147SAPE  C21316226   0.943   5.578   9.184 -0.2911  0.3184  0.2682
  147SAPE  H13R16227   0.855   5.514   9.160 -0.0098 -0.2238  0.6525
  147SAPE  H13S16228   1.029   5.513   9.209  0.9272  1.9867  0.5936
  147SAPE  C21416229   0.985   5.650   9.059  0.9807  0.1049  0.4724
  147SAPE  H14R16230   1.004   5.758   9.066 -0.8660  0.7180 -2.5463
  147SAPE  C21516231   0.984   5.591   8.942  0.1195  0.0257  0.4712
  147SAPE  H15R16232   0.982   5.658   8.854 -1.5971  1.7847  1.7655
  147SAPE  C21616233   0.949   5.450   8.898 -0.4409 -0.1033 -0.1982
  147SAPE  H16R16234   0.964   5.384   8.986 -0.0578 -1.9246 -1.5739
  147SAPE  H16S16235   1.026   5.411   8.827 -0.8026  1.6165 -1.6162
  147SAPE  C21716236   0.811   5.418   8.834  0.4874 -0.8010  0.4547
  147SAPE  H17R16237   0.812   5.315   8.793  0.9409 -0.4247 -0.5249
  147SAPE  H17S16238   0.809   5.488   8.747  0.2921 -1.0073  0.2912
  147SAPE  C21816239   0.690   5.460   8.924 -0.4675 -0.0133 -0.2689
  147SAPE  H18R16240   0.705   5.566   8.955 -0.5950 -0.4753  1.4308
  147SAPE  H18S16241   0.681   5.405   9.020 -2.9231  1.4752  0.4461
  147SAPE  C21916242   0.546   5.453   8.856 -0.0241 -0.2936 -0.0974
  147SAPE  H19R16243   0.535   5.343   8.845 -1.8811 -0.0809 -0.5728
  147SAPE  H19S16244   0.560   5.510   8.762  1.8261 -0.4819  0.0225
  147SAPE  C22016245   0.434   5.510   8.940  0.4498  0.0814  0.0595
  147SAPE  H20R16246   0.432   5.620   8.928 -0.4215 -0.1453 -2.5339
  147SAPE  H20S16247   0.435   5.483   9.047 -2.1321 -0.6403 -0.0375
  147SAPE  H20T16248   0.345   5.464   8.892  0.2766  1.3940 -0.9378
  147SAPE   C3316249   0.370   5.631  10.042  0.3093 -0.2461 -0.1881
  147SAPE   H3X16250   0.387   5.521  10.048 -1.0171 -0.5458 -1.3608
  147SAPE   H3Y16251   0.463   5.685  10.015 -0.8266  2.7737  1.5169
  147SAPE   C3416252   0.271   5.660   9.931 -0.2687  0.6160 -0.4695
  147SAPE   H4X16253   0.238   5.766   9.934  0.5325  0.8811  1.9893
  147SAPE   H4Y16254   0.176   5.605   9.947 -0.0290 -0.0589 -1.3423
  147SAPE   C3516255   0.326   5.622   9.792  1.4109 -0.8811  0.0249
  147SAPE   H5X16256   0.366   5.519   9.803 -2.0851 -2.1414  2.4197
  147SAPE   H5Y16257   0.398   5.696   9.749 -2.3948  2.9379 -0.4990
  147SAPE   C3616258   0.207   5.628   9.692  0.3680 -0.0618  0.2425
  147SAPE   H6X16259   0.166   5.731   9.690  1.9833  0.6316  0.8708
  147SAPE   H6Y16260   0.125   5.560   9.725 -1.5533  1.3425 -1.4191
  147SAPE   C3716261   0.244   5.596   9.547 -0.1571 -0.1814  0.7699
  147SAPE   H7X16262   0.285   5.492   9.556 -0.4032 -0.2326  1.3849
  147SAPE   H7Y16263   0.326   5.656   9.501 -0.2952  1.2234  2.2621
  147SAPE   C3816264   0.126   5.594   9.457 -0.4428  0.3767  0.0925
  147SAPE   H8X16265   0.070   5.688   9.470 -0.7112  0.0901  1.1255
  147SAPE   H8Y16266   0.070   5.508   9.499  1.3006 -0.6885  0.3539
  147SAPE   C3916267   0.161   5.561   9.310  0.6304 -0.0433  0.5726
  147SAPE   H9X16268   0.232   5.475   9.310 -1.4828 -1.9083 -1.4026
  147SAPE   H9Y16269   0.199   5.658   9.271  0.4791 -0.7575 -1.4825
  147SAPE  C31016270   0.045   5.523   9.223  0.0248 -0.2910 -0.2861
  147SAPE  H10X16271  -0.032   5.603   9.222 -0.2116 -0.5150 -0.1493
  147SAPE  H10Y16272   0.002   5.425   9.252 -0.3970  0.1221  0.5178
  147SAPE  C31116273   0.088   5.517   9.073  0.0344 -0.1605 -0.6734
  147SAPE  H11X16274   0.157   5.430   9.071 -0.8054 -1.0021  2.2160
  147SAPE  H11Y16275   0.141   5.607   9.035  1.7135 -0.2662  1.2628
  147SAPE  C31216276  -0.026   5.497   8.971  0.1991  0.1652  0.2135
  147SAPE  H12X16277  -0.090   5.588   8.973 -0.4360 -0.2689  1.8177
  147SAPE  H12Y16278  -0.086   5.407   8.997  0.7487 -0.9098 -2.0215
  147SAPE  C31316279   0.019   5.465   8.833  0.9035  0.0456  0.1027
  147SAPE  H13X16280   0.076   5.369   8.833  0.0137 -0.5771  2.8644
  147SAPE  H13Y16281   0.071   5.553   8.790  1.1479 -0.2149 -0.1389
  147SAPE  C31416282  -0.108   5.432   8.749  0.2221 -0.3848  0.1799
  147SAPE  H14X16283  -0.186   5.507   8.774 -1.6734 -1.8327 -1.1658
  147SAPE  H14Y16284  -0.148   5.334   8.780 -0.2255 -0.5034 -0.7357
  147SAPE  C31516285  -0.092   5.427   8.601 -0.7802 -0.6982  0.3447
  147SAPE  H15X16286  -0.180   5.377   8.556 -1.9107 -0.3460  2.0779
  147SAPE  H15Y16287  -0.007   5.364   8.567 -0.8794  0.3963 -2.2172
  147SAPE  C31616288  -0.067   5.565   8.540  0.2471 -0.0045  0.1865
  147SAPE  H16X16289   0.034   5.608   8.553  1.2884 -1.4814 -2.3888
  147SAPE  H16Y16290  -0.144   5.633   8.584 -1.0335 -0.9169 -0.5969
  147SAPE  C31716291  -0.081   5.575   8.381 -0.5477 -0.1546 -0.7519
  147SAPE  H17X16292  -0.062   5.682   8.358 -2.2836  0.6482  1.2360
  147SAPE  H17Y16293  -0.179   5.545   8.339  0.9285 -1.7545 -3.3392
  147SAPE  C31816294   0.022   5.490   8.299  0.1668  0.1456 -0.1454
  147SAPE  H18X16295   0.128   5.517   8.317  0.0748  0.1415  0.4189
  147SAPE  H18Y16296   0.006   5.519   8.193 -0.3570 -0.7760 -0.3378
  147SAPE  H18Z16297   0.011   5.380   8.309  1.0390 -0.1973 -2.3462
  148SAPE     N16298   2.573   1.506  10.936 -0.1160 -0.3110  0.3218
  148SAPE   HN116299   2.590   1.513  11.038 -1.2945  2.0544  0.4099
  148SAPE   HN216300   2.473   1.501  10.907  0.2037  1.5764 -1.2993
  148SAPE   HN316301   2.622   1.419  10.905  1.2600  0.7567 -0.5944
  148SAPE   C1216302   2.637   1.631  10.874  0.3551  0.2671  0.6761
  148SAPE  H12A16303   2.736   1.644  10.923  1.4624 -1.9560 -0.7967
  148SAPE  H12B16304   2.573   1.717  10.904  0.7161 -0.5225  4.1772
  148SAPE   C1116305   2.668   1.608  10.727 -0.7380  0.0999 -0.0317
  148SAPE  H11A16306   2.724   1.703  10.710 -0.2454 -0.3583 -1.0946
  148SAPE  H11B16307   2.568   1.611  10.679 -1.1925  1.7055  0.9639
  148SAPE     P16308   2.700   1.364  10.636 -0.2671 -0.5135 -0.0552
  148SAPE   O1316309   2.823   1.284  10.601 -0.0179  0.5079  0.0882
  148SAPE   O1416310   2.601   1.302  10.729 -0.9794  0.4734 -0.0336
  148SAPE   O1216311   2.753   1.497  10.699  0.4825 -0.5731  0.3991
  148SAPE   O1116312   2.618   1.412  10.508  0.1230 -0.5034 -0.3245
  148SAPE    C116313   2.702   1.477  10.411 -0.2613  0.3095 -1.2871
  148SAPE    HA16314   2.753   1.561  10.463 -0.6712 -0.3694  0.2874
  148SAPE    HB16315   2.777   1.412  10.363 -0.1739  0.5847 -1.5239
  148SAPE    C216316   2.603   1.528  10.305  0.4295 -0.1267 -0.0505
  148SAPE    HS16317   2.517   1.579  10.354  1.0786  0.5566  0.3904
  148SAPE   O2116318   2.573   1.417  10.219  0.9624  0.4511  0.6917
  148SAPE   C2116319   2.473   1.436  10.124 -0.1646  0.2119  0.5350
  148SAPE   O2216320   2.417   1.538  10.098  0.3224 -0.5845 -0.5611
  148SAPE   C2216321   2.460   1.307  10.047 -0.8425  0.2427  1.2397
  148SAPE   H2R16322   2.537   1.234  10.080  0.3766  1.5571  1.4100
  148SAPE   H2S16323   2.363   1.267  10.083 -0.4004 -0.8118  1.2993
  148SAPE    C316324   2.680   1.647  10.225  0.0033  0.1711 -1.0399
  148SAPE    HX16325   2.666   1.732  10.296 -3.3298  0.6240 -2.0414
  148SAPE    HY16326   2.609   1.665  10.142  0.6607 -0.5955 -1.7872
  148SAPE   O3116327   2.812   1.598  10.189 -0.6855 -0.5148  0.2587
  148SAPE   C3116328   2.884   1.690  10.129 -0.1521 -0.7826  0.3894
  148SAPE   O3216329   2.836   1.792  10.081  0.5080 -0.0137  0.2094
  148SAPE   C3216330   3.025   1.630  10.103  0.4275  0.5810 -0.3949
  148SAPE   H2X16331   3.023   1.536  10.163 -1.0357 -0.6163 -2.2103
  148SAPE   H2Y16332   3.101   1.698  10.147 -0.3762  0.8266  0.6503
  148SAPE   C2316333   2.450   1.317   9.890 -0.1772 -1.5913  0.4450
  148SAPE   H3R16334   2.363   1.382   9.865 -0.2907 -2.2911 -1.1232
  148SAPE   H3S16335   2.436   1.213   9.853 -0.4426 -1.9925  1.6189
  148SAPE   C2416336   2.577   1.359   9.809  0.5291  0.5654 -0.1731
  148SAPE   H4R16337   2.557   1.327   9.705 -0.2023 -1.5822  0.5845
  148SAPE   H4S16338   2.660   1.305   9.860 -0.3871  0.0122  0.7788
  148SAPE   C2516339   2.610   1.506   9.823  0.0642  0.4999  0.1642
  148SAPE   H5R16340   2.609   1.544   9.926 -0.7334  4.0591 -1.0275
  148SAPE   C2616341   2.628   1.593   9.721 -0.4456  0.0448  0.0153
  148SAPE   H6R16342   2.648   1.696   9.753 -0.9086  0.5732 -1.3040
  148SAPE   C2716343   2.633   1.567   9.571 -0.1517  0.2359  0.3827
  148SAPE   H7R16344   2.729   1.522   9.540  0.5282  1.7116  0.2513
  148SAPE   H7S16345   2.632   1.661   9.512 -1.5962 -0.0835 -0.1445
  148SAPE   C2816346   2.505   1.496   9.531 -0.9969 -1.3019  1.1187
  148SAPE   H8R16347   2.415   1.514   9.592 -3.0726  0.9393 -2.2648
  148SAPE   C2916348   2.472   1.433   9.413 -0.2356 -0.4056 -1.1958
  148SAPE   H9R16349   2.371   1.392   9.401 -0.5809 -0.4975  1.3582
  148SAPE  C21016350   2.565   1.415   9.296  0.0444  0.3845  0.4098
  148SAPE  H10R16351   2.669   1.405   9.333  1.9943  0.4212 -4.3852
  148SAPE  H10S16352   2.563   1.514   9.246  1.1489 -0.8561 -2.2611
  148SAPE  C21116353   2.525   1.298   9.204  0.7045  0.5900  0.3779
  148SAPE  H11R16354   2.527   1.200   9.256 -1.7396  0.4086  0.2217
  148SAPE  C21216355   2.468   1.305   9.084  0.4317  0.0104 -0.3702
  148SAPE  H12R16356   2.453   1.206   9.037  2.1184 -0.6742  0.4288
  148SAPE  C21316357   2.424   1.423   9.000 -0.5948 -0.4203  0.1199
  148SAPE  H13R16358   2.479   1.424   8.903  0.5595 -1.2802  0.7332
  148SAPE  H13S16359   2.449   1.520   9.048 -2.3418  0.4714 -0.6904
  148SAPE  C21416360   2.277   1.440   8.977 -0.1716  0.0044  0.7220
  148SAPE  H14R16361   2.221   1.514   9.035 -1.4292  0.8400 -1.4266
  148SAPE  C21516362   2.200   1.371   8.896  0.0484  0.4156  0.2865
  148SAPE  H15R16363   2.097   1.408   8.886 -0.0905 -0.5253 -2.4535
  148SAPE  C21616364   2.240   1.261   8.800 -1.1987  0.8620 -0.4083
  148SAPE  H16R16365   2.332   1.211   8.837 -0.9943  2.2609  1.0772
  148SAPE  H16S16366   2.278   1.311   8.707 -0.5654  0.3392 -0.4404
  148SAPE  C21716367   2.128   1.165   8.753  0.0085  0.0690  0.3410
  148SAPE  H17R16368   2.048   1.226   8.705  0.6343  1.2375  0.7415
  148SAPE  H17S16369   2.097   1.099   8.837  1.3004 -0.2947  0.5514
  148SAPE  C21816370   2.171   1.068   8.644 -0.8533 -0.0083  0.2165
  148SAPE  H18R16371   2.253   1.011   8.692  0.2728  1.8168  0.5488
  148SAPE  H18S16372   2.217   1.123   8.559  0.2851 -0.2102  0.6783
  148SAPE  C21916373   2.052   0.990   8.585  0.0315 -0.2506 -0.0767
  148SAPE  H19R16374   2.089   0.932   8.497 -0.7659 -0.4755 -0.2737
  148SAPE  H19S16375   1.974   1.061   8.550 -0.2397 -0.3121  0.3929
  148SAPE  C22016376   1.981   0.890   8.674  0.4284  0.3105 -0.2715
  148SAPE  H20R16377   1.928   0.944   8.756 -0.2113 -1.6847  0.7015
  148SAPE  H20S16378   2.063   0.826   8.712  0.1954  1.1116  1.7225
  148SAPE  H20T16379   1.907   0.823   8.626 -0.3404  0.5969  0.4869
  148SAPE   C3316380   3.053   1.621   9.951  0.3965 -0.1142  0.0686
  148SAPE   H3X16381   3.148   1.565   9.936  0.9469  0.6909  0.4618
  148SAPE   H3Y16382   3.065   1.725   9.913 -0.1088  0.5229  1.5764
  148SAPE   C3416383   2.943   1.553   9.875 -0.6879  0.3356 -0.1238
  148SAPE   H4X16384   2.857   1.624   9.876 -2.0425 -1.0699  4.0044
  148SAPE   H4Y16385   2.899   1.468   9.931 -0.8525  1.7780  2.0430
  148SAPE   C3516386   2.982   1.522   9.734  0.0549  0.1818 -0.2150
  148SAPE   H5X16387   2.909   1.457   9.680  0.0210 -0.8498  1.0282
  148SAPE   H5Y16388   3.077   1.464   9.730 -0.4125 -0.6095 -0.0896
  148SAPE   C3616389   2.999   1.647   9.645  0.0203 -0.3776 -0.6502
  148SAPE   H6X16390   3.080   1.702   9.698 -0.0468 -1.6973  0.9201
  148SAPE   H6Y16391   2.906   1.706   9.658 -0.5989 -1.3406 -0.5874
  148SAPE   C3716392   3.032   1.635   9.505 -0.2494 -0.6264 -0.7418
  148SAPE   H7X16393   2.973   1.549   9.466 -1.4836 -0.8257  1.4174
  148SAPE   H7Y16394   3.136   1.600   9.494 -0.6524 -1.6396 -1.5011
  148SAPE   C3816395   3.001   1.761   9.417  0.1863  0.6327 -0.5466
  148SAPE   H8X16396   3.082   1.835   9.436  1.4558 -0.8003 -0.1282
  148SAPE   H8Y16397   2.905   1.812   9.440 -0.7150 -0.2639 -2.1095
  148SAPE   C3916398   2.980   1.736   9.263  0.1098  0.4670 -0.1563
  148SAPE   H9X16399   3.040   1.646   9.237  4.2617  3.4237 -1.9006
  148SAPE   H9Y16400   3.029   1.825   9.220  1.6463 -0.1311  0.2750
  148SAPE  C31016401   2.834   1.718   9.206  0.2288 -0.0929  0.3338
  148SAPE  H10X16402   2.762   1.797   9.237 -0.1182 -0.6283  0.9348
  148SAPE  H10Y16403   2.790   1.626   9.252  0.4625 -1.2316 -1.6079
  148SAPE  C31116404   2.840   1.719   9.049  0.1025  0.4411  0.3996
  148SAPE  H11X16405   2.922   1.647   9.028 -0.1587  0.3509 -0.3362
  148SAPE  H11Y16406   2.864   1.823   9.020 -2.8390  1.6111  1.8044
  148SAPE  C31216407   2.701   1.675   8.979  0.1102  0.1938 -0.0668
  148SAPE  H12X16408   2.623   1.751   8.998  1.9277  2.5384 -1.4430
  148SAPE  H12Y16409   2.668   1.573   9.010 -1.1833  0.7188  0.3214
  148SAPE  C31316410   2.719   1.676   8.829 -0.2250 -0.6980 -0.3671
  148SAPE  H13X16411   2.811   1.622   8.798  1.0047 -0.4386  2.4897
  148SAPE  H13Y16412   2.740   1.784   8.815 -1.1452 -0.3697  0.5452
  148SAPE  C31416413   2.599   1.627   8.750 -0.1574 -0.2326 -0.3061
  148SAPE  H14X16414   2.510   1.660   8.809  0.7420 -1.3967  1.8340
  148SAPE  H14Y16415   2.589   1.516   8.744 -0.7086 -0.1305 -1.4997
  148SAPE  C31516416   2.606   1.684   8.610 -0.0230  0.1629 -0.4176
  148SAPE  H15X16417   2.686   1.641   8.546  0.2206 -1.1833  0.7615
  148SAPE  H15Y16418   2.611   1.794   8.619 -1.8224  0.2253  0.3059
  148SAPE  C31616419   2.468   1.676   8.545 -0.6461 -0.1106  0.8065
  148SAPE  H16X16420   2.407   1.745   8.607 -0.0572  1.2859 -0.1113
  148SAPE  H16Y16421   2.423   1.575   8.541 -3.5752  1.1382 -1.1251
  148SAPE  C31716422   2.479   1.738   8.403 -0.3113 -0.1700 -0.2824
  148SAPE  H17X16423   2.545   1.669   8.346 -1.2956  0.2146 -1.9650
  148SAPE  H17Y16424   2.530   1.837   8.412 -0.7073  0.1814 -1.6832
  148SAPE  C31816425   2.343   1.775   8.346  0.2667  0.3280  0.2295
  148SAPE  H18X16426   2.286   1.838   8.418  0.4351 -0.2129  0.8523
  148SAPE  H18Y16427   2.275   1.688   8.331  0.4408  0.3494 -0.7052
  148SAPE  H18Z16428   2.349   1.816   8.243  1.2536  1.7453  0.8246
  149SAPE     N16429   4.103   5.231  11.214  0.3868  0.1932  0.4707
  149SAPE   HN116430   4.197   5.258  11.179  1.1285  0.2846  2.4299
  149SAPE   HN216431   4.120   5.209  11.314  2.0526  2.0861  0.6679
  149SAPE   HN316432   4.078   5.145  11.161 -1.1621  1.1316 -0.4212
  149SAPE   C1216433   4.000   5.334  11.177 -0.1282 -1.5233 -0.5387
  149SAPE  H12A16434   4.035   5.427  11.227 -2.1041 -0.1991 -1.5040
  149SAPE  H12B16435   3.906   5.299  11.224  0.5785 -1.9814  0.6002
  149SAPE   C1116436   4.007   5.359  11.023 -0.2182 -0.4612  0.1213
  149SAPE  H11A16437   3.933   5.436  10.995 -1.5945 -2.0080 -0.6311
  149SAPE  H11B16438   3.966   5.269  10.972  0.2403 -0.8777  0.4778
  149SAPE     P16439   4.184   5.482  10.864  0.2291 -0.1866 -0.2151
  149SAPE   O1316440   4.155   5.616  10.912  0.0059  0.4723 -0.5632
  149SAPE   O1416441   4.318   5.447  10.828  0.2037  0.3305  0.1201
  149SAPE   O1216442   4.137   5.388  10.973 -0.1316  0.5589  0.0669
  149SAPE   O1116443   4.086   5.440  10.751 -0.5300 -0.1790  0.6026
  149SAPE    C116444   4.125   5.447  10.610  0.7329 -0.3133 -0.6370
  149SAPE    HA16445   4.224   5.498  10.599  1.7304 -1.1229  3.0007
  149SAPE    HB16446   4.134   5.345  10.567 -0.6460  0.0712 -1.9111
  149SAPE    C216447   4.012   5.521  10.532  0.0347 -0.0347  0.2676
  149SAPE    HS16448   3.926   5.452  10.522  0.5213 -0.2837 -4.7979
  149SAPE   O2116449   4.068   5.555  10.406  0.0009 -0.6734 -0.2198
  149SAPE   C2116450   4.083   5.457  10.326 -0.6073  0.4807 -0.1579
  149SAPE   O2216451   4.064   5.337  10.353 -0.5545  0.0217  0.8078
  149SAPE   C2216452   4.121   5.503  10.190 -0.2478  0.2590  0.2264
  149SAPE   H2R16453   4.050   5.580  10.153 -0.5324 -0.7853 -1.4988
  149SAPE   H2S16454   4.221   5.552  10.195 -0.5341  0.8921 -0.1696
  149SAPE    C316455   3.964   5.643  10.605 -0.7427  0.4280 -0.2012
  149SAPE    HX16456   4.057   5.688  10.645  0.3553 -2.6760  1.1240
  149SAPE    HY16457   3.908   5.617  10.698 -0.8250  0.6185 -0.1973
  149SAPE   O3116458   3.880   5.720  10.521 -0.2871 -0.0756 -0.0060
  149SAPE   C3116459   3.919   5.845  10.501  0.4100  0.0928 -0.7541
  149SAPE   O3216460   3.994   5.906  10.574 -0.2273 -0.0483  0.0542
  149SAPE   C3216461   3.851   5.908  10.373 -0.7538  0.1742 -1.4507
  149SAPE   H2X16462   3.868   6.018  10.384 -0.0008 -0.0670  0.1880
  149SAPE   H2Y16463   3.744   5.889  10.392 -0.5211  2.0618  3.2215
  149SAPE   C2316464   4.126   5.384  10.095  0.5139 -0.6316 -0.0928
  149SAPE   H3R16465   4.033   5.325  10.109 -0.4850  1.1604  1.0627
  149SAPE   H3S16466   4.216   5.327  10.126 -0.4308 -1.6540  0.8581
  149SAPE   C2416467   4.138   5.434   9.949 -0.4817 -0.0192  0.8080
  149SAPE   H4R16468   4.162   5.355   9.875  1.3767  1.8164 -0.6773
  149SAPE   H4S16469   4.228   5.499   9.942 -1.4655  1.1819 -1.7205
  149SAPE   C2516470   4.011   5.505   9.905 -0.0191  0.2712  0.3380
  149SAPE   H5R16471   3.943   5.532   9.988  1.8004 -0.8567  2.2920
  149SAPE   C2616472   3.979   5.535   9.779  0.6013 -0.2883  0.3376
  149SAPE   H6R16473   3.897   5.605   9.757 -0.3786 -0.8452  2.0707
  149SAPE   C2716474   4.047   5.516   9.651 -0.8975 -0.7474  0.4691
  149SAPE   H7R16475   4.157   5.513   9.670 -0.5546  1.4689 -0.8439
  149SAPE   H7S16476   4.035   5.612   9.597  0.3849  0.3900  2.1257
  149SAPE   C2816477   4.029   5.394   9.567 -0.2498  0.7081 -0.3271
  149SAPE   H8R16478   4.013   5.296   9.613 -0.4318  1.3974  1.1162
  149SAPE   C2916479   4.047   5.391   9.435  0.2167  0.3932  0.1621
  149SAPE   H9R16480   4.007   5.299   9.390 -0.2340  0.5561  0.2296
  149SAPE  C21016481   4.093   5.506   9.337  0.0691  0.3722 -0.6111
  149SAPE  H10R16482   4.148   5.589   9.386 -1.0600  0.2618  0.9210
  149SAPE  H10S16483   4.004   5.556   9.294  0.7924  0.0376 -2.5610
  149SAPE  C21116484   4.175   5.445   9.233 -0.4088  0.3748 -0.3544
  149SAPE  H11R16485   4.273   5.407   9.267 -0.2117 -0.0712 -1.3731
  149SAPE  C21216486   4.139   5.429   9.101  0.5236  0.4720 -0.2710
  149SAPE  H12R16487   4.214   5.392   9.029 -0.0253  0.0250 -0.6219
  149SAPE  C21316488   4.012   5.467   9.042 -0.5079 -0.9169  0.2670
  149SAPE  H13R16489   3.928   5.466   9.114  0.1162 -0.4284  1.0185
  149SAPE  H13S16490   3.984   5.386   8.971 -1.7280  1.1894 -1.7822
  149SAPE  C21416491   4.037   5.603   8.982 -0.0415 -0.3176  0.0142
  149SAPE  H14R16492   4.067   5.676   9.058 -0.8201  1.4373 -1.2888
  149SAPE  C21516493   4.027   5.648   8.852  0.0327  0.2839 -0.0993
  149SAPE  H15R16494   4.060   5.747   8.818 -0.5369  0.3925 -0.3411
  149SAPE  C21616495   3.980   5.571   8.730 -0.5361 -0.9115  0.0231
  149SAPE  H16R16496   3.891   5.621   8.687 -1.5114 -0.7967  2.0284
  149SAPE  H16S16497   3.953   5.466   8.757 -0.9689 -1.1042 -1.1251
  149SAPE  C21716498   4.087   5.564   8.614  0.4710  0.6007  0.3456
  149SAPE  H17R16499   4.181   5.521   8.655  0.1531 -0.5670 -0.1103
  149SAPE  H17S16500   4.121   5.663   8.578  0.5753 -0.0333 -1.4134
  149SAPE  C21816501   4.057   5.467   8.495  0.2432 -0.1691  0.9685
  149SAPE  H18R16502   4.020   5.367   8.527  0.3288  0.2462  2.4559
  149SAPE  H18S16503   4.157   5.457   8.448 -0.3088 -1.6095  0.0010
  149SAPE  C21916504   3.965   5.537   8.385 -0.1099  0.5139 -0.5724
  149SAPE  H19R16505   4.034   5.610   8.336  0.4257  0.7845  0.5331
  149SAPE  H19S16506   3.884   5.593   8.436  0.1443 -0.3183  0.8250
  149SAPE  C22016507   3.916   5.440   8.278 -0.7843  0.3271 -0.2723
  149SAPE  H20R16508   3.993   5.371   8.238  0.5437  1.2937  0.5558
  149SAPE  H20S16509   3.873   5.496   8.192 -0.9093 -0.2689 -0.6043
  149SAPE  H20T16510   3.839   5.372   8.320 -1.1377  0.9910  0.1640
  149SAPE   C3316511   3.910   5.866  10.238  0.3347 -0.5301 -0.4111
  149SAPE   H3X16512   3.890   5.757  10.230  0.1177 -0.5327  0.1235
  149SAPE   H3Y16513   4.018   5.890  10.236  0.2092 -0.0051 -1.6136
  149SAPE   C3416514   3.837   5.951  10.132 -0.5053 -0.5519 -0.5045
  149SAPE   H4X16515   3.830   6.061  10.146  0.0686 -0.1638 -2.7549
  149SAPE   H4Y16516   3.730   5.923  10.125 -0.7936  0.8452 -2.6755
  149SAPE   C3516517   3.888   5.937   9.989 -0.3429 -0.0018  0.4079
  149SAPE   H5X16518   3.882   5.829   9.967 -0.7236  0.0975  0.0032
  149SAPE   H5Y16519   3.987   5.986   9.980 -1.2389  1.5130 -2.4369
  149SAPE   C3616520   3.795   6.006   9.880  0.1025  0.4065 -0.0460
  149SAPE   H6X16521   3.805   6.115   9.897  0.8728  0.4206 -0.5470
  149SAPE   H6Y16522   3.684   5.996   9.885 -0.0435  0.8534 -1.7396
  149SAPE   C3716523   3.818   5.963   9.735 -0.8826  0.0636  0.8081
  149SAPE   H7X16524   3.811   5.854   9.715 -0.6246  0.2101 -0.0855
  149SAPE   H7Y16525   3.922   5.997   9.716 -1.1979  0.1472 -0.9330
  149SAPE   C3816526   3.729   6.023   9.631 -0.0873 -0.9592 -0.0524
  149SAPE   H8X16527   3.712   6.133   9.634  2.8750 -0.3415 -1.8370
  149SAPE   H8Y16528   3.630   5.980   9.656 -0.0397 -1.5037 -0.7545
  149SAPE   C3916529   3.774   5.983   9.485  0.3120  0.0889  0.2549
  149SAPE   H9X16530   3.785   5.873   9.488 -2.0879 -0.2019  1.9948
  149SAPE   H9Y16531   3.873   6.027   9.461  0.0823 -0.7212 -2.4380
  149SAPE  C31016532   3.682   6.024   9.376 -0.0746  0.0384  1.0068
  149SAPE  H10X16533   3.664   6.134   9.375 -2.3697 -0.2461 -2.0821
  149SAPE  H10Y16534   3.586   5.971   9.390  0.3603 -0.7562  1.0743
  149SAPE  C31116535   3.743   5.992   9.239 -0.5546  0.1948 -1.1118
  149SAPE  H11X16536   3.729   5.882   9.230 -2.0604  0.2943 -0.2899
  149SAPE  H11Y16537   3.847   6.029   9.229 -0.5064  0.1246 -0.8755
  149SAPE  C31216538   3.669   6.040   9.114  0.2364 -0.2878 -0.4747
  149SAPE  H12X16539   3.665   6.150   9.124  0.7563 -0.4053  1.4245
  149SAPE  H12Y16540   3.566   6.003   9.129 -0.4237  1.2379 -1.0653
  149SAPE  C31316541   3.746   5.994   8.982 -0.2637 -0.4006 -0.8720
  149SAPE  H13X16542   3.776   5.888   8.989  0.8365 -0.0409  0.0305
  149SAPE  H13Y16543   3.834   6.061   8.978 -0.2776 -0.3645 -0.5526
  149SAPE  C31416544   3.664   6.025   8.860  1.0936  0.1930  0.6489
  149SAPE  H14X16545   3.627   6.129   8.873  2.6659  0.5519  2.6672
  149SAPE  H14Y16546   3.578   5.955   8.867  1.5011 -0.5995 -1.5253
  149SAPE  C31516547   3.728   5.981   8.728  0.3282  0.2602  0.4133
  149SAPE  H15X16548   3.728   5.870   8.714 -1.5043  0.3439 -0.5222
  149SAPE  H15Y16549   3.835   6.007   8.717  0.8051 -2.1209 -1.5094
  149SAPE  C31616550   3.661   6.050   8.611 -0.7467  0.3916 -0.6421
  149SAPE  H16X16551   3.552   6.031   8.616 -0.6697 -0.0346 -0.5968
  149SAPE  H16Y16552   3.694   5.986   8.526  0.7795 -2.3038  1.8117
  149SAPE  C31716553   3.700   6.198   8.602 -0.0700 -0.5957  0.2253
  149SAPE  H17X16554   3.657   6.253   8.688  1.7192 -0.1860  0.9024
  149SAPE  H17Y16555   3.681   6.248   8.505  2.5036 -0.4858 -0.3063
  149SAPE  C31816556   3.848   6.227   8.615 -0.2170 -0.2552 -0.2551
  149SAPE  H18X16557   3.872   6.332   8.586  2.1388 -0.1502  1.7486
  149SAPE  H18Y16558   3.910   6.163   8.548  1.3268  1.0161 -0.1039
  149SAPE  H18Z16559   3.878   6.207   8.720 -1.4807  0.9777  0.3679
  150SAPE     N16560   4.497   4.156  10.849  0.6044 -0.1255  0.3591
  150SAPE   HN116561   4.589   4.168  10.802  1.3909 -0.1873  1.8266
  150SAPE   HN216562   4.444   4.245  10.861 -3.1492 -2.4953  4.6834
  150SAPE   HN316563   4.506   4.114  10.943 -1.8389 -2.9997 -0.5362
  150SAPE   C1216564   4.399   4.085  10.762 -0.3909 -0.0162 -0.6858
  150SAPE  H12A16565   4.303   4.055  10.808 -1.6387  0.5501 -2.7801
  150SAPE  H12B16566   4.449   3.991  10.728 -2.1059 -0.8099 -1.1212
  150SAPE   C1116567   4.368   4.175  10.639 -0.0898  0.2960 -0.1674
  150SAPE  H11A16568   4.284   4.134  10.579  0.4311 -0.0225 -0.6879
  150SAPE  H11B16569   4.459   4.173  10.575 -0.8485 -1.7685 -1.2955
  150SAPE     P16570   4.273   4.415  10.602  0.0249  0.1023 -0.2667
  150SAPE   O1316571   4.125   4.430  10.635 -0.5168 -0.6156  0.8341
  150SAPE   O1416572   4.353   4.533  10.625  0.4875  0.5807 -0.0241
  150SAPE   O1216573   4.332   4.302  10.693  0.6800 -0.1734  0.0734
  150SAPE   O1116574   4.291   4.365  10.455 -0.3871  0.4813  0.6315
  150SAPE    C116575   4.195   4.388  10.353 -0.2874  0.1395 -0.2105
  150SAPE    HA16576   4.121   4.307  10.332 -0.2302 -0.0785  0.4215
  150SAPE    HB16577   4.145   4.487  10.364  1.3227  0.8129  1.6945
  150SAPE    C216578   4.257   4.390  10.207 -0.0402  0.2684  0.5076
  150SAPE    HS16579   4.367   4.376  10.218 -0.0256  1.2519  1.9274
  150SAPE   O2116580   4.227   4.509  10.134 -0.2450  0.5569  0.6201
  150SAPE   C2116581   4.305   4.615  10.159 -0.2911  0.7569 -0.1704
  150SAPE   O2216582   4.389   4.617  10.246 -0.2391 -0.1656  0.4767
  150SAPE   C2216583   4.270   4.738  10.076  0.6080 -0.2254  0.0692
  150SAPE   H2R16584   4.289   4.701   9.974 -0.0977  0.5581 -0.3570
  150SAPE   H2S16585   4.164   4.768  10.085  0.4091 -0.3392 -1.6867
  150SAPE    C316586   4.210   4.267  10.120 -0.0511  0.1725 -0.2486
  150SAPE    HX16587   4.100   4.254  10.130  0.0324 -1.9945 -1.3559
  150SAPE    HY16588   4.259   4.177  10.163 -2.0723  0.3957  2.8225
  150SAPE   O3116589   4.230   4.287   9.975 -0.0702  0.2976 -0.1627
  150SAPE   C3116590   4.358   4.288   9.937  0.2289 -0.2658 -0.1763
  150SAPE   O3216591   4.452   4.258  10.005  0.1994 -0.1240 -0.3820
  150SAPE   C3216592   4.361   4.330   9.785 -0.1333 -0.3388  0.1065
  150SAPE   H2X16593   4.381   4.242   9.721 -0.9064 -0.0500 -0.5486
  150SAPE   H2Y16594   4.461   4.379   9.780 -0.1516 -0.4232 -2.0715
  150SAPE   C2316595   4.370   4.854  10.092 -0.7835 -0.6854  0.1843
  150SAPE   H3R16596   4.475   4.818  10.084 -0.3310  1.0038 -2.7715
  150SAPE   H3S16597   4.359   4.908  10.189 -2.2664 -0.4433 -0.0970
  150SAPE   C2416598   4.367   4.964   9.983  0.6558  0.8386  0.0996
  150SAPE   H4R16599   4.384   4.907   9.889 -0.9826  0.3145  0.0866
  150SAPE   H4S16600   4.448   5.030  10.019 -0.1374  1.3520  0.9899
  150SAPE   C2516601   4.230   5.032   9.994  0.8627 -0.0844  0.3865
  150SAPE   H5R16602   4.204   5.056  10.098 -1.9056 -0.9014 -0.0295
  150SAPE   C2616603   4.150   5.073   9.889 -0.5031 -0.7693 -0.0935
  150SAPE   H6R16604   4.045   5.100   9.905 -0.4124  1.6717 -2.7558
  150SAPE   C2716605   4.183   5.065   9.742  0.0810  0.3456  0.9969
  150SAPE   H7R16606   4.265   5.139   9.730 -0.6145  1.6090  3.3462
  150SAPE   H7S16607   4.103   5.100   9.674  1.8676  1.3234 -0.6728
  150SAPE   C2816608   4.214   4.928   9.689 -0.1226 -0.2891  0.1777
  150SAPE   H8R16609   4.196   4.841   9.755  0.4156 -0.5372 -0.0008
  150SAPE   C2916610   4.256   4.901   9.563  0.3462  0.6203 -0.0127
  150SAPE   H9R16611   4.259   4.794   9.538  1.5393  0.4280  0.8920
  150SAPE  C21016612   4.285   4.999   9.448  0.1391  0.0315 -0.5109
  150SAPE  H10R16613   4.368   4.958   9.387 -0.5537 -2.7459  0.2586
  150SAPE  H10S16614   4.321   5.086   9.507  1.5218 -1.6066  1.1963
  150SAPE  C21116615   4.163   5.049   9.371  0.3500  0.4823  0.0146
  150SAPE  H11R16616   4.075   5.096   9.418  0.9465  0.8260  0.8172
  150SAPE  C21216617   4.157   5.060   9.231  0.3131 -0.9113 -0.0351
  150SAPE  H12R16618   4.071   5.104   9.178 -0.9872 -2.5856  0.6062
  150SAPE  C21316619   4.253   5.024   9.123 -0.3615 -0.4951 -0.0224
  150SAPE  H13R16620   4.201   5.006   9.026  1.6177 -2.2328 -0.8365
  150SAPE  H13S16621   4.304   4.927   9.140 -2.0496 -1.4350 -0.0459
  150SAPE  C21416622   4.356   5.134   9.106  0.1679  0.0317 -0.0290
  150SAPE  H14R16623   4.392   5.185   9.197  0.8203 -0.6139  0.0909
  150SAPE  C21516624   4.404   5.173   8.988  0.0378 -0.0017 -0.3096
  150SAPE  H15R16625   4.469   5.261   8.998  0.8259 -0.5100 -0.8266
  150SAPE  C21616626   4.379   5.118   8.850 -0.3922 -0.3769  0.4697
  150SAPE  H16R16627   4.319   5.024   8.852 -3.0203  1.1755  2.6740
  150SAPE  H16S16628   4.471   5.110   8.790 -0.6400  2.0803 -0.3380
  150SAPE  C21716629   4.302   5.210   8.755  0.6718 -0.3353  1.1187
  150SAPE  H17R16630   4.370   5.278   8.699 -0.4841 -0.7026 -0.8233
  150SAPE  H17S16631   4.230   5.273   8.812  0.2988  2.0171 -1.7313
  150SAPE  C21816632   4.212   5.124   8.665 -0.5578 -0.1737  0.2018
  150SAPE  H18R16633   4.133   5.193   8.629  0.0335  0.8995  0.9193
  150SAPE  H18S16634   4.159   5.052   8.731  0.8605 -1.9579 -0.5008
  150SAPE  C21916635   4.282   5.065   8.542  0.3915 -0.4834  0.5167
  150SAPE  H19R16636   4.209   4.989   8.507 -0.3312 -0.6200  2.2029
  150SAPE  H19S16637   4.370   5.006   8.575  0.3559 -1.0686 -0.3883
  150SAPE  C22016638   4.310   5.164   8.436  0.0207 -0.0835  0.0763
  150SAPE  H20R16639   4.214   5.217   8.417 -0.1015 -0.6006 -0.8070
  150SAPE  H20S16640   4.346   5.117   8.342  2.2953 -1.4833  1.5732
  150SAPE  H20T16641   4.388   5.239   8.461  0.1268  0.0635 -0.6488
  150SAPE   C3316642   4.248   4.423   9.747 -0.9055  0.0220  0.7234
  150SAPE   H3X16643   4.222   4.498   9.824  0.3612  0.9725  0.2642
  150SAPE   H3Y16644   4.153   4.373   9.719  0.7581 -1.8903 -1.9867
  150SAPE   C3416645   4.284   4.510   9.627  0.3771  0.4768  0.5401
  150SAPE   H4X16646   4.367   4.581   9.648 -0.0752  1.0752  0.2976
  150SAPE   H4Y16647   4.192   4.570   9.613 -0.6462 -1.2974 -0.7427
  150SAPE   C3516648   4.328   4.439   9.500  0.0173  0.4028 -0.1064
  150SAPE   H5X16649   4.231   4.396   9.466 -0.5613  1.3419  0.3183
  150SAPE   H5Y16650   4.393   4.350   9.511 -1.4577 -0.7601 -0.4442
  150SAPE   C3616651   4.390   4.538   9.399 -0.0506 -0.3787 -0.7556
  150SAPE   H6X16652   4.497   4.555   9.423 -0.0351 -0.9962 -0.3672
  150SAPE   H6Y16653   4.334   4.632   9.412 -0.9210 -0.6990 -1.9802
  150SAPE   C3716654   4.366   4.497   9.248  0.3473  0.3461 -0.5690
  150SAPE   H7X16655   4.255   4.490   9.250  0.4291 -0.9412  0.9447
  150SAPE   H7Y16656   4.418   4.406   9.212  0.1636 -0.5251  1.2353
  150SAPE   C3816657   4.413   4.611   9.153  0.0172  0.2930  0.5255
  150SAPE   H8X16658   4.522   4.629   9.166 -0.3379  0.8540  3.2314
  150SAPE   H8Y16659   4.348   4.697   9.180  0.2894  0.1914  1.5331
  150SAPE   C3916660   4.385   4.586   8.999  0.1239 -0.1070 -0.8679
  150SAPE   H9X16661   4.291   4.525   9.005  1.2430 -1.8460 -0.2484
  150SAPE   H9Y16662   4.447   4.512   8.944 -0.3742 -1.9582  0.9337
  150SAPE  C31016663   4.376   4.714   8.912 -0.3544  0.1362 -0.9595
  150SAPE  H10X16664   4.315   4.797   8.955 -0.8417 -0.6992  0.0204
  150SAPE  H10Y16665   4.322   4.682   8.821  1.2511 -2.9905 -0.9392
  150SAPE  C31116666   4.507   4.776   8.868  0.4042  0.0013 -0.2150
  150SAPE  H11X16667   4.563   4.815   8.956  0.4565  2.3527 -1.2120
  150SAPE  H11Y16668   4.497   4.871   8.812  0.7649  1.1490  1.5553
  150SAPE  C31216669   4.598   4.691   8.788  0.5190  0.5034  0.7268
  150SAPE  H12X16670   4.537   4.658   8.701 -0.7425  1.5476  1.1914
  150SAPE  H12Y16671   4.632   4.607   8.853  1.3409 -1.0499 -1.6081
  150SAPE  C31316672   4.718   4.770   8.721 -0.8966  0.2321 -0.1979
  150SAPE  H13X16673   4.799   4.800   8.790  0.1616  0.0269 -1.3203
  150SAPE  H13Y16674   4.673   4.859   8.671 -1.0468  1.1103  1.4429
  150SAPE  C31416675   4.782   4.687   8.608  0.0517 -0.7333 -0.5947
  150SAPE  H14X16676   4.819   4.593   8.655  0.5202  0.1928  0.9530
  150SAPE  H14Y16677   4.863   4.742   8.555  1.4702 -1.1776  1.0396
  150SAPE  C31516678   4.681   4.642   8.498 -0.5851 -0.4711  0.1369
  150SAPE  H15X16679   4.584   4.695   8.510  0.1925  1.2357 -0.7641
  150SAPE  H15Y16680   4.654   4.535   8.506  0.1371 -0.7619 -1.0606
  150SAPE  C31616681   4.726   4.668   8.351 -0.0733 -0.3604  0.3682
  150SAPE  H16X16682   4.648   4.619   8.289  0.9422  0.7424 -1.8778
  150SAPE  H16Y16683   4.827   4.627   8.331 -0.0110 -0.2667  0.4887
  150SAPE  C31716684   4.732   4.822   8.316 -0.0135 -0.2370  0.0797
  150SAPE  H17X16685   4.785   4.875   8.398  0.8425 -2.8122  1.2900
  150SAPE  H17Y16686   4.631   4.868   8.316  0.8854  1.9180  0.9051
  150SAPE  C31816687   4.811   4.864   8.188  0.1951  0.2761  0.5988
  150SAPE  H18X16688   4.831   4.973   8.188  0.1713  0.2830 -0.4554
  150SAPE  H18Y16689   4.749   4.823   8.105 -0.0948  0.8201  0.5436
  150SAPE  H18Z16690   4.910   4.813   8.194  0.8795  1.5331  0.2561
  151SAPE     N16691   2.361   1.208  10.793  0.3686  0.5560  0.0626
  151SAPE   HN116692   2.410   1.290  10.752  0.4043 -0.2531 -1.6016
  151SAPE   HN216693   2.274   1.240  10.839  0.1562 -0.9691  0.7819
  151SAPE   HN316694   2.432   1.165  10.855  0.5153 -0.5164 -0.8076
  151SAPE   C1216695   2.317   1.111  10.684  0.0872  0.5473  1.1355
  151SAPE  H12A16696   2.256   1.169  10.611 -0.4891 -0.6659  0.6073
  151SAPE  H12B16697   2.267   1.020  10.725 -0.5930 -0.0337 -0.8444
  151SAPE   C1116698   2.442   1.058  10.602 -0.6674  0.6281 -0.2426
  151SAPE  H11A16699   2.501   1.006  10.682 -1.4310  2.2831  1.4665
  151SAPE  H11B16700   2.498   1.145  10.563  0.3944 -0.1113 -0.4350
  151SAPE     P16701   2.377   0.808  10.524 -0.0528  0.0341 -0.0505
  151SAPE   O1316702   2.405   0.770  10.671 -0.4615  0.2182 -0.0656
  151SAPE   O1416703   2.243   0.786  10.478  0.6264  0.6785  0.3540
  151SAPE   O1216704   2.412   0.963  10.498  0.0069  0.0705  0.0272
  151SAPE   O1116705   2.474   0.724  10.438 -0.2476 -0.1442  0.4372
  151SAPE    C116706   2.580   0.770  10.363 -0.5349  0.2232  0.3790
  151SAPE    HA16707   2.607   0.874  10.391 -0.1097  0.4400 -0.8092
  151SAPE    HB16708   2.657   0.692  10.379  1.0424  1.6052 -0.2228
  151SAPE    C216709   2.550   0.777  10.209 -0.4236 -0.3649  0.3555
  151SAPE    HS16710   2.473   0.854  10.187 -0.4595 -0.4767  0.0754
  151SAPE   O2116711   2.521   0.646  10.157 -0.6422 -0.2186 -0.4368
  151SAPE   C2116712   2.450   0.649  10.053  0.5603  0.3353  0.4527
  151SAPE   O2216713   2.363   0.725  10.022  0.5387 -0.0104 -0.1908
  151SAPE   C2216714   2.504   0.542   9.950 -1.0848 -0.8387 -0.6182
  151SAPE   H2R16715   2.611   0.572   9.952 -1.6497  1.3602 -0.7873
  151SAPE   H2S16716   2.484   0.442   9.993 -4.5766 -0.1002 -0.2214
  151SAPE    C316717   2.682   0.821  10.130 -0.0985  0.8868 -0.0657
  151SAPE    HX16718   2.754   0.736  10.127 -0.8711  0.2381 -1.7005
  151SAPE    HY16719   2.727   0.915  10.167  0.8787  0.8506 -1.0959
  151SAPE   O3116720   2.652   0.838   9.994  0.7552 -0.1030 -0.0102
  151SAPE   C3116721   2.718   0.926   9.913  0.1263 -0.5503 -0.3255
  151SAPE   O3216722   2.792   1.015   9.957 -0.1886  0.1011  0.1807
  151SAPE   C3216723   2.695   0.889   9.768  0.8136  0.4559  0.1224
  151SAPE   H2X16724   2.684   0.779   9.762 -1.4313  0.7312 -2.5637
  151SAPE   H2Y16725   2.794   0.905   9.720  0.6508 -0.7449 -0.6543
  151SAPE   C2316726   2.447   0.555   9.806  0.3890 -0.0718 -0.3000
  151SAPE   H3R16727   2.493   0.645   9.760 -0.3716  0.8992  0.7974
  151SAPE   H3S16728   2.338   0.573   9.810  0.0312 -2.2239  2.4093
  151SAPE   C2416729   2.473   0.426   9.729 -0.3748 -0.7989  0.0911
  151SAPE   H4R16730   2.444   0.329   9.775  0.1878 -1.4939 -0.9762
  151SAPE   H4S16731   2.583   0.423   9.714 -0.4679  1.5592 -1.7074
  151SAPE   C2516732   2.406   0.430   9.587 -0.5794 -0.3726 -0.5669
  151SAPE   H5R16733   2.297   0.440   9.593 -0.7383 -2.4280  1.3782
  151SAPE   C2616734   2.468   0.421   9.465  0.2981 -0.6231 -0.1619
  151SAPE   H6R16735   2.401   0.417   9.377 -0.6907  0.4794  0.5082
  151SAPE   C2716736   2.612   0.411   9.441  0.2085  0.3448  0.8406
  151SAPE   H7R16737   2.678   0.473   9.505  1.9016 -0.1454 -0.3807
  151SAPE   H7S16738   2.628   0.455   9.341 -2.6290 -0.7651 -0.1982
  151SAPE   C2816739   2.649   0.265   9.454 -0.8420 -0.0482 -0.3703
  151SAPE   H8R16740   2.632   0.219   9.552 -0.5473 -1.5125 -0.9816
  151SAPE   C2916741   2.686   0.176   9.359 -0.0961  0.0701 -0.0583
  151SAPE   H9R16742   2.707   0.075   9.397 -0.1300  0.6222  1.4951
  151SAPE  C21016743   2.698   0.195   9.210 -0.1884 -0.2848 -0.5752
  151SAPE  H10R16744   2.807   0.189   9.191 -0.1644 -0.7645 -0.2830
  151SAPE  H10S16745   2.652   0.293   9.184  0.4280  0.3163  0.5137
  151SAPE  C21116746   2.625   0.073   9.150 -0.9605  0.1319 -0.6883
  151SAPE  H11R16747   2.548   0.019   9.207 -0.8796 -1.3820 -1.9373
  151SAPE  C21216748   2.655   0.010   9.030  0.1612 -0.3293  0.2012
  151SAPE  H12R16749   2.594  -0.076   9.001 -1.0433 -0.1176  1.9493
  151SAPE  C21316750   2.755   0.052   8.928  1.2432 -0.2400 -0.0206
  151SAPE  H13R16751   2.815   0.142   8.952 -0.6016  0.8222  0.7903
  151SAPE  H13S16752   2.695   0.083   8.839  0.5486 -1.9919 -0.2118
  151SAPE  C21416753   2.857  -0.055   8.915 -0.1647  0.0558  0.2732
  151SAPE  H14R16754   2.947  -0.042   8.977 -0.6349 -1.4916  1.3363
  151SAPE  C21516755   2.850  -0.153   8.827 -0.2313  0.9796  0.1256
  151SAPE  H15R16756   2.934  -0.223   8.824 -0.2007  1.0160  0.1540
  151SAPE  C21616757   2.738  -0.185   8.734 -0.2034 -0.0736  1.0225
  151SAPE  H16R16758   2.651  -0.124   8.765  0.9221  0.9552  2.2889
  151SAPE  H16S16759   2.715  -0.292   8.751  2.1699 -0.6738  0.8843
  151SAPE  C21716760   2.756  -0.163   8.584 -0.5786 -0.3126 -0.2354
  151SAPE  H17R16761   2.847  -0.221   8.555 -1.3426 -2.0082  0.6461
  151SAPE  H17S16762   2.761  -0.055   8.561  0.5732 -0.2865  0.0462
  151SAPE  C21816763   2.638  -0.215   8.497  0.4920  0.0220 -0.2677
  151SAPE  H18R16764   2.544  -0.156   8.496 -1.5949 -2.9776  1.4219
  151SAPE  H18S16765   2.609  -0.312   8.543  2.5373 -0.6380 -0.2441
  151SAPE  C21916766   2.689  -0.252   8.355  0.1188  0.6032 -0.0647
  151SAPE  H19R16767   2.737  -0.352   8.348 -0.9540  0.1305 -1.3382
  151SAPE  H19S16768   2.760  -0.173   8.323 -0.0808  0.8400  0.0710
  151SAPE  C22016769   2.564  -0.266   8.255 -0.4569  0.2994 -0.2169
  151SAPE  H20R16770   2.510  -0.351   8.302  1.6138 -1.0105 -0.0507
  151SAPE  H20S16771   2.593  -0.283   8.149 -0.3820  0.6287 -0.2478
  151SAPE  H20T16772   2.493  -0.181   8.260  0.6201  1.6170 -3.9618
  151SAPE   C3316773   2.592   0.964   9.694  0.3739 -0.0695  0.3399
  151SAPE   H3X16774   2.620   1.071   9.682 -0.5399  0.0035 -1.4235
  151SAPE   H3Y16775   2.500   0.947   9.755  0.4136 -1.6828 -0.0264
  151SAPE   C3416776   2.560   0.910   9.555 -0.1047  0.0997  0.7107
  151SAPE   H4X16777   2.521   0.809   9.578  1.1213 -1.3048 -2.6822
  151SAPE   H4Y16778   2.655   0.900   9.498 -1.1343 -2.3381 -0.7577
  151SAPE   C3516779   2.445   0.974   9.470  0.0682 -0.7390 -0.2304
  151SAPE   H5X16780   2.468   1.078   9.437 -1.0864 -1.1077 -2.3822
  151SAPE   H5Y16781   2.355   0.976   9.534  0.4638 -1.3219  0.3501
  151SAPE   C3616782   2.413   0.889   9.351  0.5539  0.6492 -0.3252
  151SAPE   H6X16783   2.367   0.794   9.384  0.4266  0.2767 -1.5472
  151SAPE   H6Y16784   2.509   0.876   9.297  1.0692  1.5759  0.3319
  151SAPE   C3716785   2.320   0.960   9.250  0.6131 -0.3023 -0.3007
  151SAPE   H7X16786   2.347   1.067   9.237 -0.6791  0.4167  2.3687
  151SAPE   H7Y16787   2.222   0.957   9.301  1.0026  0.9436  0.5793
  151SAPE   C3816788   2.317   0.877   9.109  0.0747 -0.3017 -0.3622
  151SAPE   H8X16789   2.252   0.937   9.043  2.0594 -0.1960 -2.3484
  151SAPE   H8Y16790   2.271   0.776   9.123 -0.0497 -0.4845 -1.9374
  151SAPE   C3916791   2.451   0.862   9.031  0.1031 -0.0538 -0.0690
  151SAPE   H9X16792   2.516   0.809   9.104 -0.2071 -1.7726 -0.9995
  151SAPE   H9Y16793   2.494   0.963   9.012  0.0175 -0.0365 -0.1677
  151SAPE  C31016794   2.448   0.771   8.900  0.5077 -0.4774  0.7744
  151SAPE  H10X16795   2.523   0.812   8.829  0.3367 -2.9198 -0.8978
  151SAPE  H10Y16796   2.344   0.765   8.863  0.4400  0.5185  0.7647
  151SAPE  C31116797   2.473   0.622   8.929  0.4780  0.0658  0.2891
  151SAPE  H11X16798   2.412   0.572   8.850  1.7255 -0.2392 -0.5071
  151SAPE  H11Y16799   2.431   0.604   9.030  1.0145  1.0510  0.7027
  151SAPE  C31216800   2.629   0.585   8.926 -0.1095  0.2502 -0.2730
  151SAPE  H12X16801   2.640   0.488   8.978  0.2261  0.2776 -0.2918
  151SAPE  H12Y16802   2.685   0.662   8.983 -0.3195 -1.8369  3.0345
  151SAPE  C31316803   2.684   0.576   8.784  0.2731  0.2673  0.9441
  151SAPE  H13X16804   2.789   0.543   8.805 -0.0390  0.5778  3.2534
  151SAPE  H13Y16805   2.681   0.679   8.745 -1.2103  0.1357  0.6544
  151SAPE  C31416806   2.609   0.487   8.685 -0.1197 -0.1142 -0.0722
  151SAPE  H14X16807   2.507   0.523   8.659 -1.1420 -0.5267  2.8967
  151SAPE  H14Y16808   2.587   0.398   8.747  0.7852  1.0296  2.0242
  151SAPE  C31516809   2.678   0.452   8.556  0.5749  0.3247 -0.7561
  151SAPE  H15X16810   2.719   0.544   8.508  1.0221  0.2315 -0.5639
  151SAPE  H15Y16811   2.594   0.414   8.494  1.3941 -1.0137 -1.0863
  151SAPE  C31616812   2.778   0.337   8.579  0.0102 -0.5643 -0.5515
  151SAPE  H16X16813   2.723   0.263   8.641 -2.2075  1.0127 -0.5057
  151SAPE  H16Y16814   2.856   0.374   8.648  0.2977 -1.5413 -0.3380
  151SAPE  C31716815   2.842   0.276   8.457 -0.0873 -0.6072  0.1620
  151SAPE  H17X16816   2.920   0.205   8.492  0.2039 -1.1628 -1.5347
  151SAPE  H17Y16817   2.901   0.357   8.409 -0.9370 -0.6082 -0.9395
  151SAPE  C31816818   2.752   0.196   8.371  0.1411 -0.1182  0.3190
  151SAPE  H18X16819   2.695   0.251   8.293 -0.9997 -1.9939 -0.2255
  151SAPE  H18Y16820   2.673   0.145   8.430  0.8511 -1.8356 -0.1605
  151SAPE  H18Z16821   2.796   0.119   8.304  0.3245 -1.1431  1.5776
  152SAPE     N16822   5.724   4.999  10.601  0.6281 -0.7537 -0.4262
  152SAPE   HN116823   5.801   4.982  10.533  0.2579  2.7092 -1.9479
  152SAPE   HN216824   5.634   4.964  10.563 -0.3466 -1.8926  2.6418
  152SAPE   HN316825   5.720   5.103  10.614  0.1504 -0.8523  0.2298
  152SAPE   C1216826   5.730   4.923  10.729 -0.1873  0.0375 -1.0116
  152SAPE  H12A16827   5.706   4.817  10.705  0.0749  0.0868 -1.5191
  152SAPE  H12B16828   5.665   4.980  10.799  2.2228  0.4883  1.0102
  152SAPE   C1116829   5.876   4.923  10.777  0.1658  0.4889 -0.5924
  152SAPE  H11A16830   5.862   4.860  10.868 -1.5203  0.9905 -0.4639
  152SAPE  H11B16831   5.903   5.026  10.807  1.7306 -0.5937  2.1374
  152SAPE     P16832   6.120   4.868  10.729  0.4957 -0.1251 -0.5140
  152SAPE   O1316833   6.128   4.895  10.878  0.3055 -0.3608  0.2534
  152SAPE   O1416834   6.180   4.744  10.677  0.0413 -0.5015 -0.6971
  152SAPE   O1216835   5.970   4.869  10.690  0.6107  0.0225  0.4506
  152SAPE   O1116836   6.184   4.979  10.651 -0.0302 -0.0252 -0.3011
  152SAPE    C116837   6.122   5.076  10.567  0.2807  0.4058 -0.0410
  152SAPE    HA16838   6.011   5.081  10.567  0.2977  2.5419 -1.8534
  152SAPE    HB16839   6.157   5.181  10.580 -2.2126  1.4510 -0.9849
  152SAPE    C216840   6.142   5.049  10.413 -0.5812 -0.5136  0.5141
  152SAPE    HS16841   6.066   5.110  10.359  0.9719 -0.5748 -1.8641
  152SAPE   O2116842   6.119   4.911  10.379  0.1126  0.1202  0.1257
  152SAPE   C2116843   5.991   4.870  10.381 -0.2294 -0.3787  0.0313
  152SAPE   O2216844   5.896   4.934  10.412 -0.0659  0.0805  0.4234
  152SAPE   C2216845   5.982   4.729  10.332 -0.1292  0.1106  0.0795
  152SAPE   H2R16846   6.039   4.663  10.401  1.3090 -0.1344 -1.2743
  152SAPE   H2S16847   5.879   4.696  10.310  0.3334 -1.3045 -0.0982
  152SAPE    C316848   6.284   5.099  10.364  0.0976 -0.1848  0.5395
  152SAPE    HX16849   6.343   5.051  10.444 -0.8456 -0.1329  1.2913
  152SAPE    HY16850   6.293   5.208  10.380 -0.7341  0.0973 -0.7329
  152SAPE   O3116851   6.328   5.054  10.239 -0.2768 -0.3939  0.4492
  152SAPE   C3116852   6.285   5.134  10.137  0.6752 -0.1962  0.0110
  152SAPE   O3216853   6.206   5.225  10.149 -0.4890 -0.2764 -0.4529
  152SAPE   C3216854   6.345   5.080  10.008  0.3212  0.0003  0.4196
  152SAPE   H2X16855   6.404   4.988  10.029 -1.2946 -0.7521  1.9792
  152SAPE   H2Y16856   6.407   5.166   9.974  1.9033 -1.4528 -0.5290
  152SAPE   C2316857   6.063   4.712  10.195  0.3398 -0.0301  0.6686
  152SAPE   H3R16858   6.131   4.625  10.207  3.6799  2.1498 -0.7321
  152SAPE   H3S16859   6.129   4.800  10.180  1.7524 -1.1043  0.3521
  152SAPE   C2416860   5.977   4.697  10.061 -0.4578  0.0194 -0.2190
  152SAPE   H4R16861   5.914   4.608  10.081  1.7259 -2.4775 -3.5332
  152SAPE   H4S16862   6.041   4.670   9.975  0.8086  2.3668 -0.1002
  152SAPE   C2516863   5.909   4.824  10.033  1.1487 -0.6061  0.5788
  152SAPE   H5R16864   5.929   4.907  10.102 -0.9482 -0.2475  0.8363
  152SAPE   C2616865   5.856   4.864   9.910  0.1185 -0.2856 -0.0821
  152SAPE   H6R16866   5.800   4.956   9.888 -0.2887 -0.3448  0.6805
  152SAPE   C2716867   5.862   4.770   9.794  0.2907  0.8567 -0.5968
  152SAPE   H7R16868   5.762   4.760   9.746  0.6099  0.2408 -1.1503
  152SAPE   H7S16869   5.873   4.669   9.840  1.1184  0.5088 -1.5279
  152SAPE   C2816870   5.966   4.794   9.690 -0.2561  0.4435 -0.3237
  152SAPE   H8R16871   6.068   4.793   9.731 -0.5871 -1.6469  0.5877
  152SAPE   C2916872   5.945   4.801   9.565 -0.4260  0.2194 -0.3359
  152SAPE   H9R16873   6.034   4.822   9.503  0.2334 -0.1375  0.4689
  152SAPE  C21016874   5.812   4.793   9.485 -0.0227 -0.1051  0.1334
  152SAPE  H10R16875   5.825   4.862   9.399 -0.0921  0.0909  0.2782
  152SAPE  H10S16876   5.738   4.851   9.545  0.0558  1.6903 -1.3981
  152SAPE  C21116877   5.752   4.664   9.447 -0.2601  0.1657 -0.2368
  152SAPE  H11R16878   5.682   4.609   9.511 -0.9807 -2.8759 -3.3547
  152SAPE  C21216879   5.753   4.612   9.323  0.2319 -0.2599  0.2630
  152SAPE  H12R16880   5.703   4.516   9.302  1.5921 -1.2555  1.4113
  152SAPE  C21316881   5.823   4.675   9.204 -0.0069 -0.3891 -0.9283
  152SAPE  H13R16882   5.933   4.672   9.219 -0.1998  2.8588  2.5302
  152SAPE  H13S16883   5.818   4.786   9.213  2.6065 -0.3539  1.1018
  152SAPE  C21416884   5.785   4.621   9.070 -0.2248 -0.1599  0.4746
  152SAPE  H14R16885   5.827   4.524   9.039  2.1169  0.6925  0.7976
  152SAPE  C21516886   5.693   4.669   8.988  0.2205  0.0724  0.2166
  152SAPE  H15R16887   5.672   4.619   8.892 -2.2877  0.3159  0.5836
  152SAPE  C21616888   5.604   4.787   9.024  1.0146  0.2162  0.0206
  152SAPE  H16R16889   5.660   4.874   9.066  0.2536  1.1458 -0.8287
  152SAPE  H16S16890   5.522   4.752   9.090  1.2686 -2.2543 -0.8618
  152SAPE  C21716891   5.539   4.847   8.897 -0.2225  0.1266 -0.5996
  152SAPE  H17R16892   5.457   4.912   8.934  1.4628  0.3763  3.1392
  152SAPE  H17S16893   5.508   4.776   8.817  1.4467 -0.2108 -0.9939
  152SAPE  C21816894   5.626   4.946   8.817 -0.0678  0.0655  0.5015
  152SAPE  H18R16895   5.712   4.894   8.770  0.6201  0.6739  1.0671
  152SAPE  H18S16896   5.676   5.006   8.896  3.0604 -0.8073 -0.6680
  152SAPE  C21916897   5.557   5.035   8.715 -0.0840  0.8100 -0.1554
  152SAPE  H19R16898   5.623   5.124   8.708 -1.2260  1.5920 -1.4488
  152SAPE  H19S16899   5.461   5.063   8.763 -0.4945 -1.3389  0.4206
  152SAPE  C22016900   5.537   4.966   8.580  0.2212  0.3506 -0.9614
  152SAPE  H20R16901   5.475   5.033   8.517 -2.2337 -0.0975  0.8559
  152SAPE  H20S16902   5.475   4.877   8.602  0.2715  1.0503  2.5853
  152SAPE  H20T16903   5.633   4.933   8.534  1.3210  1.9447  0.0606
  152SAPE   C3316904   6.235   5.054   9.904 -0.2541 -0.0596  0.0466
  152SAPE   H3X16905   6.145   5.002   9.945  0.3354 -1.3554 -0.2556
  152SAPE   H3Y16906   6.266   5.001   9.812 -3.5659 -1.9312 -0.1364
  152SAPE   C3416907   6.174   5.189   9.851 -0.2710  0.1662 -0.0889
  152SAPE   H4X16908   6.260   5.248   9.815  0.3251  0.4311  1.6522
  152SAPE   H4Y16909   6.129   5.254   9.930  0.5047  0.3686  0.1890
  152SAPE   C3516910   6.074   5.149   9.735  0.6359  0.3831  0.2885
  152SAPE   H5X16911   5.977   5.123   9.782  1.4415  0.3807  2.0396
  152SAPE   H5Y16912   6.103   5.057   9.680 -0.3663  0.0003  0.3862
  152SAPE   C3616913   6.058   5.259   9.634 -0.4074 -0.4765  0.3263
  152SAPE   H6X16914   6.154   5.306   9.602  0.4991 -1.3501  1.6622
  152SAPE   H6Y16915   6.002   5.334   9.692  0.3627 -0.5616  1.1975
  152SAPE   C3716916   6.000   5.213   9.499  0.1752 -0.1942 -0.9017
  152SAPE   H7X16917   5.966   5.309   9.455  0.9806  0.1313 -0.8326
  152SAPE   H7Y16918   5.914   5.146   9.519  0.1326  0.2646  0.5889
  152SAPE   C3816919   6.105   5.148   9.400  0.8363 -0.1542  0.8725
  152SAPE   H8X16920   6.146   5.050   9.433  0.5041 -0.5933  0.0175
  152SAPE   H8Y16921   6.194   5.213   9.393 -0.7654  2.0536 -0.5679
  152SAPE   C3916922   6.056   5.123   9.259 -0.2931  0.6135 -0.4664
  152SAPE   H9X16923   5.989   5.034   9.256  0.6773 -0.1642 -0.0514
  152SAPE   H9Y16924   6.155   5.099   9.214 -0.4535 -2.1034  0.4301
  152SAPE  C31016925   5.999   5.249   9.187 -0.4682 -0.4841 -0.4737
  152SAPE  H10X16926   6.051   5.341   9.221 -0.4667 -1.0439  1.1246
  152SAPE  H10Y16927   5.894   5.257   9.222  0.4923  2.1760  2.2352
  152SAPE  C31116928   6.017   5.235   9.040 -0.4887  1.1511 -0.4900
  152SAPE  H11X16929   6.065   5.136   9.026  1.6374  2.0039  0.2941
  152SAPE  H11Y16930   6.094   5.313   9.021 -1.2433  2.1128  0.2978
  152SAPE  C31216931   5.888   5.251   8.956  0.6065 -0.1119  0.6774
  152SAPE  H12X16932   5.842   5.350   8.980  0.8532  1.2607 -3.6995
  152SAPE  H12Y16933   5.822   5.167   8.987  0.7494 -0.4073  0.1830
  152SAPE  C31316934   5.902   5.270   8.806 -0.3964 -0.0415  0.5423
  152SAPE  H13X16935   5.817   5.309   8.747 -0.4646 -0.9557  0.0235
  152SAPE  H13Y16936   5.929   5.181   8.745  0.7362 -0.1325  1.1424
  152SAPE  C31416937   6.012   5.375   8.767  0.0148 -0.8208  0.5186
  152SAPE  H14X16938   6.105   5.344   8.818  1.9720 -0.0744 -2.3057
  152SAPE  H14Y16939   5.986   5.475   8.807 -0.1200 -1.7326  2.8205
  152SAPE  C31516940   6.015   5.383   8.617  0.6996  0.1215  0.4207
  152SAPE  H15X16941   5.914   5.422   8.591  1.0839  0.3387 -0.8527
  152SAPE  H15Y16942   6.024   5.281   8.574  0.7028  0.6649 -0.9231
  152SAPE  C31616943   6.121   5.479   8.569  0.2475 -0.0507  0.4170
  152SAPE  H16X16944   6.154   5.534   8.659  0.1125 -0.2680  0.6010
  152SAPE  H16Y16945   6.067   5.560   8.516  0.2630 -0.3410 -0.0494
  152SAPE  C31716946   6.238   5.414   8.496 -0.3628  0.0405  0.2013
  152SAPE  H17X16947   6.202   5.353   8.410 -0.1453  1.2906 -0.7943
  152SAPE  H17Y16948   6.289   5.350   8.572 -0.9377  0.5823  1.0543
  152SAPE  C31816949   6.339   5.513   8.430 -1.0142 -0.5367  0.4441
  152SAPE  H18X16950   6.302   5.562   8.337  0.3838 -0.0485  0.1233
  152SAPE  H18Y16951   6.427   5.447   8.411 -0.0571  0.7325  0.3782
  152SAPE  H18Z16952   6.357   5.598   8.498  0.3309 -0.1403 -0.3695
  153SAPE     N16953   4.767   6.057  10.538 -0.4167  0.1671  0.3422
  153SAPE   HN116954   4.714   6.036  10.624  0.4097  0.3195  0.9036
  153SAPE   HN216955   4.743   5.976  10.477  1.3827 -1.6858  1.9212
  153SAPE   HN316956   4.865   6.041  10.570 -0.0574 -2.4866 -1.7417
  153SAPE   C1216957   4.743   6.194  10.484 -0.0804  0.2287 -0.1840
  153SAPE  H12A16958   4.759   6.194  10.374  0.1491 -0.3976 -0.1550
  153SAPE  H12B16959   4.814   6.264  10.533  0.9761  0.2920 -1.7128
  153SAPE   C1116960   4.594   6.238  10.500  0.4434  0.2100 -0.0789
  153SAPE  H11A16961   4.531   6.165  10.444  1.1755  0.3301 -1.0840
  153SAPE  H11B16962   4.580   6.330  10.439 -2.7514 -0.3383 -0.3725
  153SAPE     P16963   4.578   6.379  10.718 -0.0681 -0.2353 -0.1206
  153SAPE   O1316964   4.478   6.376  10.833  0.1887  0.8086  0.3417
  153SAPE   O1416965   4.719   6.386  10.761 -0.2353 -0.1227 -0.1060
  153SAPE   O1216966   4.555   6.251  10.633 -0.0870  0.1392  0.3146
  153SAPE   O1116967   4.550   6.490  10.618  0.3052 -0.0507 -0.2898
  153SAPE    C116968   4.433   6.574  10.607 -0.3767  0.0342 -0.2013
  153SAPE    HA16969   4.382   6.592  10.704  0.0806 -0.8260  0.2131
  153SAPE    HB16970   4.462   6.670  10.560 -0.8406  0.2736 -0.0020
  153SAPE    C216971   4.335   6.517  10.502  0.5422  0.5976 -0.5996
  153SAPE    HS16972   4.315   6.411  10.528 -0.7560  0.7335 -0.9728
  153SAPE   O2116973   4.391   6.546  10.371  0.3273  0.4046  0.1434
  153SAPE   C2116974   4.363   6.447  10.276  0.2330 -0.2401 -0.0380
  153SAPE   O2216975   4.322   6.338  10.304  0.0772 -0.1322  0.4078
  153SAPE   C2216976   4.390   6.499  10.141 -0.1845  0.1985  0.4293
  153SAPE   H2R16977   4.300   6.551  10.102  1.0285  2.5276  0.5498
  153SAPE   H2S16978   4.467   6.578  10.150  0.5477 -0.6743  2.3990
  153SAPE    C316979   4.191   6.576  10.500  0.1127  0.4285  0.2940
  153SAPE    HX16980   4.195   6.687  10.492 -1.4064  0.4954  0.1506
  153SAPE    HY16981   4.142   6.556  10.598  0.2207 -0.8748  0.0943
  153SAPE   O3116982   4.102   6.533  10.386 -0.3136 -0.2972 -0.0589
  153SAPE   C3116983   4.039   6.425  10.396  0.3123  0.4362  0.3490
  153SAPE   O3216984   4.041   6.338  10.479 -0.0486 -0.2266 -0.1712
  153SAPE   C3216985   3.942   6.427  10.280 -0.2704 -0.2935 -0.7542
  153SAPE   H2X16986   3.889   6.525  10.281  1.4101  0.6324 -0.5891
  153SAPE   H2Y16987   3.865   6.347  10.291  0.5946 -1.0130  0.3845
  153SAPE   C2316988   4.444   6.385  10.059  0.0892 -0.1414 -0.1195
  153SAPE   H3R16989   4.372   6.300  10.064 -0.8281  0.6615  0.8686
  153SAPE   H3S16990   4.538   6.355  10.109  0.1476  0.5603  0.1941
  153SAPE   C2416991   4.474   6.423   9.916 -0.0645  0.5945  0.6641
  153SAPE   H4R16992   4.548   6.503   9.893  1.3293 -0.8916 -0.2389
  153SAPE   H4S16993   4.371   6.445   9.880  0.6275 -1.1430 -2.8174
  153SAPE   C2516994   4.519   6.298   9.842 -0.1008 -0.3432 -0.1424
  153SAPE   H5R16995   4.445   6.241   9.784  0.3866 -1.0224 -0.1221
  153SAPE   C2616996   4.649   6.251   9.845 -0.2270 -0.0533  0.0211
  153SAPE   H6R16997   4.671   6.162   9.785  0.7759  0.9670 -1.1732
  153SAPE   C2716998   4.776   6.302   9.908 -0.7465 -0.2347 -0.2237
  153SAPE   H7R16999   4.777   6.412   9.923  1.3706  0.0281 -1.7926
  153SAPE   H7S17000   4.870   6.284   9.851 -1.0240 -0.3375 -0.6581
  153SAPE   C2817001   4.783   6.247  10.046 -0.0376 -0.0883  0.0369
  153SAPE   H8R17002   4.739   6.300  10.132  0.5968 -0.8894  0.8716
  153SAPE   C2917003   4.843   6.130  10.063 -0.3182  0.2768  0.0826
  153SAPE   H9R17004   4.853   6.097  10.168 -1.6245 -0.5646 -0.0278
  153SAPE  C21017005   4.922   6.043   9.970 -0.1385  0.4288 -0.2668
  153SAPE  H10R17006   5.025   6.040  10.011 -0.0120  1.2234 -0.5069
  153SAPE  H10S17007   4.931   6.091   9.870  1.6586 -0.2767 -0.4866
  153SAPE  C21117008   4.878   5.902   9.962  0.2929 -0.4246 -0.1397
  153SAPE  H11R17009   4.863   5.857  10.061  1.2296  0.2395  0.3194
  153SAPE  C21217010   4.863   5.834   9.847  0.0497 -0.1568  0.2596
  153SAPE  H12R17011   4.828   5.730   9.852  1.6105 -0.7456 -0.2752
  153SAPE  C21317012   4.892   5.877   9.703 -0.5686  0.3108  0.3908
  153SAPE  H13R17013   4.951   5.795   9.656 -1.1706  0.9241 -1.5384
  153SAPE  H13S17014   4.952   5.970   9.697  1.8064 -1.2107 -2.6857
  153SAPE  C21417015   4.756   5.896   9.627  0.3613  0.2353 -0.1607
  153SAPE  H14R17016   4.660   5.896   9.681  0.8724  0.5913  0.7511
  153SAPE  C21517017   4.752   5.896   9.495  0.5016 -0.1891 -0.7012
  153SAPE  H15R17018   4.656   5.919   9.447 -0.1516 -1.6535 -0.1654
  153SAPE  C21617019   4.863   5.894   9.393 -0.6778  0.3993 -0.1107
  153SAPE  H16R17020   4.966   5.897   9.435 -0.1317 -2.2752 -1.0178
  153SAPE  H16S17021   4.842   5.986   9.336 -0.9831  0.5796  0.2850
  153SAPE  C21717022   4.854   5.769   9.305  0.3060  0.2558  0.3542
  153SAPE  H17R17023   4.754   5.778   9.258  0.4348 -0.4228 -0.0703
  153SAPE  H17S17024   4.859   5.670   9.354 -1.0489 -0.0452 -0.0678
  153SAPE  C21817025   4.963   5.782   9.190  0.2754  0.3221  0.4497
  153SAPE  H18R17026   5.065   5.798   9.233  0.8871  2.8403 -1.6792
  153SAPE  H18S17027   4.942   5.874   9.132  1.7679 -1.1083 -2.6167
  153SAPE  C21917028   4.956   5.664   9.087 -0.3067  0.2883 -0.6592
  153SAPE  H19R17029   4.856   5.647   9.044  0.4213 -2.7739 -1.3593
  153SAPE  H19S17030   4.978   5.573   9.146  2.9118  2.7451  2.4349
  153SAPE  C22017031   5.053   5.674   8.975  0.3300 -0.7948  0.5165
  153SAPE  H20R17032   5.038   5.584   8.911  2.3787 -1.7029  1.2420
  153SAPE  H20S17033   5.156   5.698   9.008  0.4341  0.2261 -0.4914
  153SAPE  H20T17034   5.024   5.762   8.913  1.0115  0.7555  2.3187
  153SAPE   C3317035   4.011   6.407  10.143 -0.4818  0.1003  0.1913
  153SAPE   H3X17036   4.082   6.321  10.146  1.2168  1.4648  0.9805
  153SAPE   H3Y17037   4.077   6.495  10.128 -0.7015  0.2319  0.0042
  153SAPE   C3417038   3.913   6.392  10.025 -0.0261 -0.0406 -0.3301
  153SAPE   H4X17039   3.830   6.464  10.041 -0.8909 -1.5027  2.4637
  153SAPE   H4Y17040   3.883   6.290  10.054  2.1562 -0.2825  1.3922
  153SAPE   C3517041   3.981   6.412   9.892  0.1367 -0.1269  0.4735
  153SAPE   H5X17042   4.071   6.347   9.887 -2.4373 -3.9354 -3.0675
  153SAPE   H5Y17043   4.010   6.519   9.887  0.0924 -0.1070  0.6276
  153SAPE   C3617044   3.889   6.381   9.773 -0.0235  0.1806 -0.0772
  153SAPE   H6X17045   3.807   6.456   9.774  1.1168  1.5323  2.3835
  153SAPE   H6Y17046   3.846   6.279   9.782  0.0152  0.2442  0.8929
  153SAPE   C3717047   3.949   6.395   9.631  0.6721 -0.1291  0.7714
  153SAPE   H7X17048   4.036   6.331   9.606  1.6681  1.9199 -1.3339
  153SAPE   H7Y17049   3.995   6.496   9.626  1.1450 -0.3537  0.5979
  153SAPE   C3817050   3.842   6.396   9.521  0.0970  0.1114 -0.3222
  153SAPE   H8X17051   3.766   6.474   9.546 -0.4161 -0.1916 -0.9257
  153SAPE   H8Y17052   3.789   6.299   9.518  0.0824  0.1502 -1.3837
  153SAPE   C3917053   3.895   6.437   9.381 -0.3112  0.0854  0.1473
  153SAPE   H9X17054   3.981   6.372   9.356 -1.3550 -0.0065 -3.9869
  153SAPE   H9Y17055   3.927   6.543   9.390  1.3208 -0.4289  0.6621
  153SAPE  C31017056   3.782   6.428   9.288  0.4475  0.1469 -0.4729
  153SAPE  H10X17057   3.702   6.500   9.318 -0.1196 -0.8177  0.3895
  153SAPE  H10Y17058   3.748   6.322   9.294  0.7823  0.0879  0.5735
  153SAPE  C31117059   3.816   6.461   9.137  0.2249 -0.2051 -1.0556
  153SAPE  H11X17060   3.902   6.397   9.107  0.1827 -0.6612 -0.2528
  153SAPE  H11Y17061   3.849   6.567   9.135  1.4730 -0.4076  2.1615
  153SAPE  C31217062   3.699   6.437   9.045 -0.3996 -0.5582 -0.2878
  153SAPE  H12X17063   3.614   6.495   9.087  0.4489  0.6786 -0.2256
  153SAPE  H12Y17064   3.666   6.332   9.025 -2.3107  0.1382 -1.0225
  153SAPE  C31317065   3.713   6.492   8.902  0.1913 -0.4305  0.3708
  153SAPE  H13X17066   3.627   6.454   8.842 -0.8609  0.4617  1.2630
  153SAPE  H13Y17067   3.809   6.462   8.857 -1.1472 -1.4669 -1.9948
  153SAPE  C31417068   3.697   6.647   8.891 -0.0758  0.3043  0.1571
  153SAPE  H14X17069   3.777   6.697   8.950 -0.2527  1.6168 -0.6848
  153SAPE  H14Y17070   3.604   6.675   8.945 -1.1197 -1.7097 -0.5063
  153SAPE  C31517071   3.692   6.694   8.745  0.3424  0.0170 -0.3703
  153SAPE  H15X17072   3.588   6.676   8.712 -0.2306 -0.1894  1.4431
  153SAPE  H15Y17073   3.750   6.628   8.676  1.7029 -0.5888  1.2615
  153SAPE  C31617074   3.722   6.838   8.718 -0.2985  0.1878  0.6517
  153SAPE  H16X17075   3.832   6.846   8.719 -0.2172 -0.9710  1.5465
  153SAPE  H16Y17076   3.674   6.898   8.798 -1.2334  1.0859 -0.5321
  153SAPE  C31717077   3.660   6.872   8.581 -0.0972  0.6144  0.2153
  153SAPE  H17X17078   3.550   6.872   8.593 -0.2186  0.4791 -0.7570
  153SAPE  H17Y17079   3.684   6.797   8.502 -2.8837 -0.4667  0.2840
  153SAPE  C31817080   3.715   7.002   8.525  0.6752 -0.4806  0.0195
  153SAPE  H18X17081   3.653   7.043   8.443  0.4978 -0.4454  0.1682
  153SAPE  H18Y17082   3.820   6.990   8.493  0.3009 -0.9106 -1.0778
  153SAPE  H18Z17083   3.724   7.076   8.607 -0.1592 -0.7370  0.3523
  154SAPE     N17084   4.486   5.243  10.755  0.5655 -0.2304  0.2364
  154SAPE   HN117085   4.440   5.327  10.797 -0.1839  0.4184 -1.8013
  154SAPE   HN217086   4.411   5.188  10.709  0.1923  0.6593 -0.2365
  154SAPE   HN317087   4.534   5.188  10.830 -1.1413  0.3370  1.8394
  154SAPE   C1217088   4.586   5.275  10.653 -0.3127 -0.2661  0.1133
  154SAPE  H12A17089   4.654   5.351  10.697  0.1498 -0.4094 -0.3413
  154SAPE  H12B17090   4.538   5.327  10.567  0.7238  1.8610  0.7435
  154SAPE   C1117091   4.666   5.153  10.602 -0.8886  0.1980  0.2381
  154SAPE  H11A17092   4.731   5.183  10.516 -0.0543  0.8956  1.0868
  154SAPE  H11B17093   4.590   5.089  10.553 -0.0993  1.6456 -3.1516
  154SAPE     P17094   4.797   4.935  10.682 -0.5913 -0.7466 -0.4065
  154SAPE   O1317095   4.901   4.890  10.786 -0.8680 -0.0105  0.6167
  154SAPE   O1417096   4.674   4.852  10.677  0.0413  0.2484  0.0252
  154SAPE   O1217097   4.749   5.085  10.702 -0.1764  0.4668  0.7561
  154SAPE   O1117098   4.874   4.931  10.540  0.7604  0.1360 -0.5496
  154SAPE    C117099   5.001   4.999  10.521 -0.1315 -0.1727 -0.1137
  154SAPE    HA17100   4.995   5.103  10.484 -3.5582 -0.6880 -1.3508
  154SAPE    HB17101   5.058   5.003  10.617  0.7460  0.9641 -0.6608
  154SAPE    C217102   5.099   4.927  10.421  0.6419 -0.6258 -0.5467
  154SAPE    HS17103   5.202   4.969  10.417  0.6751 -0.7800 -1.6272
  154SAPE   O2117104   5.045   4.911  10.292 -0.4143  0.2838  0.3729
  154SAPE   C2117105   5.073   5.008  10.209 -0.8813 -0.3116 -0.2813
  154SAPE   O2217106   5.141   5.104  10.237  0.0302 -0.2718  0.1198
  154SAPE   C2217107   5.020   4.971  10.077  0.0771  0.1790  0.4502
  154SAPE   H2R17108   5.076   4.880  10.045  1.7005  0.9475  0.9872
  154SAPE   H2S17109   4.910   4.959  10.086 -0.4698  0.0734 -3.9939
  154SAPE    C317110   5.124   4.794  10.487  0.4793 -0.4296 -0.2018
  154SAPE    HX17111   5.031   4.734  10.481  0.7649 -0.8719 -0.2177
  154SAPE    HY17112   5.141   4.789  10.596  1.3264 -0.1730 -0.3172
  154SAPE   O3117113   5.245   4.738  10.435 -0.3611 -0.8812 -0.2426
  154SAPE   C3117114   5.227   4.650  10.332 -0.1038 -0.4896  0.2385
  154SAPE   O3217115   5.115   4.624  10.286 -0.5273 -0.1897 -0.4106
  154SAPE   C3217116   5.370   4.597  10.280  0.4763 -0.1587 -0.1553
  154SAPE   H2X17117   5.354   4.492  10.248  2.4116 -0.4230 -0.3589
  154SAPE   H2Y17118   5.443   4.608  10.363 -0.9587  1.0429  1.0119
  154SAPE   C2317119   5.036   5.085   9.976  0.4509 -0.1986 -1.0057
  154SAPE   H3R17120   5.142   5.100   9.946  0.5653 -0.6931 -0.8504
  154SAPE   H3S17121   4.996   5.178  10.022  0.6701 -1.2986  1.5479
  154SAPE   C2417122   4.957   5.059   9.844 -0.8055 -0.3346  0.4077
  154SAPE   H4R17123   5.006   4.974   9.792 -1.0023  0.6405 -1.4936
  154SAPE   H4S17124   4.980   5.149   9.783 -0.0118 -1.7741 -1.5034
  154SAPE   C2517125   4.805   5.045   9.864 -0.5280 -0.3758  0.1493
  154SAPE   H5R17126   4.767   5.096   9.953  1.0627  0.2079  0.5391
  154SAPE   C2617127   4.726   4.990   9.779  0.1668 -0.3318  0.4481
  154SAPE   H6R17128   4.621   4.996   9.808  0.2679  1.1014  0.5574
  154SAPE   C2717129   4.754   4.930   9.639  0.0407  0.1723 -0.0455
  154SAPE   H7R17130   4.731   4.821   9.636 -0.4651  0.2810 -0.2495
  154SAPE   H7S17131   4.860   4.934   9.608 -0.3034 -0.9476 -1.4508
  154SAPE   C2817132   4.661   4.984   9.525 -0.0985  0.3433 -0.0403
  154SAPE   H8R17133   4.586   5.059   9.553 -1.0742 -1.0955  1.3728
  154SAPE   C2917134   4.658   4.948   9.397 -0.1872  0.4837 -0.1644
  154SAPE   H9R17135   4.585   5.004   9.335 -1.5834  0.8319  1.7072
  154SAPE  C21017136   4.750   4.853   9.327 -0.4846  0.2197 -0.0735
  154SAPE  H10R17137   4.717   4.748   9.341  0.1646 -0.0307 -0.4337
  154SAPE  H10S17138   4.848   4.850   9.379 -0.3853 -1.6041 -0.3192
  154SAPE  C21117139   4.758   4.885   9.182  0.8436  0.4747  0.0266
  154SAPE  H11R17140   4.676   4.948   9.145 -1.3904 -1.4548  1.4018
  154SAPE  C21217141   4.860   4.834   9.099 -0.1292 -0.0648  0.4244
  154SAPE  H12R17142   4.866   4.853   8.991  0.3882 -0.8778  0.3034
  154SAPE  C21317143   4.973   4.762   9.168 -0.2676 -0.6810 -0.4133
  154SAPE  H13R17144   4.982   4.662   9.121  0.0162 -0.2548 -1.2802
  154SAPE  H13S17145   4.962   4.741   9.277 -1.8547  2.2290  0.1002
  154SAPE  C21417146   5.095   4.844   9.150 -0.3876 -0.5919  0.0097
  154SAPE  H14R17147   5.110   4.915   9.233  1.2246 -1.9471  0.9522
  154SAPE  C21517148   5.182   4.836   9.045 -0.1136  0.3120  0.8002
  154SAPE  H15R17149   5.268   4.904   9.035 -1.7061  2.6194  1.9186
  154SAPE  C21617150   5.159   4.735   8.936  0.0271 -0.2741 -0.2980
  154SAPE  H16R17151   5.058   4.690   8.932 -1.1526  2.1488  0.1952
  154SAPE  H16S17152   5.241   4.661   8.949  0.4661  0.2017 -0.3250
  154SAPE  C21717153   5.182   4.812   8.800  0.3641  0.1588 -0.4923
  154SAPE  H17R17154   5.287   4.845   8.783  0.0339  3.8433  3.0630
  154SAPE  H17S17155   5.127   4.909   8.799  0.9097  0.5146  0.9869
  154SAPE  C21817156   5.140   4.710   8.689  0.4809  1.1805  0.0128
  154SAPE  H18R17157   5.033   4.697   8.717  0.9174 -1.0424  0.8200
  154SAPE  H18S17158   5.185   4.610   8.706  0.9551  1.1454 -1.3734
  154SAPE  C21917159   5.137   4.758   8.545 -0.1647  0.2698 -0.3299
  154SAPE  H19R17160   5.075   4.682   8.491  1.1826 -0.5692 -0.7494
  154SAPE  H19S17161   5.242   4.752   8.511  0.3524 -0.1564  1.2213
  154SAPE  C22017162   5.084   4.904   8.527  0.1641  0.2445  0.5724
  154SAPE  H20R17163   4.991   4.921   8.585 -0.0367  0.0318  0.3168
  154SAPE  H20S17164   5.067   4.916   8.418  1.3201 -0.7244  0.2647
  154SAPE  H20T17165   5.155   4.984   8.557  0.6087  0.5928 -1.2920
  154SAPE   C3317166   5.424   4.664  10.155  0.1233  0.4545 -0.1435
  154SAPE   H3X17167   5.523   4.616  10.139 -0.5312 -1.0842  0.2392
  154SAPE   H3Y17168   5.439   4.772  10.174 -0.6866  0.5803 -0.2169
  154SAPE   C3417169   5.327   4.658  10.035  0.1121  0.7741 -0.2933
  154SAPE   H4X17170   5.227   4.696  10.067  0.8212  2.1232  0.4122
  154SAPE   H4Y17171   5.307   4.551  10.013 -0.0760  0.2240  2.2533
  154SAPE   C3517172   5.370   4.718   9.901  0.0225  0.7848  0.0375
  154SAPE   H5X17173   5.481   4.709   9.907  0.1469  2.7660  2.2743
  154SAPE   H5Y17174   5.349   4.827   9.904  1.3264  1.1223 -1.2338
  154SAPE   C3617175   5.309   4.656   9.774  0.0616  0.9028  0.0687
  154SAPE   H6X17176   5.199   4.658   9.762  0.1211  2.7720 -0.4614
  154SAPE   H6Y17177   5.334   4.547   9.778  0.9675  1.1100  0.1477
  154SAPE   C3717178   5.370   4.718   9.650 -0.0664 -0.0406  0.0050
  154SAPE   H7X17179   5.481   4.708   9.646 -0.2014 -2.7671  0.7659
  154SAPE   H7Y17180   5.353   4.827   9.653 -0.1040 -0.0681  1.5092
  154SAPE   C3817181   5.315   4.669   9.513 -0.1956  0.0040  0.3656
  154SAPE   H8X17182   5.370   4.739   9.447  2.0481 -0.8361  1.2034
  154SAPE   H8Y17183   5.208   4.698   9.507  0.0030  0.6357 -0.2482
  154SAPE   C3917184   5.360   4.518   9.489  0.2601 -0.6975  0.8462
  154SAPE   H9X17185   5.296   4.459   9.558 -1.4907 -0.9481 -0.8950
  154SAPE   H9Y17186   5.468   4.515   9.514  0.7330  1.1768 -0.6954
  154SAPE  C31017187   5.351   4.466   9.341 -0.3553 -0.0862  0.2700
  154SAPE  H10X17188   5.436   4.514   9.289 -0.2928  2.7862  2.6919
  154SAPE  H10Y17189   5.255   4.504   9.299 -0.2805  3.7751  2.9971
  154SAPE  C31117190   5.350   4.309   9.322  0.0885 -0.5503 -0.3193
  154SAPE  H11X17191   5.247   4.269   9.336  0.4798 -1.3710  0.2764
  154SAPE  H11Y17192   5.419   4.262   9.396 -1.5728 -5.0869 -1.2756
  154SAPE  C31217193   5.403   4.270   9.181  0.3154 -0.2158  0.0539
  154SAPE  H12X17194   5.502   4.223   9.199  0.3124 -0.1661  0.2080
  154SAPE  H12Y17195   5.408   4.363   9.121 -1.5985  0.7330  1.2335
  154SAPE  C31317196   5.318   4.160   9.121  0.4993 -0.0879  0.1459
  154SAPE  H13X17197   5.216   4.199   9.102 -0.6268 -1.4630  2.8335
  154SAPE  H13Y17198   5.301   4.085   9.201  0.6167 -0.1634  0.1000
  154SAPE  C31417199   5.357   4.111   8.982  0.1594  0.0098  0.6498
  154SAPE  H14X17200   5.444   4.042   8.985  1.1754  1.2050 -0.3883
  154SAPE  H14Y17201   5.376   4.201   8.919  2.0190 -1.5584 -1.1471
  154SAPE  C31517202   5.237   4.026   8.918  0.7072 -0.5223  0.5360
  154SAPE  H15X17203   5.144   4.087   8.920  0.8365 -0.0726 -2.5620
  154SAPE  H15Y17204   5.218   3.956   9.002  0.3741  1.0521  1.8367
  154SAPE  C31617205   5.275   3.959   8.781 -0.2078  0.8244 -0.6255
  154SAPE  H16X17206   5.375   3.916   8.802 -0.2106  0.8572 -0.5445
  154SAPE  H16Y17207   5.279   4.033   8.698 -0.9342 -0.6006 -1.9781
  154SAPE  C31717208   5.177   3.851   8.743  0.0203  0.4422  1.0433
  154SAPE  H17X17209   5.074   3.890   8.729 -0.0926 -0.7215 -2.1668
  154SAPE  H17Y17210   5.177   3.775   8.824 -1.7938  0.7555  1.3900
  154SAPE  C31817211   5.198   3.778   8.606  0.2688 -0.2404 -1.0811
  154SAPE  H18X17212   5.169   3.840   8.519  0.0011 -0.3149 -1.0462
  154SAPE  H18Y17213   5.134   3.689   8.586  0.4719 -0.5274 -0.4821
  154SAPE  H18Z17214   5.302   3.741   8.594  0.2435 -0.6102 -0.2511
  155SAPE     N17215   5.709   1.651  10.836 -1.0184 -0.1416 -0.6109
  155SAPE   HN117216   5.734   1.751  10.834 -0.6017 -0.2302  0.0584
  155SAPE   HN217217   5.667   1.643  10.931 -1.3405  0.4977 -0.6951
  155SAPE   HN317218   5.787   1.582  10.832 -1.6284 -0.8524 -0.4966
  155SAPE   C1217219   5.619   1.625  10.726  0.0124  0.0676  0.1782
  155SAPE  H12A17220   5.525   1.680  10.747  0.1951  0.3695  0.2054
  155SAPE  H12B17221   5.590   1.517  10.726  1.8415 -0.4673  1.3892
  155SAPE   C1117222   5.689   1.651  10.589 -0.4766 -0.2058 -0.3975
  155SAPE  H11A17223   5.737   1.752  10.595  1.8584 -1.2055 -1.1911
  155SAPE  H11B17224   5.607   1.652  10.515 -0.7613  1.0438 -0.0974
  155SAPE     P17225   5.925   1.534  10.612 -0.2878  0.0277 -0.1649
  155SAPE   O1317226   5.917   1.501  10.755 -1.1685  0.2801 -0.2380
  155SAPE   O1417227   6.003   1.440  10.533 -0.0376 -0.2326 -0.3565
  155SAPE   O1217228   5.784   1.553  10.557 -0.1073 -0.2906 -0.1599
  155SAPE   O1117229   5.989   1.678  10.612  0.4023  0.2432  0.2362
  155SAPE    C117230   5.996   1.771  10.501  0.2999  0.5090  0.2583
  155SAPE    HA17231   5.906   1.771  10.436  1.4102  1.4813 -1.3335
  155SAPE    HB17232   5.995   1.873  10.543  0.1109  1.2783 -1.5353
  155SAPE    C217233   6.118   1.743  10.400  0.3517 -0.4788 -0.5229
  155SAPE    HS17234   6.125   1.823  10.323  1.4698  1.1152  1.1568
  155SAPE   O2117235   6.096   1.613  10.331  0.1589 -0.5038  0.0772
  155SAPE   C2117236   6.023   1.622  10.227 -0.1812  1.0311  0.5009
  155SAPE   O2217237   5.971   1.724  10.183  0.2744  0.0290  0.3697
  155SAPE   C2217238   6.003   1.485  10.157  0.6832  0.0311 -0.2957
  155SAPE   H2R17239   6.059   1.395  10.190  0.2521 -0.0660  0.1933
  155SAPE   H2S17240   5.899   1.449  10.173  0.4391  1.2114  0.9000
  155SAPE    C317241   6.259   1.753  10.467  0.3546  0.6943  0.3983
  155SAPE    HX17242   6.280   1.672  10.540 -0.7432 -0.4170 -0.4989
  155SAPE    HY17243   6.257   1.846  10.529  1.5873  1.0102 -0.0053
  155SAPE   O3117244   6.366   1.779  10.369  0.3147 -0.0274  0.1377
  155SAPE   C3117245   6.417   1.673  10.307  0.2457 -0.4858 -0.0336
  155SAPE   O3217246   6.387   1.560  10.333  0.0994  0.8235  0.2241
  155SAPE   C3217247   6.529   1.715  10.205  0.3540  0.0369  0.5182
  155SAPE   H2X17248   6.516   1.639  10.125 -1.7426 -1.7190  2.3899
  155SAPE   H2Y17249   6.633   1.689  10.235  0.7643  0.5358 -0.4447
  155SAPE   C2317250   6.032   1.499  10.007  0.3209 -0.5692 -0.2131
  155SAPE   H3R17251   6.137   1.535   9.998  0.5833 -1.2959 -0.1039
  155SAPE   H3S17252   5.966   1.574   9.957 -0.2143  0.6271  2.1697
  155SAPE   C2417253   6.031   1.365   9.925 -0.7584 -0.1588  0.4071
  155SAPE   H4R17254   6.060   1.288  10.000 -0.5609  0.0429  0.5405
  155SAPE   H4S17255   6.116   1.363   9.853 -0.5834 -1.5832  0.6351
  155SAPE   C2517256   5.906   1.332   9.842  0.0103 -0.5646  0.1849
  155SAPE   H5R17257   5.824   1.287   9.899  0.8826 -2.8120 -0.2173
  155SAPE   C2617258   5.897   1.322   9.705  0.4842 -0.0490 -0.6199
  155SAPE   H6R17259   5.800   1.304   9.658  0.1094 -0.1238  0.1627
  155SAPE   C2717260   6.002   1.328   9.604  0.3327  0.7827 -0.0550
  155SAPE   H7R17261   6.006   1.225   9.563 -1.2757  0.9318 -0.6774
  155SAPE   H7S17262   6.105   1.346   9.640  0.1900  0.4985  0.5061
  155SAPE   C2817263   5.983   1.430   9.502 -0.3891 -0.0422 -0.0545
  155SAPE   H8R17264   5.936   1.519   9.546 -0.2706 -1.1514  2.4735
  155SAPE   C2917265   6.027   1.415   9.374 -0.2554 -0.3169  0.1954
  155SAPE   H9R17266   6.027   1.501   9.305 -0.5826 -1.3498 -1.1317
  155SAPE  C21017267   6.086   1.296   9.299  0.1937  0.3001  0.0801
  155SAPE  H10R17268   6.019   1.277   9.213 -0.1463 -1.6543  0.7254
  155SAPE  H10S17269   6.078   1.208   9.367 -1.0866  1.3694  1.3820
  155SAPE  C21117270   6.228   1.312   9.250 -0.0394  0.3300 -0.1230
  155SAPE  H11R17271   6.306   1.277   9.319 -0.4932 -0.7486 -0.1387
  155SAPE  C21217272   6.265   1.374   9.141 -0.0359 -0.2412  0.3455
  155SAPE  H12R17273   6.371   1.395   9.121 -0.7187  3.2161 -0.3975
  155SAPE  C21317274   6.169   1.434   9.036 -0.0280 -0.1837 -0.0154
  155SAPE  H13R17275   6.065   1.395   9.046  0.0930 -1.7623 -3.6711
  155SAPE  H13S17276   6.204   1.406   8.935  0.1579  1.3636 -0.4099
  155SAPE  C21417277   6.166   1.580   9.053  0.7662 -0.4634  0.6676
  155SAPE  H14R17278   6.074   1.623   9.095  0.5954  0.7311 -0.8120
  155SAPE  C21517279   6.256   1.671   9.009  0.1695  0.5356  0.4123
  155SAPE  H15R17280   6.244   1.780   9.016 -0.6731  0.3590  2.1566
  155SAPE  C21617281   6.384   1.642   8.931  0.5851 -0.4127  0.0041
  155SAPE  H16R17282   6.418   1.539   8.951  2.6802  0.2192 -0.0855
  155SAPE  H16S17283   6.460   1.715   8.968 -0.7437  0.2504  1.5409
  155SAPE  C21717284   6.374   1.642   8.776  0.0246 -0.0344  0.9285
  155SAPE  H17R17285   6.347   1.748   8.754 -3.2108 -0.5848  1.7547
  155SAPE  H17S17286   6.288   1.584   8.737 -0.0513  0.5850  0.1376
  155SAPE  C21817287   6.506   1.589   8.704  0.8211 -0.0152 -0.1271
  155SAPE  H18R17288   6.532   1.483   8.725  0.8883 -0.3394 -1.7271
  155SAPE  H18S17289   6.592   1.653   8.733  0.6113 -0.5314  1.7409
  155SAPE  C21917290   6.493   1.579   8.551 -0.6778  0.0302 -0.2121
  155SAPE  H19R17291   6.452   1.479   8.526  0.7739 -0.7671  0.4426
  155SAPE  H19S17292   6.598   1.571   8.515 -0.3250 -1.8398  1.0417
  155SAPE  C22017293   6.421   1.692   8.471 -0.4179 -0.6634 -0.2856
  155SAPE  H20R17294   6.380   1.775   8.533  2.4992  1.3535 -0.8138
  155SAPE  H20S17295   6.349   1.636   8.407  0.7893 -2.4382 -0.1701
  155SAPE  H20T17296   6.501   1.739   8.409  0.5262 -0.1883  1.2265
  155SAPE   C3317297   6.508   1.851  10.134  0.6397  0.0440 -0.1789
  155SAPE   H3X17298   6.596   1.872  10.070  0.0405  2.6808 -0.2642
  155SAPE   H3Y17299   6.507   1.927  10.215  0.4395  1.6956 -1.6589
  155SAPE   C3417300   6.386   1.869  10.043 -0.1598  0.4116  0.0807
  155SAPE   H4X17301   6.377   1.972  10.001 -1.0871 -0.5270 -2.2244
  155SAPE   H4Y17302   6.297   1.858  10.109 -0.6392  0.7044 -0.5050
  155SAPE   C3517303   6.375   1.754   9.938  0.2248 -0.1873  0.0595
  155SAPE   H5X17304   6.353   1.661   9.995  0.0901  0.4638  1.1130
  155SAPE   H5Y17305   6.469   1.749   9.879  1.2506  2.8406  1.2556
  155SAPE   C3617306   6.264   1.792   9.839 -0.1138  0.8195  0.5857
  155SAPE   H6X17307   6.301   1.881   9.783  2.0664 -0.5672 -0.2789
  155SAPE   H6Y17308   6.170   1.820   9.892 -1.1332  1.3932 -1.3992
  155SAPE   C3717309   6.245   1.675   9.732 -0.2770  0.3232  0.0637
  155SAPE   H7X17310   6.221   1.577   9.779 -0.2188 -1.8283 -3.9687
  155SAPE   H7Y17311   6.348   1.664   9.691 -0.5677  0.6487 -0.7729
  155SAPE   C3817312   6.140   1.711   9.633 -0.0294 -0.5455 -0.6957
  155SAPE   H8X17313   6.041   1.721   9.682  0.9075 -0.4135  1.2632
  155SAPE   H8Y17314   6.125   1.637   9.552 -0.0164 -0.7584 -0.5040
  155SAPE   C3917315   6.178   1.840   9.562 -0.3072 -0.0395 -0.3673
  155SAPE   H9X17316   6.279   1.821   9.520  0.3441  1.0622  0.6472
  155SAPE   H9Y17317   6.171   1.926   9.633 -2.0150 -1.2383  1.0234
  155SAPE  C31017318   6.095   1.862   9.427  0.2089  0.7004 -0.1800
  155SAPE  H10X17319   5.993   1.893   9.460 -0.3011 -1.7380  0.7987
  155SAPE  H10Y17320   6.086   1.771   9.363  0.7834 -0.4821  1.3428
  155SAPE  C31117321   6.163   1.964   9.341  0.7272 -0.3042 -0.1305
  155SAPE  H11X17322   6.265   1.929   9.314  0.5996  0.2000 -1.3307
  155SAPE  H11Y17323   6.168   2.060   9.396 -0.6436 -1.1393  1.5500
  155SAPE  C31217324   6.081   1.996   9.213 -0.0757 -0.1122 -0.7225
  155SAPE  H12X17325   5.986   2.049   9.237  1.1354  2.7032 -1.7783
  155SAPE  H12Y17326   6.057   1.897   9.168 -3.1733 -0.1581  0.7418
  155SAPE  C31317327   6.160   2.080   9.106 -0.3406 -0.2456 -0.7477
  155SAPE  H13X17328   6.253   2.028   9.074  0.2835  1.2078 -1.3642
  155SAPE  H13Y17329   6.181   2.175   9.159  0.0166 -0.9205  0.3522
  155SAPE  C31417330   6.072   2.110   8.986 -0.5773 -0.1172 -0.0137
  155SAPE  H14X17331   5.962   2.122   8.998 -0.8068 -1.3168 -0.6964
  155SAPE  H14Y17332   6.068   2.024   8.915 -1.4683  0.6485 -0.9124
  155SAPE  C31517333   6.108   2.230   8.893  0.3086 -0.0673 -0.7423
  155SAPE  H15X17334   6.215   2.219   8.865  0.5236  0.2094 -0.0560
  155SAPE  H15Y17335   6.095   2.323   8.952 -0.2119 -0.9430  0.5891
  155SAPE  C31617336   6.014   2.251   8.765  0.6255 -0.8347 -0.1606
  155SAPE  H16X17337   5.908   2.266   8.794  0.1947  1.6541 -2.6708
  155SAPE  H16Y17338   6.016   2.157   8.706 -1.8402 -1.7968  1.1254
  155SAPE  C31717339   6.065   2.375   8.690 -0.1516  0.3968  0.1397
  155SAPE  H17X17340   6.165   2.340   8.656 -0.7723  0.8045 -2.3043
  155SAPE  H17Y17341   6.078   2.464   8.755 -1.6926  1.5347 -1.0383
  155SAPE  C31817342   5.986   2.411   8.568 -0.0070 -0.4766  0.0354
  155SAPE  H18X17343   6.027   2.476   8.487 -0.8688  0.6436  0.4738
  155SAPE  H18Y17344   5.894   2.465   8.599  0.3498  0.2733 -0.1802
  155SAPE  H18Z17345   5.961   2.316   8.515  0.1655 -0.2560 -0.4494
  156SAPE     N17346   3.066   6.028  10.799  0.2644  0.6244 -0.1628
  156SAPE   HN117347   3.147   5.965  10.784  1.1473  1.1672  1.9113
  156SAPE   HN217348   3.043   6.009  10.899  1.4265  0.0536  0.0221
  156SAPE   HN317349   2.987   5.992  10.743  0.0106  3.2250 -1.6334
  156SAPE   C1217350   3.098   6.177  10.789  1.6196  0.4118  0.1845
  156SAPE  H12A17351   2.999   6.227  10.796  0.3399 -1.7247 -1.4049
  156SAPE  H12B17352   3.129   6.190  10.683  0.6762  1.1181 -0.0162
  156SAPE   C1117353   3.217   6.211  10.881 -0.0620 -0.2900 -0.0171
  156SAPE  H11A17354   3.183   6.188  10.984 -0.7262 -0.2608 -0.2235
  156SAPE  H11B17355   3.225   6.322  10.884 -0.7393 -0.2446  0.3852
  156SAPE     P17356   3.408   6.027  10.916  0.1504 -0.4328 -0.1770
  156SAPE   O1317357   3.543   6.010  10.858 -0.5641  0.0485 -0.2377
  156SAPE   O1417358   3.394   6.029  11.063  0.4733 -0.1156  0.0053
  156SAPE   O1217359   3.344   6.162  10.850 -0.0712  0.9093  0.3556
  156SAPE   O1117360   3.311   5.922  10.860  0.3074 -0.2128 -0.6370
  156SAPE    C117361   3.342   5.798  10.809  0.2741 -0.3505 -1.0414
  156SAPE    HA17362   3.400   5.729  10.875 -1.0523 -1.2507 -0.7847
  156SAPE    HB17363   3.247   5.740  10.808 -0.0024  0.0590  0.2697
  156SAPE    C217364   3.392   5.803  10.663 -0.1944 -0.5664  0.2550
  156SAPE    HS17365   3.503   5.796  10.669 -0.3051 -1.4316  1.6462
  156SAPE   O2117366   3.346   5.924  10.600 -0.1673 -0.2712  0.2890
  156SAPE   C2117367   3.429   5.983  10.521 -0.6025  0.4734 -0.0347
  156SAPE   O2217368   3.547   5.954  10.508  0.3739 -0.2318  0.5604
  156SAPE   C2217369   3.355   6.068  10.426  0.2594 -0.4365  0.0451
  156SAPE   H2R17370   3.250   6.029  10.423  0.4513 -0.9544 -0.1024
  156SAPE   H2S17371   3.352   6.170  10.469  0.7433 -0.6061  0.4964
  156SAPE    C317372   3.348   5.673  10.602  0.3104 -0.2600  0.1616
  156SAPE    HX17373   3.237   5.676  10.588  0.1494 -2.7144  0.4726
  156SAPE    HY17374   3.373   5.594  10.676 -3.0822 -1.7810 -0.1114
  156SAPE   O3117375   3.412   5.650  10.471 -0.2981  0.0646 -0.0915
  156SAPE   C3117376   3.540   5.609  10.473  0.0960  0.4284 -0.2508
  156SAPE   O3217377   3.602   5.564  10.568  0.1057 -0.0174  0.7126
  156SAPE   C3217378   3.597   5.632  10.336  0.2397 -0.4503  0.9052
  156SAPE   H2X17379   3.703   5.601  10.342  1.4494  3.5186  3.2209
  156SAPE   H2Y17380   3.612   5.738  10.309  1.5683 -0.5924  1.0297
  156SAPE   C2317381   3.418   6.074  10.289 -0.5976  0.5183  0.1479
  156SAPE   H3R17382   3.427   5.969  10.253 -0.1965  0.6701 -0.2061
  156SAPE   H3S17383   3.520   6.118  10.292 -0.3522 -0.0669  0.5428
  156SAPE   C2417384   3.349   6.162  10.190  0.5687  0.1895  1.4117
  156SAPE   H4R17385   3.402   6.148  10.094 -1.5189  0.0675  0.2260
  156SAPE   H4S17386   3.363   6.271  10.207 -1.9868  1.2858 -2.3663
  156SAPE   C2517387   3.202   6.131  10.160  0.1504 -0.4074 -0.2969
  156SAPE   H5R17388   3.128   6.188  10.218 -1.2426 -1.5062 -0.9242
  156SAPE   C2617389   3.157   6.028  10.078 -0.3762 -0.2723 -0.8903
  156SAPE   H6R17390   3.054   6.018  10.041  0.0582 -2.0069 -1.7555
  156SAPE   C2717391   3.244   5.938   9.996  0.5927  0.3346  0.0073
  156SAPE   H7R17392   3.207   5.833   9.998  3.4005 -0.7265  0.0859
  156SAPE   H7S17393   3.347   5.927  10.034  0.4704  1.1480  0.5791
  156SAPE   C2817394   3.267   5.991   9.859  0.7649  0.1692  0.3078
  156SAPE   H8R17395   3.349   6.064   9.857  1.9861 -1.1625  0.5812
  156SAPE   C2917396   3.216   5.961   9.734 -0.7025 -0.2838 -0.5624
  156SAPE   H9R17397   3.265   6.007   9.647  0.6994 -1.0242 -0.1911
  156SAPE  C21017398   3.115   5.862   9.699 -0.6290 -0.2709 -0.4837
  156SAPE  H10R17399   3.074   5.810   9.788 -3.1832  1.2205 -0.6827
  156SAPE  H10S17400   3.151   5.795   9.618  1.2699 -1.8582  1.5684
  156SAPE  C21117401   2.998   5.944   9.642  0.7060 -0.2186 -0.4899
  156SAPE  H11R17402   2.920   5.963   9.717  0.2606 -0.5652 -0.8585
  156SAPE  C21217403   2.976   5.983   9.517  0.5754  0.8772  0.1884
  156SAPE  H12R17404   2.888   6.045   9.497  0.8381  0.9538 -0.7717
  156SAPE  C21317405   3.074   5.968   9.402  0.3211  1.0074 -0.0377
  156SAPE  H13R17406   3.143   5.881   9.409 -2.9924 -1.8230 -0.2622
  156SAPE  H13S17407   3.132   6.062   9.396  1.0208  0.5724 -0.2408
  156SAPE  C21417408   2.998   5.942   9.277 -0.2799 -0.2471  0.2125
  156SAPE  H14R17409   2.889   5.947   9.273 -0.1767  2.4801 -0.8276
  156SAPE  C21517410   3.049   5.903   9.155 -0.2381 -0.8106 -0.3690
  156SAPE  H15R17411   2.986   5.870   9.071 -0.0292  0.3436 -0.9998
  156SAPE  C21617412   3.196   5.874   9.129 -0.4174  0.0874  0.0528
  156SAPE  H16R17413   3.224   5.779   9.180  1.8132 -0.3381 -1.7982
  156SAPE  H16S17414   3.259   5.949   9.181  0.7853 -1.1739  0.4729
  156SAPE  C21717415   3.246   5.866   8.980  0.0159  0.1384 -0.5879
  156SAPE  H17R17416   3.221   5.764   8.943  0.3602 -1.1741  2.4730
  156SAPE  H17S17417   3.357   5.876   8.987 -0.1550  1.0274  2.3505
  156SAPE  C21817418   3.180   5.968   8.885 -0.1331  0.2829 -0.0798
  156SAPE  H18R17419   3.198   6.054   8.953  0.6469 -0.9235  1.3000
  156SAPE  H18S17420   3.070   5.961   8.872 -0.0714 -2.7133  0.1526
  156SAPE  C21917421   3.266   5.979   8.762  0.0434 -0.7067  0.3396
  156SAPE  H19R17422   3.262   5.887   8.701 -1.3833 -1.3854  1.4200
  156SAPE  H19S17423   3.371   5.980   8.798  0.1017 -0.3445  0.1687
  156SAPE  C22017424   3.235   6.101   8.678 -0.5912 -0.6076  0.4906
  156SAPE  H20R17425   3.221   6.192   8.740 -3.3888 -0.2981 -0.4679
  156SAPE  H20S17426   3.137   6.089   8.628  0.4923 -2.0549 -1.4318
  156SAPE  H20T17427   3.312   6.115   8.599 -2.1381  0.2488 -0.9139
  156SAPE   C3317428   3.505   5.577  10.222 -0.2878 -0.0168  0.0707
  156SAPE   H3X17429   3.407   5.628  10.212  0.2240  1.0809  0.4939
  156SAPE   H3Y17430   3.484   5.470  10.244 -2.3466 -0.4190 -3.1312
  156SAPE   C3417431   3.579   5.573  10.083 -0.3427 -0.5144 -0.2529
  156SAPE   H4X17432   3.615   5.469  10.065  1.6765 -0.2043  1.5354
  156SAPE   H4Y17433   3.669   5.638  10.078  0.5380 -1.2425  3.3234
  156SAPE   C3517434   3.497   5.604   9.954 -0.4330 -0.7203 -0.0540
  156SAPE   H5X17435   3.462   5.709   9.947  0.1786 -0.5220 -0.2603
  156SAPE   H5Y17436   3.411   5.535   9.941  0.6909 -1.8266 -2.1049
  156SAPE   C3617437   3.594   5.604   9.828  0.1783 -0.4681 -0.4519
  156SAPE   H6X17438   3.652   5.509   9.835  0.3573 -0.3357 -0.1511
  156SAPE   H6Y17439   3.669   5.686   9.830 -1.3852  1.0112  1.6651
  156SAPE   C3717440   3.509   5.627   9.701  0.0319  0.6138 -0.0416
  156SAPE   H7X17441   3.463   5.728   9.705 -1.1960  0.0993 -0.6045
  156SAPE   H7Y17442   3.430   5.549   9.710  0.6253  0.2271  2.5040
  156SAPE   C3817443   3.590   5.604   9.578 -0.1330  0.3857 -0.4599
  156SAPE   H8X17444   3.637   5.504   9.589 -0.0447  0.3951 -0.7445
  156SAPE   H8Y17445   3.677   5.673   9.574  1.8949 -2.0108 -0.5882
  156SAPE   C3917446   3.520   5.635   9.452  0.5555  0.8429  0.1458
  156SAPE   H9X17447   3.495   5.743   9.447 -0.7325  0.5592  0.1383
  156SAPE   H9Y17448   3.425   5.577   9.452 -0.1334  1.8823  1.8230
  156SAPE  C31017449   3.607   5.608   9.327 -0.4664 -0.0915 -0.9980
  156SAPE  H10X17450   3.655   5.508   9.328 -0.4961 -0.1348  0.8825
  156SAPE  H10Y17451   3.686   5.686   9.318 -0.8435  0.3836 -0.3129
  156SAPE  C31117452   3.527   5.625   9.193 -0.0810 -0.3142 -0.8028
  156SAPE  H11X17453   3.517   5.735   9.188 -1.9613 -0.3658  0.8022
  156SAPE  H11Y17454   3.422   5.590   9.199  0.0561 -0.6347 -0.1150
  156SAPE  C31217455   3.599   5.573   9.072  0.1933  0.2666  0.3905
  156SAPE  H12X17456   3.585   5.463   9.084 -1.3229  0.5498  1.6109
  156SAPE  H12Y17457   3.709   5.586   9.078  0.1982 -0.2813  2.5757
  156SAPE  C31317458   3.533   5.621   8.940  0.3221  0.0864  0.0385
  156SAPE  H13X17459   3.522   5.731   8.940 -2.7652 -0.1075 -1.5625
  156SAPE  H13Y17460   3.434   5.575   8.920  0.6241 -0.2664 -0.7051
  156SAPE  C31417461   3.611   5.594   8.807  0.5258 -0.0197  0.0912
  156SAPE  H14X17462   3.608   5.483   8.804 -2.1865  0.0083 -0.0195
  156SAPE  H14Y17463   3.712   5.636   8.827 -0.0168  1.4870 -0.1937
  156SAPE  C31517464   3.540   5.666   8.689 -0.1214  0.0509 -0.0127
  156SAPE  H15X17465   3.539   5.776   8.705  0.7874 -0.2458  2.6516
  156SAPE  H15Y17466   3.439   5.623   8.674 -0.6523  2.1416 -3.4710
  156SAPE  C31617467   3.618   5.646   8.562  0.6461  0.0312  0.7226
  156SAPE  H16X17468   3.648   5.540   8.548  0.4643 -0.0790  1.1355
  156SAPE  H16Y17469   3.712   5.705   8.569  0.0143  1.9323 -3.7042
  156SAPE  C31717470   3.542   5.676   8.431 -0.2433  0.1201 -0.9066
  156SAPE  H17X17471   3.528   5.786   8.420 -2.6456 -0.2205 -1.7337
  156SAPE  H17Y17472   3.439   5.635   8.431 -0.0864 -0.4574 -3.7691
  156SAPE  C31817473   3.609   5.615   8.311  0.2141 -0.6398 -0.2185
  156SAPE  H18X17474   3.707   5.659   8.280  0.6209 -2.0935 -1.1062
  156SAPE  H18Y17475   3.544   5.635   8.223  0.9556  0.6544 -0.5019
  156SAPE  H18Z17476   3.622   5.505   8.319  1.0402 -0.5744 -0.4918
  157SAPE     N17477   2.122   6.295  10.733  0.8290 -0.6239 -0.2448
  157SAPE   HN117478   2.214   6.280  10.780  0.1427  3.1136  2.7652
  157SAPE   HN217479   2.083   6.216  10.678 -1.0329  0.0544  0.0507
  157SAPE   HN317480   2.128   6.371  10.662 -0.6279  3.6508  3.7311
  157SAPE   C1217481   2.026   6.334  10.843  0.1830  1.3575  0.4522
  157SAPE  H12A17482   2.073   6.407  10.913  0.4567  1.9487 -0.3264
  157SAPE  H12B17483   1.990   6.246  10.899  1.2260 -0.1023 -1.0752
  157SAPE   C1117484   1.898   6.408  10.791  0.2500 -0.2713  0.1272
  157SAPE  H11A17485   1.928   6.497  10.732  0.4318 -0.9246 -0.7857
  157SAPE  H11B17486   1.835   6.448  10.873 -0.1816  2.8690 -1.6028
  157SAPE     P17487   1.732   6.203  10.748 -0.3593 -0.0931  0.1328
  157SAPE   O1317488   1.768   6.152  10.890  0.2314 -0.0415  0.7342
  157SAPE   O1417489   1.594   6.247  10.724 -0.2154  0.0271  0.2193
  157SAPE   O1217490   1.826   6.321  10.703 -0.0117  0.4632  0.1361
  157SAPE   O1117491   1.766   6.075  10.658 -0.4733 -0.0478  0.1999
  157SAPE    C117492   1.659   5.989  10.624 -0.3980  0.4681 -0.4224
  157SAPE    HA17493   1.607   5.951  10.714  2.5720  0.8914  1.5890
  157SAPE    HB17494   1.596   6.046  10.552 -2.3683  0.3235  1.1180
  157SAPE    C217495   1.720   5.870  10.552  0.3066  0.2341 -0.5417
  157SAPE    HS17496   1.798   5.819  10.612  1.9504  0.1464 -2.6186
  157SAPE   O2117497   1.774   5.912  10.428  0.2571 -0.1382  0.2049
  157SAPE   C2117498   1.862   5.824  10.376 -0.5719 -0.1168 -0.3174
  157SAPE   O2217499   1.899   5.723  10.434  0.2412 -0.0224 -0.1644
  157SAPE   C2217500   1.940   5.896  10.268  0.2345  0.7088  0.8721
  157SAPE   H2R17501   1.954   6.001  10.300 -0.2544  0.6904  1.1575
  157SAPE   H2S17502   2.037   5.842  10.252 -2.3192 -3.7354 -1.8198
  157SAPE    C317503   1.606   5.764  10.535  0.4749  0.2792  0.2022
  157SAPE    HX17504   1.588   5.725  10.638  1.2630  0.7148  0.5221
  157SAPE    HY17505   1.653   5.682  10.477 -1.4493  1.8579 -3.9261
  157SAPE   O3117506   1.489   5.822  10.475  0.3155  0.0682  0.6889
  157SAPE   C3117507   1.488   5.809  10.339  0.0761 -0.6015 -0.3883
  157SAPE   O3217508   1.579   5.757  10.281 -0.4801 -0.9929  0.2893
  157SAPE   C3217509   1.372   5.887  10.277 -0.1312 -0.1053  0.5239
  157SAPE   H2X17510   1.362   5.990  10.319 -1.0222  0.5276 -1.1712
  157SAPE   H2Y17511   1.275   5.839  10.305  0.4193 -0.7016  1.4737
  157SAPE   C2317512   1.867   5.890  10.130 -0.0987  0.3983 -0.3644
  157SAPE   H3R17513   1.896   5.966  10.054 -0.5400 -0.9373 -1.9492
  157SAPE   H3S17514   1.761   5.908  10.158  0.1555 -0.3196  1.1477
  157SAPE   C2417515   1.888   5.753  10.056  0.2585  0.2948  0.0124
  157SAPE   H4R17516   1.884   5.679  10.139 -0.5335  0.7194  0.3653
  157SAPE   H4S17517   1.991   5.749  10.015 -0.5317  0.5126 -2.1074
  157SAPE   C2517518   1.788   5.718   9.946 -0.3092 -0.2910  1.1748
  157SAPE   H5R17519   1.710   5.642   9.964 -1.5585 -0.3649 -3.4763
  157SAPE   C2617520   1.791   5.781   9.829  0.0583  0.2051 -1.1163
  157SAPE   H6R17521   1.709   5.748   9.763 -2.4571  1.0742  1.3749
  157SAPE   C2717522   1.897   5.887   9.785 -0.3029 -0.1973  0.5068
  157SAPE   H7R17523   1.978   5.841   9.724  0.1930 -0.2572  1.1989
  157SAPE   H7S17524   1.940   5.938   9.874  2.5876 -1.2751 -0.1632
  157SAPE   C2817525   1.834   5.984   9.686  0.2061 -0.0279  0.7511
  157SAPE   H8R17526   1.734   6.024   9.713 -0.3315 -0.2307 -0.8409
  157SAPE   C2917527   1.887   6.031   9.575 -0.2604  0.3422  0.5309
  157SAPE   H9R17528   1.819   6.099   9.522 -0.3698  1.1151  1.6272
  157SAPE  C21017529   2.014   6.007   9.502 -0.2871  0.2692 -0.2369
  157SAPE  H10R17530   2.094   5.981   9.575 -0.7121  2.5082  1.1278
  157SAPE  H10S17531   2.039   6.106   9.460 -2.1320  1.6432  1.6652
  157SAPE  C21117532   1.980   5.893   9.412 -0.0300  0.1255  0.1846
  157SAPE  H11R17533   1.956   5.795   9.456  0.9500 -0.5353 -0.7150
  157SAPE  C21217534   1.976   5.897   9.277  0.4128 -0.2334  0.4874
  157SAPE  H12R17535   1.937   5.810   9.221 -2.2775 -0.3713  2.3852
  157SAPE  C21317536   2.003   6.023   9.196  0.3807  0.3588  0.1690
  157SAPE  H13R17537   2.050   5.998   9.099 -0.2599 -2.1379  0.4487
  157SAPE  H13S17538   2.059   6.095   9.259  0.9124 -1.2479  1.6011
  157SAPE  C21417539   1.869   6.086   9.152  0.8753 -0.4874 -0.0087
  157SAPE  H14R17540   1.810   6.133   9.232 -0.6526 -0.7322 -0.9423
  157SAPE  C21517541   1.814   6.113   9.030 -0.6520  0.1078  0.8392
  157SAPE  H15R17542   1.719   6.168   9.028 -0.3149  0.6883  0.5198
  157SAPE  C21617543   1.879   6.085   8.898  0.8075 -0.1600  0.4127
  157SAPE  H16R17544   1.989   6.100   8.904  0.9609 -0.0752 -1.7376
  157SAPE  H16S17545   1.844   6.157   8.820  1.9693  0.8460  0.7812
  157SAPE  C21717546   1.841   5.937   8.859 -0.2401  0.0918  0.0928
  157SAPE  H17R17547   1.733   5.916   8.849 -0.3326  1.4431 -2.3017
  157SAPE  H17S17548   1.886   5.863   8.930  1.1380  0.9232  0.1202
  157SAPE  C21817549   1.923   5.908   8.730 -0.7561 -0.5465 -0.6514
  157SAPE  H18R17550   2.030   5.898   8.758 -0.9072 -0.2729  0.0765
  157SAPE  H18S17551   1.908   5.988   8.654  0.0875 -0.2200 -0.4798
  157SAPE  C21917552   1.891   5.768   8.673 -0.0497 -0.6581  0.0473
  157SAPE  H19R17553   1.782   5.766   8.652  0.2055  3.2526 -2.7375
  157SAPE  H19S17554   1.920   5.681   8.735 -0.1091  0.1828  1.2916
  157SAPE  C22017555   1.944   5.749   8.526  0.5385 -0.2969  0.8757
  157SAPE  H20R17556   1.892   5.671   8.467 -0.0716 -0.4419  1.5935
  157SAPE  H20S17557   2.048   5.710   8.524  0.0735 -1.6607  1.4954
  157SAPE  H20T17558   1.938   5.848   8.477  2.2433  0.6040  2.3354
  157SAPE   C3317559   1.382   5.915  10.123  0.4807  0.4107  0.2612
  157SAPE   H3X17560   1.278   5.929  10.085  0.3831 -1.4221 -0.2351
  157SAPE   H3Y17561   1.418   5.828  10.064  0.7008  1.6268 -1.4763
  157SAPE   C3417562   1.470   6.038  10.103 -0.6630 -0.9586  0.3343
  157SAPE   H4X17563   1.574   6.009  10.128 -0.1803 -0.8082 -1.3497
  157SAPE   H4Y17564   1.438   6.119  10.171 -2.3272 -0.0166 -1.4528
  157SAPE   C3517565   1.459   6.108   9.967 -0.1107 -0.6107 -0.0753
  157SAPE   H5X17566   1.461   6.042   9.877 -3.4122  0.6254 -1.2194
  157SAPE   H5Y17567   1.529   6.194   9.966 -2.6917  1.6298  0.0741
  157SAPE   C3617568   1.312   6.175   9.952  0.5307 -0.3860 -0.3430
  157SAPE   H6X17569   1.280   6.229  10.043  0.6858  0.9568 -1.0512
  157SAPE   H6Y17570   1.247   6.086   9.944  0.9787 -0.9168  1.4727
  157SAPE   C3717571   1.284   6.262   9.835  0.2533 -0.8307  0.5553
  157SAPE   H7X17572   1.321   6.210   9.744  0.2402  0.2492 -0.0788
  157SAPE   H7Y17573   1.333   6.360   9.849  0.7458 -1.3345  2.7948
  157SAPE   C3817574   1.138   6.296   9.804  0.8370 -0.7975 -0.4307
  157SAPE   H8X17575   1.097   6.356   9.888 -1.0579  0.3539 -2.0976
  157SAPE   H8Y17576   1.074   6.205   9.812 -0.4705  0.2438  1.7815
  157SAPE   C3917577   1.121   6.370   9.670  0.0596  0.1311 -0.5348
  157SAPE   H9X17578   1.200   6.447   9.663 -1.3330  1.6095 -0.7864
  157SAPE   H9Y17579   1.032   6.436   9.676  0.4369  0.6055 -0.0560
  157SAPE  C31017580   1.110   6.282   9.551  0.0493 -0.6926 -0.1006
  157SAPE  H10X17581   1.025   6.210   9.557 -0.5515  0.0276  0.0749
  157SAPE  H10Y17582   1.197   6.213   9.557  0.9177  0.2727 -1.1076
  157SAPE  C31117583   1.117   6.361   9.411  0.2491 -0.4745 -0.1519
  157SAPE  H11X17584   1.166   6.460   9.411 -1.4637  0.3982  0.3443
  157SAPE  H11Y17585   1.008   6.376   9.399 -0.1884  0.0817  3.4968
  157SAPE  C31217586   1.168   6.282   9.290  0.0030 -0.1486 -0.2253
  157SAPE  H12X17587   1.146   6.173   9.303 -0.3585  0.0619  1.0770
  157SAPE  H12Y17588   1.278   6.293   9.293 -0.1810  1.8341  0.2566
  157SAPE  C31317589   1.109   6.336   9.163  0.1518  0.1677  0.6065
  157SAPE  H13X17590   1.128   6.445   9.155 -2.3783  0.8278  2.3255
  157SAPE  H13Y17591   0.998   6.337   9.160  0.1701  1.2187 -1.2422
  157SAPE  C31417592   1.150   6.259   9.038 -0.1156 -0.0978  0.0288
  157SAPE  H14X17593   1.259   6.280   9.028 -0.4376  1.4457 -0.4739
  157SAPE  H14Y17594   1.104   6.297   8.944 -1.5303  2.8119  1.7609
  157SAPE  C31517595   1.132   6.106   9.051  0.6238  0.1577 -0.0937
  157SAPE  H15X17596   1.022   6.095   9.067  0.5987 -1.3086 -1.1264
  157SAPE  H15Y17597   1.193   6.049   9.124 -1.8892 -2.1307  0.3840
  157SAPE  C31617598   1.163   6.034   8.910 -0.2552  0.4053  0.2514
  157SAPE  H16X17599   1.183   5.926   8.925 -1.6230  0.2234  0.9113
  157SAPE  H16Y17600   1.251   6.087   8.867 -0.1804 -0.7284 -1.0450
  157SAPE  C31717601   1.053   6.041   8.809 -0.4364  0.0149  0.6819
  157SAPE  H17X17602   1.022   6.147   8.803  2.1213  0.9039  1.6580
  157SAPE  H17Y17603   0.969   5.980   8.849 -1.0217 -0.4773 -1.2197
  157SAPE  C31817604   1.085   5.968   8.682 -0.3757  0.4657  0.0225
  157SAPE  H18X17605   1.083   5.861   8.710 -1.0190  0.4505 -0.0725
  157SAPE  H18Y17606   1.182   5.993   8.635 -0.9415  0.3824 -1.2204
  157SAPE  H18Z17607   1.011   5.983   8.600 -0.3599  1.2691  0.1422
  158SAPE     N17608   2.906   1.066  10.711 -0.1568  0.0629  0.4005
  158SAPE   HN117609   2.893   1.158  10.665 -1.5435  0.2141  1.0539
  158SAPE   HN217610   2.880   1.073  10.812 -0.4808  0.3169  0.2989
  158SAPE   HN317611   3.008   1.042  10.706 -0.7645 -2.5464 -1.8136
  158SAPE   C1217612   2.833   0.963  10.632  0.2713  0.2248  0.1718
  158SAPE  H12A17613   2.728   0.998  10.630  0.0929 -0.2633  0.6674
  158SAPE  H12B17614   2.841   0.867  10.688 -0.6551 -0.5359 -0.9622
  158SAPE   C1117615   2.892   0.940  10.493 -0.4637  0.0747  0.3267
  158SAPE  H11A17616   2.900   1.035  10.438 -2.3638  0.8962  1.3587
  158SAPE  H11B17617   2.815   0.879  10.441 -0.8995 -0.2734  1.3355
  158SAPE     P17618   3.040   0.726  10.434  0.2919  0.2671  0.2580
  158SAPE   O1317619   3.184   0.700  10.439  0.1620 -0.2993 -0.5240
  158SAPE   O1417620   2.946   0.633  10.504  0.4435 -0.7192  0.1178
  158SAPE   O1217621   3.020   0.868  10.489 -0.5012 -0.1665  0.4872
  158SAPE   O1117622   3.003   0.750  10.284  0.3916 -0.2933  0.2565
  158SAPE    C117623   3.075   0.844  10.200  0.1066  0.6575  0.0209
  158SAPE    HA17624   3.045   0.947  10.229  0.6104  0.4316  1.4619
  158SAPE    HB17625   3.184   0.848  10.219 -0.0522  1.0289  0.9452
  158SAPE    C217626   3.042   0.813  10.056 -0.0402  0.2702 -0.1772
  158SAPE    HS17627   2.933   0.835  10.049 -0.2635 -0.6994  0.1488
  158SAPE   O2117628   3.075   0.673  10.026 -0.2970  0.4822  0.2972
  158SAPE   C2117629   2.992   0.630   9.926 -0.9057  0.5906 -0.0574
  158SAPE   O2217630   2.899   0.689   9.876 -0.1119 -0.4508  0.1609
  158SAPE   C2217631   3.056   0.493   9.886 -0.1638  0.0638  0.0415
  158SAPE   H2R17632   3.153   0.510   9.835 -0.6726 -1.7304 -1.6270
  158SAPE   H2S17633   3.088   0.443   9.980 -1.1758  0.0274  0.3801
  158SAPE    C317634   3.126   0.906   9.955  0.1271 -1.0138 -0.0992
  158SAPE    HX17635   3.228   0.897   9.997  2.2894 -0.3638 -4.6897
  158SAPE    HY17636   3.090   1.010   9.971 -0.4879 -1.1381 -0.6242
  158SAPE   O3117637   3.127   0.860   9.821 -0.5347  0.0457  0.9353
  158SAPE   C3117638   3.122   0.961   9.734 -0.3511  0.6527 -0.7027
  158SAPE   O3217639   3.107   1.078   9.760 -0.5618 -0.0564  0.2957
  158SAPE   C3217640   3.148   0.919   9.597 -0.2259 -0.0777  0.1235
  158SAPE   H2X17641   3.053   0.874   9.559 -0.0992 -0.2988  0.0716
  158SAPE   H2Y17642   3.229   0.844   9.585 -1.2487 -1.1400 -0.3745
  158SAPE   C2317643   2.950   0.414   9.809 -0.6750  0.2457 -0.2505
  158SAPE   H3R17644   2.851   0.422   9.860 -1.3738 -0.7159 -1.3955
  158SAPE   H3S17645   2.970   0.306   9.823  0.1670  0.5492  1.0932
  158SAPE   C2417646   2.936   0.451   9.661  0.2752  0.3152  0.3907
  158SAPE   H4R17647   2.893   0.553   9.656 -1.7930 -0.4575  1.1527
  158SAPE   H4S17648   2.850   0.390   9.626  1.0981 -2.7428  3.1771
  158SAPE   C2517649   3.059   0.417   9.572 -0.5656 -0.3318  0.1847
  158SAPE   H5R17650   3.112   0.328   9.607 -0.6258 -1.5259 -2.5075
  158SAPE   C2617651   3.114   0.475   9.462 -0.6619 -0.0408 -0.5093
  158SAPE   H6R17652   3.205   0.428   9.423  0.1728  1.0780  0.0198
  158SAPE   C2717653   3.061   0.596   9.386 -0.5616 -0.3627 -0.1595
  158SAPE   H7R17654   3.144   0.648   9.335  1.4655 -1.6935  1.5923
  158SAPE   H7S17655   3.015   0.675   9.449 -1.7269 -0.2107 -1.1537
  158SAPE   C2817656   2.963   0.555   9.290 -0.4541  0.4901  0.2677
  158SAPE   H8R17657   2.883   0.492   9.331 -0.6244  0.4346 -0.1478
  158SAPE   C2917658   2.950   0.598   9.165 -0.1239  1.1069  0.4875
  158SAPE   H9R17659   2.882   0.545   9.097  2.2684 -0.7877 -0.6156
  158SAPE  C21017660   3.047   0.694   9.089 -0.3815  0.4226 -0.3250
  158SAPE  H10R17661   3.049   0.658   8.984 -1.5868 -1.9933  0.3915
  158SAPE  H10S17662   3.152   0.674   9.119 -1.0380  0.2670  2.1019
  158SAPE  C21117663   2.994   0.829   9.114 -0.0284  0.1375  0.6010
  158SAPE  H11R17664   3.007   0.857   9.220 -0.2106 -1.9023  1.1960
  158SAPE  C21217665   2.937   0.909   9.019  0.1576 -0.8076 -0.0586
  158SAPE  H12R17666   2.903   1.008   9.053 -0.3909 -1.3094  0.9016
  158SAPE  C21317667   2.901   0.872   8.876 -0.7202 -0.5532 -0.3821
  158SAPE  H13R17668   2.822   0.942   8.840 -0.5005 -0.3037 -0.3778
  158SAPE  H13S17669   2.868   0.766   8.876  2.3757 -1.6282  0.7078
  158SAPE  C21417670   3.022   0.879   8.787  0.4570  0.5863  0.0140
  158SAPE  H14R17671   3.121   0.889   8.833 -0.4477 -0.0221  2.2027
  158SAPE  C21517672   3.016   0.875   8.656  0.3203  0.5036  0.4644
  158SAPE  H15R17673   3.112   0.876   8.602  0.0328 -1.5316 -0.1610
  158SAPE  C21617674   2.892   0.861   8.565 -0.4726 -0.0026  0.3843
  158SAPE  H16R17675   2.885   0.951   8.500 -0.8092 -0.2951  0.0140
  158SAPE  H16S17676   2.801   0.851   8.627 -1.5435  1.9458 -0.7505
  158SAPE  C21717677   2.907   0.736   8.482 -0.0920  0.3027  0.3047
  158SAPE  H17R17678   2.805   0.719   8.441 -0.9562  0.3284  2.3245
  158SAPE  H17S17679   2.921   0.646   8.545 -0.2453 -0.4904 -0.7637
  158SAPE  C21817680   3.015   0.736   8.369  0.1357  0.0269 -0.3571
  158SAPE  H18R17681   3.113   0.763   8.414  0.9263 -0.1938 -1.8816
  158SAPE  H18S17682   2.989   0.824   8.306 -1.7792 -0.2435 -0.0046
  158SAPE  C21917683   3.028   0.607   8.294  0.5757 -0.1053 -0.3399
  158SAPE  H19R17684   3.041   0.526   8.369  1.3038  1.2137  1.0200
  158SAPE  H19S17685   3.118   0.623   8.231 -0.5652 -0.0458 -2.0273
  158SAPE  C22017686   2.915   0.572   8.196 -0.1208 -0.3071  0.1543
  158SAPE  H20R17687   2.862   0.659   8.150 -1.6239 -0.8786  0.7185
  158SAPE  H20S17688   2.826   0.523   8.242 -0.1437 -2.0753 -1.5865
  158SAPE  H20T17689   2.958   0.513   8.112  1.0679  0.5401  0.1526
  158SAPE   C3317690   3.173   1.034   9.500  1.0106 -0.0521  0.9194
  158SAPE   H3X17691   3.254   1.007   9.428  2.2008 -0.7781  2.4580
  158SAPE   H3Y17692   3.217   1.129   9.536  0.9002  0.6148 -0.6370
  158SAPE   C3417693   3.042   1.078   9.438  0.0172  0.1307 -0.2931
  158SAPE   H4X17694   2.966   1.110   9.513  1.2376  2.1433  0.1720
  158SAPE   H4Y17695   2.984   0.999   9.385 -1.5154 -0.6663  2.3861
  158SAPE   C3517696   3.052   1.199   9.346  0.3828  0.6458 -0.4698
  158SAPE   H5X17697   3.099   1.285   9.398  1.1756 -0.2875  0.4051
  158SAPE   H5Y17698   2.950   1.236   9.320  0.5470  1.1547 -0.3976
  158SAPE   C3617699   3.118   1.177   9.219  0.2651 -0.4526  0.4353
  158SAPE   H6X17700   3.059   1.099   9.165 -0.4429  0.1663  0.2955
  158SAPE   H6Y17701   3.223   1.147   9.239  0.6634  2.1280  2.7812
  158SAPE   C3717702   3.124   1.306   9.138  0.5136  0.2500 -0.4764
  158SAPE   H7X17703   3.167   1.385   9.204  1.3828 -0.1078 -0.6022
  158SAPE   H7Y17704   3.025   1.347   9.109  0.0611  0.2353  0.9670
  158SAPE   C3817705   3.206   1.288   9.012  0.2465  0.3773 -0.2953
  158SAPE   H8X17706   3.153   1.206   8.959 -2.1053  1.6566 -0.0946
  158SAPE   H8Y17707   3.314   1.264   9.025 -0.7731 -4.0032  1.9923
  158SAPE   C3917708   3.203   1.405   8.916  0.6943 -0.7508 -0.2883
  158SAPE   H9X17709   3.268   1.478   8.970  3.8763 -1.3000 -3.0131
  158SAPE   H9Y17710   3.104   1.453   8.903  0.2209 -1.2307  1.3071
  158SAPE  C31017711   3.262   1.378   8.776 -0.3601  0.0391  0.0812
  158SAPE  H10X17712   3.205   1.302   8.718  1.6895  0.3992 -2.6006
  158SAPE  H10Y17713   3.363   1.332   8.778 -0.6821 -0.6824  0.3618
  158SAPE  C31117714   3.275   1.500   8.701  0.2413 -1.1556 -0.4618
  158SAPE  H11X17715   3.331   1.568   8.768 -1.4239 -1.5999  1.4659
  158SAPE  H11Y17716   3.171   1.538   8.696  0.4691 -0.1288  1.7647
  158SAPE  C31217717   3.334   1.481   8.559  0.2895 -0.9075  0.1062
  158SAPE  H12X17718   3.282   1.402   8.502  0.1304 -0.6596 -0.0961
  158SAPE  H12Y17719   3.443   1.457   8.558 -0.2330 -3.5391 -0.6140
  158SAPE  C31317720   3.324   1.621   8.483  0.5302  0.2586 -0.2276
  158SAPE  H13X17721   3.385   1.697   8.537  0.9620 -0.2349 -0.0078
  158SAPE  H13Y17722   3.218   1.654   8.486  0.2435 -0.6222 -0.3780
  158SAPE  C31417723   3.366   1.623   8.338 -0.6398  0.4892  0.1001
  158SAPE  H14X17724   3.309   1.541   8.290 -1.5881  1.4202 -0.4223
  158SAPE  H14Y17725   3.467   1.579   8.325 -1.6708 -1.8982 -0.3967
  158SAPE  C31517726   3.346   1.758   8.259 -0.2663 -0.0099  0.1020
  158SAPE  H15X17727   3.400   1.838   8.313 -0.8166  0.2092  0.3394
  158SAPE  H15Y17728   3.236   1.774   8.261 -0.8901 -3.1818 -1.6799
  158SAPE  C31617729   3.394   1.751   8.113 -0.7502 -0.1905  0.2625
  158SAPE  H16X17730   3.380   1.849   8.063 -0.4693 -1.1460 -1.7952
  158SAPE  H16Y17731   3.333   1.683   8.050 -0.0671  0.5157 -1.2289
  158SAPE  C31717732   3.547   1.720   8.103 -0.5002  0.1400 -0.5169
  158SAPE  H17X17733   3.569   1.613   8.123 -2.3178  0.0821  1.4254
  158SAPE  H17Y17734   3.594   1.782   8.182  2.1231 -0.3810 -1.5271
  158SAPE  C31817735   3.600   1.762   7.968 -0.5629 -0.5945  0.0783
  158SAPE  H18X17736   3.539   1.728   7.882 -0.3942 -0.4054 -0.1172
  158SAPE  H18Y17737   3.709   1.743   7.958 -0.8786 -2.3116 -0.4157
  158SAPE  H18Z17738   3.596   1.873   7.960  0.6133 -0.5942 -0.7916
  159SAPE     N17739   2.825   3.280   6.579 -0.1373  0.2587 -0.3078
  159SAPE   HN117740   2.730   3.296   6.619 -0.8034 -0.4675 -1.5024
  159SAPE   HN217741   2.874   3.226   6.653  0.2065 -0.2373 -0.8848
  159SAPE   HN317742   2.870   3.373   6.581 -0.6279  0.4818  1.4586
  159SAPE   C1217743   2.810   3.215   6.443  0.5346 -0.3349 -0.5712
  159SAPE  H12A17744   2.755   3.119   6.459  1.2687 -0.5804  0.6304
  159SAPE  H12B17745   2.917   3.200   6.421  0.8880  2.9965 -1.6562
  159SAPE   C1117746   2.734   3.314   6.353 -0.9982 -0.1224  0.4664
  159SAPE  H11A17747   2.722   3.253   6.261  1.4325 -0.8621  0.5766
  159SAPE  H11B17748   2.783   3.413   6.345 -0.0744 -0.7210 -2.8179
  159SAPE     P17749   2.495   3.382   6.316 -0.1065 -0.2277  0.1208
  159SAPE   O1317750   2.530   3.517   6.266  0.4228  0.2789 -0.5737
  159SAPE   O1417751   2.469   3.283   6.216  0.1019 -0.2301  0.6025
  159SAPE   O1217752   2.607   3.331   6.410  0.1810  0.6455  0.4990
  159SAPE   O1117753   2.367   3.393   6.410  0.5157  0.3608 -0.5655
  159SAPE    C117754   2.344   3.478   6.519 -0.2055  0.0995 -0.4020
  159SAPE    HA17755   2.361   3.585   6.491 -0.4152 -0.0090 -0.9510
  159SAPE    HB17756   2.240   3.475   6.559  0.7744  1.5280  2.6272
  159SAPE    C217757   2.428   3.475   6.649  0.4717 -0.1533 -0.2272
  159SAPE    HS17758   2.534   3.484   6.617  0.0748 -0.9570 -1.9070
  159SAPE   O2117759   2.390   3.351   6.718 -0.1054 -0.2505  0.2772
  159SAPE   C2117760   2.492   3.269   6.751 -0.5732  0.2598 -0.4025
  159SAPE   O2217761   2.610   3.298   6.730 -0.8089 -0.7324  0.0675
  159SAPE   C2217762   2.443   3.134   6.815 -0.6783  0.1088 -0.1383
  159SAPE   H2R17763   2.352   3.101   6.760  1.0179 -1.6016 -2.0662
  159SAPE   H2S17764   2.521   3.059   6.789 -1.8687 -1.5249  0.7757
  159SAPE    C317765   2.385   3.589   6.748 -0.4077  0.4455 -0.3396
  159SAPE    HX17766   2.275   3.601   6.743 -0.3681  0.8370 -0.3062
  159SAPE    HY17767   2.421   3.683   6.702 -1.1923 -0.6093 -3.3693
  159SAPE   O3117768   2.425   3.564   6.891 -0.0906  0.2277  0.2473
  159SAPE   C3117769   2.554   3.599   6.900 -0.6259 -0.3518  1.1041
  159SAPE   O3217770   2.628   3.645   6.814 -0.1669  0.0606  0.0298
  159SAPE   C3217771   2.603   3.566   7.043  0.7012 -0.2577 -0.2537
  159SAPE   H2X17772   2.713   3.565   7.056  0.7457  2.5252  0.1643
  159SAPE   H2Y17773   2.587   3.457   7.064 -0.2299 -0.3463 -1.3306
  159SAPE   C2317774   2.414   3.149   6.969  0.2460 -0.3702 -1.0422
  159SAPE   H3R17775   2.318   3.101   6.999  0.8737 -0.6102  0.6564
  159SAPE   H3S17776   2.393   3.256   6.990 -2.1104 -0.9801  0.1150
  159SAPE   C2417777   2.525   3.109   7.070  0.2382 -0.6456  0.2928
  159SAPE   H4R17778   2.605   3.182   7.044 -0.6219  0.2184  0.0187
  159SAPE   H4S17779   2.569   3.008   7.058 -0.9669 -1.1667  0.0825
  159SAPE   C2517780   2.476   3.131   7.206  0.5738  0.0707  0.0624
  159SAPE   H5R17781   2.457   3.234   7.242 -0.5573 -0.4068  0.9248
  159SAPE   C2617782   2.454   3.039   7.297 -0.0350 -0.2166  0.1868
  159SAPE   H6R17783   2.404   3.065   7.391 -0.9787 -4.3151  0.9771
  159SAPE   C2717784   2.472   2.896   7.283  0.1223 -0.4205  0.4810
  159SAPE   H7R17785   2.488   2.854   7.181 -0.2099 -1.5766  0.8927
  159SAPE   H7S17786   2.377   2.847   7.312 -1.5476  2.4904  0.3238
  159SAPE   C2817787   2.597   2.844   7.358 -0.0076 -0.2999 -0.2185
  159SAPE   H8R17788   2.696   2.846   7.310 -0.5863  3.4429 -1.6071
  159SAPE   C2917789   2.581   2.810   7.487  0.5421  0.5903 -0.2253
  159SAPE   H9R17790   2.665   2.762   7.541  0.0376  1.5815  1.5371
  159SAPE  C21017791   2.455   2.821   7.575  0.1025  0.4120 -0.2118
  159SAPE  H10R17792   2.366   2.799   7.512  0.5238 -0.7032 -0.4416
  159SAPE  H10S17793   2.449   2.925   7.614 -1.2767  0.5112 -0.6459
  159SAPE  C21117794   2.466   2.714   7.684  0.0191 -0.0466 -0.5936
  159SAPE  H11R17795   2.440   2.612   7.651 -1.3004  0.2999 -0.6879
  159SAPE  C21217796   2.506   2.733   7.811  0.4749  0.0229 -0.7585
  159SAPE  H12R17797   2.526   2.651   7.881  1.9193  2.3606  1.7671
  159SAPE  C21317798   2.545   2.865   7.873 -0.0433  0.3715 -0.3883
  159SAPE  H13R17799   2.468   2.898   7.946  0.5429  4.0653 -1.2496
  159SAPE  H13S17800   2.554   2.943   7.794 -2.4320 -1.2193 -2.4049
  159SAPE  C21417801   2.683   2.851   7.938  0.5144  0.0248 -0.4503
  159SAPE  H14R17802   2.762   2.898   7.877 -0.3096  1.3138 -0.5667
  159SAPE  C21517803   2.712   2.799   8.056 -0.5288  0.0687 -0.2547
  159SAPE  H15R17804   2.819   2.804   8.083 -0.2374  0.2338 -1.3972
  159SAPE  C21617805   2.616   2.741   8.154  0.0775  0.8578 -0.4328
  159SAPE  H16R17806   2.652   2.641   8.186 -0.2624  0.8629 -0.0176
  159SAPE  H16S17807   2.514   2.722   8.113  0.7517 -0.0132 -1.7469
  159SAPE  C21717808   2.594   2.825   8.282  0.5248 -0.3297 -0.1459
  159SAPE  H17R17809   2.689   2.864   8.324  0.5250 -0.0723 -0.3801
  159SAPE  H17S17810   2.569   2.751   8.361  1.8739 -1.5875 -0.8365
  159SAPE  C21817811   2.496   2.942   8.277  0.2243 -0.9083 -0.8591
  159SAPE  H18R17812   2.403   2.901   8.232 -0.5547 -1.8994  1.4845
  159SAPE  H18S17813   2.525   3.017   8.201  0.2411  0.3633  0.3485
  159SAPE  C21917814   2.471   3.008   8.414  0.0524  0.1899 -0.1117
  159SAPE  H19R17815   2.568   3.034   8.463  0.8531  0.1048 -1.5957
  159SAPE  H19S17816   2.424   2.934   8.483  0.8872  0.5008  0.8227
  159SAPE  C22017817   2.386   3.133   8.388  0.0936  0.5984  0.7512
  159SAPE  H20R17818   2.434   3.211   8.326  0.0766  0.9123  1.1234
  159SAPE  H20S17819   2.357   3.170   8.489 -0.5360  1.7351  0.1613
  159SAPE  H20T17820   2.296   3.103   8.331  1.1668  0.7051 -1.0626
  159SAPE   C3317821   2.542   3.644   7.158  0.5419  0.4981  0.7367
  159SAPE   H3X17822   2.541   3.753   7.133  0.8039  0.3350 -0.0300
  159SAPE   H3Y17823   2.606   3.631   7.248  0.2587  2.5384  1.2939
  159SAPE   C3417824   2.393   3.594   7.192 -0.3724  0.3580 -0.2507
  159SAPE   H4X17825   2.408   3.484   7.196  0.2536  0.4246 -0.7200
  159SAPE   H4Y17826   2.326   3.608   7.105 -3.3225 -2.2216  1.3937
  159SAPE   C3517827   2.343   3.663   7.323  0.0625 -0.2893  0.2759
  159SAPE   H5X17828   2.238   3.632   7.338  0.0163 -0.2761 -0.0331
  159SAPE   H5Y17829   2.350   3.773   7.308  2.2444 -0.2724  0.9692
  159SAPE   C3617830   2.415   3.607   7.446  0.1208 -1.1272  1.1604
  159SAPE   H6X17831   2.515   3.655   7.443 -1.5531  2.7093 -0.4464
  159SAPE   H6Y17832   2.417   3.497   7.433  0.4691 -1.0388  0.4338
  159SAPE   C3717833   2.343   3.663   7.571 -0.3912 -0.0975  0.0483
  159SAPE   H7X17834   2.255   3.595   7.577  0.5115 -1.3479 -0.6077
  159SAPE   H7Y17835   2.309   3.768   7.563 -0.2783  0.0031  0.7907
  159SAPE   C3817836   2.438   3.652   7.693  0.2553 -0.5983 -0.1352
  159SAPE   H8X17837   2.541   3.678   7.662  0.2839  0.5715  0.8704
  159SAPE   H8Y17838   2.447   3.550   7.737  2.9698  0.8969  3.1837
  159SAPE   C3917839   2.395   3.745   7.811 -0.1359  0.1437 -0.0353
  159SAPE   H9X17840   2.283   3.744   7.809 -0.1450  0.6497 -2.5099
  159SAPE   H9Y17841   2.431   3.848   7.791  2.2865 -0.7067 -0.3548
  159SAPE  C31017842   2.431   3.721   7.957  0.5293 -0.2490  0.0416
  159SAPE  H10X17843   2.533   3.678   7.963  1.4048  1.8208  1.5156
  159SAPE  H10Y17844   2.370   3.639   8.002 -2.0950  0.2039 -2.3865
  159SAPE  C31117845   2.412   3.849   8.043 -0.7887 -0.2095  0.6027
  159SAPE  H11X17846   2.311   3.893   8.049 -1.1265 -0.8887  0.0176
  159SAPE  H11Y17847   2.477   3.917   7.983 -1.5869 -1.5816 -1.9672
  159SAPE  C31217848   2.477   3.857   8.178  0.1976  0.6330  0.1129
  159SAPE  H12X17849   2.468   3.953   8.232  1.0839 -0.2794  1.9820
  159SAPE  H12Y17850   2.586   3.835   8.176 -0.0803 -0.8916  0.3766
  159SAPE  C31317851   2.417   3.755   8.284  0.1951  0.0541  0.7900
  159SAPE  H13X17852   2.460   3.789   8.380 -1.3660 -2.4284  2.4650
  159SAPE  H13Y17853   2.454   3.654   8.257  2.3600  1.0555 -0.2906
  159SAPE  C31417854   2.265   3.764   8.301 -0.6225  0.0841  0.4510
  159SAPE  H14X17855   2.214   3.726   8.210 -0.4800 -0.1555  0.4700
  159SAPE  H14Y17856   2.236   3.870   8.314 -0.1507  0.2317  0.3214
  159SAPE  C31517857   2.211   3.667   8.413  0.1507  0.2427  0.0994
  159SAPE  H15X17858   2.268   3.698   8.503  0.5643 -3.6755  1.3593
  159SAPE  H15Y17859   2.223   3.560   8.388 -1.3118 -0.4147  1.9944
  159SAPE  C31617860   2.063   3.684   8.445 -0.1238 -0.1990  0.2522
  159SAPE  H16X17861   1.999   3.625   8.374 -1.2261  0.5989  0.5567
  159SAPE  H16Y17862   2.035   3.789   8.423 -1.3950 -1.0358 -2.6230
  159SAPE  C31717863   2.022   3.641   8.586 -0.0651  0.0679 -0.0895
  159SAPE  H17X17864   1.914   3.659   8.607  0.0528  0.4905  0.1646
  159SAPE  H17Y17865   2.064   3.710   8.662  0.1711 -0.0123 -0.1454
  159SAPE  C31817866   2.055   3.504   8.645  0.0597  0.1414 -0.5573
  159SAPE  H18X17867   1.992   3.473   8.731  0.5251  0.1710 -0.1991
  159SAPE  H18Y17868   2.163   3.499   8.673  0.2276 -0.5279 -1.2743
  159SAPE  H18Z17869   2.034   3.427   8.567 -1.1247 -0.2183  0.0962
  160SAPE     N17870   3.706   3.393   6.392  0.0677  0.6733 -0.1186
  160SAPE   HN117871   3.802   3.399   6.431  0.0309  1.2350 -0.1062
  160SAPE   HN217872   3.642   3.331   6.445 -0.0013  0.3891 -0.5232
  160SAPE   HN317873   3.720   3.362   6.293  1.5811  0.1253  0.2428
  160SAPE   C1217874   3.654   3.539   6.396 -0.4975 -0.0544  0.3267
  160SAPE  H12A17875   3.547   3.535   6.366 -0.0359 -3.6216 -1.3360
  160SAPE  H12B17876   3.706   3.580   6.307  1.0906 -1.6260  0.4877
  160SAPE   C1117877   3.692   3.615   6.521  0.0092 -0.3703  0.1482
  160SAPE  H11A17878   3.648   3.566   6.610  1.3661 -1.6133  0.1657
  160SAPE  H11B17879   3.653   3.719   6.520  1.4526  0.2244  1.5929
  160SAPE     P17880   3.923   3.752   6.539  0.0634  0.7505  0.1500
  160SAPE   O1317881   4.061   3.734   6.588 -0.0801 -0.1761  0.5522
  160SAPE   O1417882   3.912   3.806   6.399 -0.0964  0.5714 -0.0620
  160SAPE   O1217883   3.833   3.621   6.552 -0.2950 -0.7824 -0.1120
  160SAPE   O1117884   3.840   3.856   6.628  0.4460 -0.0520 -0.2634
  160SAPE    C117885   3.830   3.816   6.767  0.1429  0.2594  0.8550
  160SAPE    HA17886   3.783   3.716   6.770 -1.3340  0.9005  0.0234
  160SAPE    HB17887   3.934   3.816   6.807  0.3274 -2.4025  0.5811
  160SAPE    C217888   3.734   3.915   6.849  0.1098 -0.0217  1.1264
  160SAPE    HS17889   3.723   4.017   6.805  0.1402  0.1998  1.6170
  160SAPE   O2117890   3.785   3.950   6.981 -0.5645 -0.1023 -0.0137
  160SAPE   C2117891   3.891   4.030   6.982  0.4198 -0.2226  0.0370
  160SAPE   O2217892   3.926   4.097   6.888  0.2146  0.0245  0.3028
  160SAPE   C2217893   3.949   4.036   7.124  0.4061  1.0087  0.1309
  160SAPE   H2R17894   3.864   4.086   7.176 -0.7056  1.9511 -2.4026
  160SAPE   H2S17895   3.956   3.932   7.161  0.7488  0.7783 -0.5631
  160SAPE    C317896   3.593   3.855   6.857  0.5293  0.0027  0.0586
  160SAPE    HX17897   3.601   3.750   6.892  0.2958 -0.1230 -0.2539
  160SAPE    HY17898   3.544   3.846   6.757  1.2657  2.1763 -0.5498
  160SAPE   O3117899   3.503   3.931   6.940  0.0951  0.4718  0.3078
  160SAPE   C3117900   3.432   3.861   7.032  0.2930 -0.4261  0.1456
  160SAPE   O3217901   3.436   3.740   7.059 -0.0304 -0.4346  0.6553
  160SAPE   C3217902   3.334   3.963   7.103 -0.4991  0.1312  0.6027
  160SAPE   H2X17903   3.287   4.030   7.028 -0.7394  0.4475  1.0324
  160SAPE   H2Y17904   3.401   4.030   7.161  1.9884 -1.2180 -0.5543
  160SAPE   C2317905   4.082   4.113   7.139  0.1159 -0.2418 -0.0671
  160SAPE   H3R17906   4.095   4.146   7.244  0.4860  0.1620 -0.2347
  160SAPE   H3S17907   4.089   4.203   7.075 -1.1203  1.7181  2.4197
  160SAPE   C2417908   4.208   4.030   7.104 -0.1684  0.0663 -0.9534
  160SAPE   H4R17909   4.194   3.989   7.001  0.4370 -0.3675 -0.8661
  160SAPE   H4S17910   4.215   3.950   7.180  2.7853  0.0170 -1.1659
  160SAPE   C2517911   4.330   4.120   7.113  0.6580 -1.0602  0.0444
  160SAPE   H5R17912   4.358   4.160   7.014 -2.1388  0.4441 -0.2493
  160SAPE   C2617913   4.398   4.148   7.225 -0.0956 -0.3766  0.3551
  160SAPE   H6R17914   4.485   4.214   7.215  0.2851 -0.9596 -0.2507
  160SAPE   C2717915   4.372   4.098   7.366 -0.5222  0.8174 -0.3206
  160SAPE   H7R17916   4.469   4.054   7.396 -1.7593 -0.7287  1.7084
  160SAPE   H7S17917   4.287   4.026   7.369 -1.6443  1.8174 -3.5212
  160SAPE   C2817918   4.338   4.213   7.453  0.2852  0.3821  0.7100
  160SAPE   H8R17919   4.252   4.269   7.412 -1.4154 -1.9229  0.8801
  160SAPE   C2917920   4.399   4.266   7.563  0.2173  0.1172  0.1884
  160SAPE   H9R17921   4.367   4.368   7.591  0.7932  0.1474  0.7629
  160SAPE  C21017922   4.525   4.215   7.616 -0.3840 -0.6233 -0.4998
  160SAPE  H10R17923   4.598   4.191   7.536  0.9623 -0.5199  0.6569
  160SAPE  H10S17924   4.516   4.121   7.674  0.0425  1.0536  2.4682
  160SAPE  C21117925   4.591   4.305   7.712 -0.5807 -0.0666  0.4015
  160SAPE  H11R17926   4.651   4.382   7.661 -0.3485 -1.5458 -1.6802
  160SAPE  C21217927   4.589   4.300   7.849 -0.3436 -0.0827  0.0704
  160SAPE  H12R17928   4.650   4.373   7.904 -0.4217 -0.4222  0.6112
  160SAPE  C21317929   4.534   4.191   7.940  0.4607  0.0698 -0.3282
  160SAPE  H13R17930   4.615   4.178   8.016 -0.7293  1.4203  1.2407
  160SAPE  H13S17931   4.498   4.097   7.894 -2.1005  0.5461  0.5273
  160SAPE  C21417932   4.410   4.240   8.012 -0.6864  0.3357  0.0009
  160SAPE  H14R17933   4.364   4.323   7.958  2.0632  2.0721  0.1486
  160SAPE  C21517934   4.361   4.198   8.128  0.5457  0.0734  0.1789
  160SAPE  H15R17935   4.259   4.232   8.149  0.5516  1.9726 -2.2861
  160SAPE  C21617936   4.422   4.089   8.217 -0.1699 -0.8067  0.3769
  160SAPE  H16R17937   4.532   4.092   8.200  0.0928 -3.6992  1.1750
  160SAPE  H16S17938   4.394   3.985   8.193 -1.9051 -0.4874  0.8898
  160SAPE  C21717939   4.397   4.133   8.363  0.6204  0.3726 -0.3197
  160SAPE  H17R17940   4.419   4.043   8.424  0.0910 -0.5468 -1.4224
  160SAPE  H17S17941   4.288   4.155   8.376  0.4456  0.5806 -1.8580
  160SAPE  C21817942   4.466   4.257   8.412  0.1118 -0.4127 -0.4808
  160SAPE  H18R17943   4.425   4.344   8.357  2.8535  1.2250 -0.1030
  160SAPE  H18S17944   4.568   4.237   8.373 -0.7582 -3.2528 -1.5903
  160SAPE  C21917945   4.470   4.287   8.565 -0.1186  0.2957  0.6180
  160SAPE  H19R17946   4.368   4.264   8.603 -0.1982  0.8480  0.7429
  160SAPE  H19S17947   4.492   4.391   8.597  0.2478  0.3172  0.2952
  160SAPE  C22017948   4.578   4.209   8.635 -0.7147 -0.1883 -0.9267
  160SAPE  H20R17949   4.682   4.244   8.619 -1.4153  1.0345 -3.1670
  160SAPE  H20S17950   4.568   4.100   8.614 -2.1370 -0.4447  0.8042
  160SAPE  H20T17951   4.570   4.216   8.746  0.5721  0.5350 -0.8663
  160SAPE   C3317952   3.223   3.905   7.180  0.2793  0.4223 -0.2363
  160SAPE   H3X17953   3.141   3.864   7.116  1.2211  0.9599 -1.8257
  160SAPE   H3Y17954   3.171   3.993   7.225  0.2224 -0.4673  1.5451
  160SAPE   C3417955   3.263   3.817   7.300 -0.2344  0.4457 -0.0937
  160SAPE   H4X17956   3.253   3.869   7.398  0.5520 -1.2434  0.9159
  160SAPE   H4Y17957   3.372   3.796   7.288 -0.4825 -1.6991  0.9418
  160SAPE   C3517958   3.182   3.686   7.316  0.0941  0.0842  0.3682
  160SAPE   H5X17959   3.189   3.641   7.214  0.5692 -0.0934  0.4777
  160SAPE   H5Y17960   3.078   3.723   7.327  0.0080  0.4072 -1.2645
  160SAPE   C3617961   3.227   3.591   7.424 -0.2274  1.3187 -0.6336
  160SAPE   H6X17962   3.338   3.582   7.431 -0.4394 -0.1637  2.9001
  160SAPE   H6Y17963   3.180   3.493   7.404  2.0684  0.2534 -1.0706
  160SAPE   C3717964   3.174   3.634   7.560  0.0148 -0.2861 -0.6065
  160SAPE   H7X17965   3.070   3.674   7.559 -0.2073 -0.7855  0.6194
  160SAPE   H7Y17966   3.237   3.716   7.600  1.3914 -1.0821 -1.0551
  160SAPE   C3817967   3.187   3.533   7.674 -0.4071  0.0403 -0.6015
  160SAPE   H8X17968   3.288   3.486   7.663 -0.1627  0.7857 -1.7046
  160SAPE   H8Y17969   3.117   3.448   7.666 -0.4352 -0.1902  1.4739
  160SAPE   C3917970   3.159   3.589   7.816  0.1121 -0.2912  0.3481
  160SAPE   H9X17971   3.058   3.634   7.812  0.3499  0.3646  1.4192
  160SAPE   H9Y17972   3.241   3.657   7.848  1.4004 -1.5283 -0.2002
  160SAPE  C31017973   3.161   3.482   7.919  0.8779  0.9646 -0.1597
  160SAPE  H10X17974   3.254   3.422   7.908  0.1645 -0.0779 -0.6112
  160SAPE  H10Y17975   3.076   3.416   7.893  1.2169  0.9519 -1.2777
  160SAPE  C31117976   3.148   3.534   8.057 -0.4012 -0.1072  0.0590
  160SAPE  H11X17977   3.050   3.584   8.068 -0.3017  0.0484  0.2441
  160SAPE  H11Y17978   3.226   3.611   8.075  0.3942 -0.5789 -1.1728
  160SAPE  C31217979   3.159   3.420   8.162 -0.1441  0.4463 -0.4103
  160SAPE  H12X17980   3.256   3.366   8.156 -0.0320  0.5430  0.3593
  160SAPE  H12Y17981   3.079   3.346   8.141  0.6714  0.2173 -3.0555
  160SAPE  C31317982   3.157   3.476   8.312 -0.2390 -0.3870  0.7645
  160SAPE  H13X17983   3.082   3.558   8.321 -3.0325 -2.6472 -0.3880
  160SAPE  H13Y17984   3.262   3.506   8.330  0.2802 -1.3322 -0.5651
  160SAPE  C31417985   3.110   3.378   8.419 -0.0459 -0.7937 -0.0180
  160SAPE  H14X17986   3.197   3.314   8.445  1.7435  1.0459 -1.1763
  160SAPE  H14Y17987   3.025   3.320   8.378  0.1037 -0.6982 -0.4665
  160SAPE  C31517988   3.068   3.452   8.552  0.8314 -0.3780  0.5809
  160SAPE  H15X17989   3.004   3.539   8.524  2.7128 -0.3003 -4.3817
  160SAPE  H15Y17990   3.156   3.502   8.599 -0.3114  2.8218 -0.4184
  160SAPE  C31617991   3.015   3.365   8.666 -0.6350  0.7363  0.6292
  160SAPE  H16X17992   3.069   3.268   8.673 -0.2209  0.9904  0.9997
  160SAPE  H16Y17993   2.910   3.340   8.640 -0.7298  0.7692  0.9847
  160SAPE  C31717994   3.005   3.433   8.803 -0.3572  0.4990 -0.4901
  160SAPE  H17X17995   2.958   3.533   8.790 -0.1127  0.7552  0.4872
  160SAPE  H17Y17996   3.108   3.430   8.845 -0.4283 -1.0833 -0.3675
  160SAPE  C31817997   2.918   3.347   8.900  0.7590 -0.1273  0.8315
  160SAPE  H18X17998   2.917   3.405   8.994  2.4015  0.8564  0.2883
  160SAPE  H18Y17999   2.975   3.255   8.924 -0.0852 -0.0148  3.5409
  160SAPE  H18Z18000   2.819   3.307   8.869  1.2973 -0.5083 -0.4522
  161SAPE     N18001   6.369   1.722   6.111  0.6503  0.1677 -0.1159
  161SAPE   HN118002   6.420   1.761   6.193  0.1215 -0.4295  0.5041
  161SAPE   HN218003   6.356   1.621   6.130 -0.7638 -0.7030 -4.4821
  161SAPE   HN318004   6.415   1.727   6.018 -0.2943 -0.0248 -0.6079
  161SAPE   C1218005   6.236   1.789   6.095  0.3023 -0.2399  0.1329
  161SAPE  H12A18006   6.191   1.736   6.009 -1.1734  2.7288 -1.0633
  161SAPE  H12B18007   6.246   1.894   6.062  0.9868 -0.6769 -1.0942
  161SAPE   C1118008   6.139   1.764   6.205  0.2033  0.2899  0.4146
  161SAPE  H11A18009   6.041   1.796   6.165 -0.1958 -0.7776  0.5013
  161SAPE  H11B18010   6.161   1.835   6.287 -0.3354  0.6772  0.2257
  161SAPE     P18011   5.992   1.555   6.267  0.1600  0.1915 -0.1474
  161SAPE   O1318012   5.878   1.626   6.198 -1.0894  0.2010 -0.2225
  161SAPE   O1418013   5.994   1.409   6.238  0.0682 -0.3930 -0.5165
  161SAPE   O1218014   6.130   1.623   6.240  0.1298 -0.3297  0.8458
  161SAPE   O1118015   5.968   1.579   6.416 -0.2618  0.3892  0.6730
  161SAPE    C118016   5.986   1.706   6.476 -0.1906 -0.2424 -0.4341
  161SAPE    HA18017   6.094   1.727   6.489 -0.4349  0.8992 -0.0624
  161SAPE    HB18018   5.940   1.789   6.417  1.3799  0.8910 -0.1259
  161SAPE    C218019   5.929   1.705   6.622 -0.4333  0.0936 -0.2207
  161SAPE    HS18020   5.946   1.801   6.675  0.6385  0.0495 -0.4620
  161SAPE   O2118021   5.998   1.600   6.694  0.1274  0.1543  0.4517
  161SAPE   C2118022   6.127   1.615   6.723  0.3296 -0.5254  0.5313
  161SAPE   O2218023   6.184   1.721   6.702 -0.1912 -0.3929  0.5191
  161SAPE   C2218024   6.187   1.478   6.768  0.2676  0.7079 -0.2901
  161SAPE   H2R18025   6.152   1.395   6.702  2.5092  0.0200 -0.7083
  161SAPE   H2S18026   6.298   1.482   6.763  0.2317  1.1269 -0.9845
  161SAPE    C318027   5.772   1.680   6.620 -0.2043  0.0805 -0.0816
  161SAPE    HX18028   5.750   1.601   6.546 -0.8931  1.1615 -1.0689
  161SAPE    HY18029   5.732   1.777   6.582 -0.3610  0.1534  0.2706
  161SAPE   O3118030   5.726   1.652   6.757  0.5003  0.4717  0.0633
  161SAPE   C3118031   5.710   1.523   6.781 -0.4348  0.9216  0.3375
  161SAPE   O3218032   5.729   1.423   6.713 -0.1172 -0.1435 -0.2159
  161SAPE   C3218033   5.658   1.513   6.921  0.1972 -0.0196 -0.3233
  161SAPE   H2X18034   5.656   1.403   6.934  1.6061 -0.1919 -1.3384
  161SAPE   H2Y18035   5.561   1.562   6.945 -0.2072 -1.3489  0.8853
  161SAPE   C2318036   6.158   1.462   6.915 -0.1142 -0.1130  0.1257
  161SAPE   H3R18037   6.050   1.446   6.934 -0.3204 -1.9364 -2.1902
  161SAPE   H3S18038   6.199   1.553   6.965  0.2861 -0.1748 -0.0874
  161SAPE   C2418039   6.227   1.336   6.968 -0.0749 -0.6422  0.5625
  161SAPE   H4R18040   6.249   1.348   7.076  0.9740  1.6113  0.1552
  161SAPE   H4S18041   6.326   1.331   6.919  0.0192 -0.2894  0.7151
  161SAPE   C2518042   6.145   1.214   6.939 -0.3275  0.4847 -0.7554
  161SAPE   H5R18043   6.143   1.176   6.836 -0.4259 -0.5882 -0.3690
  161SAPE   C2618044   6.062   1.149   7.025 -0.5669 -0.7662 -0.4795
  161SAPE   H6R18045   6.011   1.057   6.994 -0.9411 -0.8367  0.3324
  161SAPE   C2718046   6.040   1.190   7.172 -0.7005  0.6590  0.3304
  161SAPE   H7R18047   6.005   1.294   7.163  0.0876  0.7998 -1.7881
  161SAPE   H7S18048   6.141   1.200   7.219 -0.5484  0.9399 -0.0470
  161SAPE   C2818049   5.944   1.104   7.257  0.0745  0.3220  0.3005
  161SAPE   H8R18050   5.872   1.049   7.195  2.2186 -1.5468 -0.6639
  161SAPE   C2918051   5.948   1.077   7.387 -0.7128  0.8326 -0.5736
  161SAPE   H9R18052   5.865   1.016   7.426  1.4147 -2.4558 -0.8149
  161SAPE  C21018053   6.047   1.126   7.485 -0.0333 -0.3353  0.0164
  161SAPE  H10R18054   6.077   1.228   7.454 -1.2541 -1.0074 -3.8294
  161SAPE  H10S18055   6.135   1.060   7.496 -0.7467 -1.1632  1.0456
  161SAPE  C21118056   5.985   1.155   7.626 -0.5167 -0.1941  0.3280
  161SAPE  H11R18057   5.909   1.234   7.631 -0.7626 -0.2854 -1.4726
  161SAPE  C21218058   6.031   1.101   7.741 -0.3827 -0.6167  0.2316
  161SAPE  H12R18059   5.993   1.136   7.838  0.3803  0.2248  0.2395
  161SAPE  C21318060   6.139   1.007   7.749 -0.5341  0.1350  0.4717
  161SAPE  H13R18061   6.241   1.052   7.756  0.7948 -2.4736 -0.6648
  161SAPE  H13S18062   6.146   0.940   7.661  0.2562 -0.9199  1.3153
  161SAPE  C21418063   6.115   0.918   7.867  0.0205  0.4522 -0.7236
  161SAPE  H14R18064   6.007   0.904   7.888  0.2062 -1.8627 -1.0816
  161SAPE  C21518065   6.200   0.847   7.930 -1.0887  0.8958  0.2923
  161SAPE  H15R18066   6.148   0.788   8.007 -0.5534 -0.2231 -0.1665
  161SAPE  C21618067   6.353   0.836   7.907  0.1351  0.4755 -0.4889
  161SAPE  H16R18068   6.381   0.896   7.818 -2.4752 -0.4221 -2.0416
  161SAPE  H16S18069   6.381   0.734   7.873  0.1536  0.7968 -1.4539
  161SAPE  C21718070   6.444   0.869   8.026 -0.4296 -0.6084 -0.1377
  161SAPE  H17R18071   6.414   0.809   8.115  2.4597  0.6223  1.8108
  161SAPE  H17S18072   6.424   0.974   8.056 -0.2955 -0.3782 -0.8470
  161SAPE  C21818073   6.589   0.827   8.001  0.2575  0.9785 -0.4331
  161SAPE  H18R18074   6.634   0.891   7.922  1.0193  1.0519  0.0504
  161SAPE  H18S18075   6.596   0.719   7.975  0.0564  0.8999 -0.1668
  161SAPE  C21918076   6.672   0.860   8.129  0.7264 -0.2288 -0.1296
  161SAPE  H19R18077   6.635   0.955   8.174 -0.0107 -0.0754 -1.0185
  161SAPE  H19S18078   6.779   0.872   8.102  0.3146 -2.1196 -3.0334
  161SAPE  C22018079   6.659   0.740   8.227  0.3555 -0.4205  0.0851
  161SAPE  H20R18080   6.701   0.651   8.176 -1.7900 -1.0435 -0.7147
  161SAPE  H20S18081   6.558   0.703   8.257  0.6447 -2.3733 -1.2431
  161SAPE  H20T18082   6.708   0.765   8.324 -2.1397  1.3906  1.0083
  161SAPE   C3318083   5.743   1.578   7.029  0.5145 -0.5180 -0.3297
  161SAPE   H3X18084   5.731   1.686   7.007 -3.7374 -0.9053 -0.8405
  161SAPE   H3Y18085   5.851   1.555   7.020  0.8715  1.5443 -2.2399
  161SAPE   C3418086   5.699   1.535   7.177  0.6642  0.0063 -0.3480
  161SAPE   H4X18087   5.589   1.551   7.185  1.0123  1.9411  1.5931
  161SAPE   H4Y18088   5.742   1.598   7.258  0.5427  0.1410 -0.3875
  161SAPE   C3518089   5.726   1.390   7.216  0.3632 -0.2334 -0.4060
  161SAPE   H5X18090   5.834   1.378   7.239  0.7404  1.0490 -1.3446
  161SAPE   H5Y18091   5.709   1.323   7.129 -2.1034  1.6702 -1.5235
  161SAPE   C3618092   5.629   1.336   7.330 -0.7243  0.0427  0.2394
  161SAPE   H6X18093   5.650   1.230   7.355  0.5795  0.3364  0.4461
  161SAPE   H6Y18094   5.525   1.338   7.290  0.3010 -2.9728 -3.0272
  161SAPE   C3718095   5.642   1.408   7.468 -0.9070 -0.1182  0.5979
  161SAPE   H7X18096   5.615   1.516   7.462  0.3301  0.2131  0.7496
  161SAPE   H7Y18097   5.750   1.416   7.491 -0.5022  0.7696 -1.3732
  161SAPE   C3818098   5.571   1.335   7.581  0.4170 -0.3805 -0.0630
  161SAPE   H8X18099   5.594   1.227   7.570  1.7589 -0.1012 -0.1122
  161SAPE   H8Y18100   5.461   1.341   7.568  0.4150 -1.0229 -0.3926
  161SAPE   C3918101   5.610   1.382   7.725 -0.2412  0.4554 -0.0136
  161SAPE   H9X18102   5.564   1.479   7.752  1.1063  1.3791 -0.9379
  161SAPE   H9Y18103   5.721   1.391   7.732 -0.1606 -0.6185  0.3843
  161SAPE  C31018104   5.559   1.286   7.833 -0.2371  0.2472 -0.1539
  161SAPE  H10X18105   5.584   1.188   7.787 -0.6399  1.5226 -3.3643
  161SAPE  H10Y18106   5.448   1.291   7.837 -0.2336  1.9132 -1.3647
  161SAPE  C31118107   5.626   1.307   7.974 -0.5744  0.1300  0.4492
  161SAPE  H11X18108   5.568   1.257   8.054 -0.2015 -0.3160  0.4489
  161SAPE  H11Y18109   5.646   1.414   7.997 -1.0260  0.1593  0.7163
  161SAPE  C31218110   5.766   1.249   7.973 -1.1230  0.1466 -0.0911
  161SAPE  H12X18111   5.820   1.295   7.887  0.3906 -0.3549  0.5538
  161SAPE  H12Y18112   5.765   1.140   7.956 -0.3591 -0.1634  1.6324
  161SAPE  C31318113   5.845   1.288   8.097  0.2079 -0.0740 -0.3144
  161SAPE  H13X18114   5.798   1.241   8.186  1.7149 -0.8270  0.1192
  161SAPE  H13Y18115   5.843   1.399   8.106 -1.4794 -0.0093 -1.1710
  161SAPE  C31418116   5.995   1.233   8.080  0.0194  0.3687 -0.2138
  161SAPE  H14X18117   6.041   1.279   7.991  1.7563  0.0725  0.4986
  161SAPE  H14Y18118   5.990   1.124   8.061  3.2822  0.1374 -0.3021
  161SAPE  C31518119   6.080   1.262   8.209 -0.0595 -0.7018 -0.1223
  161SAPE  H15X18120   6.049   1.199   8.295 -1.9665  0.2661 -0.0520
  161SAPE  H15Y18121   6.056   1.362   8.252 -0.3159 -1.4540  1.5937
  161SAPE  C31618122   6.229   1.264   8.195 -0.4469  0.4285 -0.1165
  161SAPE  H16X18123   6.269   1.324   8.110  0.3455 -0.0338 -0.0793
  161SAPE  H16Y18124   6.274   1.164   8.178  2.3986  1.2174  1.9608
  161SAPE  C31718125   6.291   1.313   8.321 -0.3486  0.0975  0.0104
  161SAPE  H17X18126   6.245   1.276   8.415 -3.3467  2.3774 -0.4231
  161SAPE  H17Y18127   6.272   1.422   8.319  0.0529  0.2353  1.9854
  161SAPE  C31818128   6.443   1.279   8.326  0.0644  0.6522 -0.2090
  161SAPE  H18X18129   6.486   1.317   8.421 -0.6682 -0.2046  0.4834
  161SAPE  H18Y18130   6.506   1.303   8.238 -0.9581 -0.4414 -1.2971
  161SAPE  H18Z18131   6.459   1.169   8.328 -1.3324  0.3671 -1.8184
  162SAPE     N18132   3.845   6.225   5.938  0.5246 -0.6350  0.5339
  162SAPE   HN118133   3.907   6.148   5.905  1.0330 -0.5688  1.2862
  162SAPE   HN218134   3.820   6.206   6.038 -1.4022  0.9282  0.4134
  162SAPE   HN318135   3.760   6.224   5.878  1.0679 -0.2261 -0.2531
  162SAPE   C1218136   3.928   6.342   5.925 -0.2490 -0.2671  0.5810
  162SAPE  H12A18137   3.867   6.428   5.960  0.2807  0.4190 -0.1551
  162SAPE  H12B18138   3.961   6.347   5.819  0.1210 -0.8210  0.6612
  162SAPE   C1118139   4.048   6.333   6.018  0.1545 -0.0405 -0.1763
  162SAPE  H11A18140   4.019   6.351   6.124 -0.7088  2.9339 -0.8359
  162SAPE  H11B18141   4.111   6.422   5.997  1.0020 -0.4975  0.3745
  162SAPE     P18142   4.285   6.210   6.002  0.0089 -0.4617 -0.0269
  162SAPE   O1318143   4.342   6.188   5.864 -0.0682 -0.2924 -0.1303
  162SAPE   O1418144   4.346   6.325   6.074  0.2137  0.4912 -0.0810
  162SAPE   O1218145   4.123   6.212   6.001  0.4466  0.7421 -0.5968
  162SAPE   O1118146   4.318   6.081   6.085  0.1720  0.2073  0.1383
  162SAPE    C118147   4.218   5.978   6.111  0.3480  0.0765  0.1087
  162SAPE    HA18148   4.152   5.964   6.023 -0.1155  0.9216  0.3088
  162SAPE    HB18149   4.269   5.884   6.142 -2.9987 -1.8934  0.0620
  162SAPE    C218150   4.133   6.005   6.239  0.4697  0.1402  0.4003
  162SAPE    HS18151   4.102   6.112   6.244 -1.1849 -0.3840  2.7054
  162SAPE   O2118152   4.209   5.965   6.356 -0.4154 -0.0675  0.6802
  162SAPE   C2118153   4.294   6.059   6.389  0.0359  0.6366 -0.5647
  162SAPE   O2218154   4.282   6.178   6.377  0.2792 -0.4628 -0.3257
  162SAPE   C2218155   4.408   6.007   6.470  0.3169  0.0379 -0.3460
  162SAPE   H2R18156   4.380   5.901   6.482  2.3845 -0.9827 -3.3258
  162SAPE   H2S18157   4.502   5.997   6.413  1.0999 -1.4206  1.1132
  162SAPE    C318158   3.996   5.933   6.232  0.5682 -0.3996 -0.7119
  162SAPE    HX18159   4.019   5.825   6.243  2.1322  0.0856  1.4129
  162SAPE    HY18160   3.951   5.952   6.132  0.0781  0.3485 -0.3558
  162SAPE   O3118161   3.902   5.974   6.337  0.1254  0.1773  0.0087
  162SAPE   C3118162   3.839   6.086   6.324 -0.0535  0.6532 -0.6308
  162SAPE   O3218163   3.847   6.163   6.231 -0.1080  0.8173 -0.3759
  162SAPE   C3218164   3.731   6.106   6.445 -0.7153  0.3773 -0.2526
  162SAPE   H2X18165   3.722   6.005   6.490  0.8910 -0.5981 -1.9606
  162SAPE   H2Y18166   3.635   6.147   6.404 -0.5763  2.0222  0.9814
  162SAPE   C2318167   4.436   6.085   6.599  0.1597  0.3841  0.2603
  162SAPE   H3R18168   4.431   6.193   6.576  0.2525  0.3364  0.0178
  162SAPE   H3S18169   4.538   6.056   6.631 -0.6033 -0.1561  2.3632
  162SAPE   C2418170   4.331   6.061   6.715 -1.0993  0.2175  0.0529
  162SAPE   H4R18171   4.232   6.087   6.672 -0.6559  0.5996 -0.7520
  162SAPE   H4S18172   4.359   6.130   6.797  1.1118 -0.2493 -0.2464
  162SAPE   C2518173   4.305   5.922   6.757 -0.3973  0.3425 -0.3210
  162SAPE   H5R18174   4.273   5.854   6.676 -0.5789  0.9751 -0.7903
  162SAPE   C2618175   4.297   5.881   6.889 -0.3376  0.2251  0.7348
  162SAPE   H6R18176   4.276   5.775   6.909 -0.2349 -0.2171 -1.2632
  162SAPE   C2718177   4.305   5.975   7.007 -0.3905 -0.7561  0.0193
  162SAPE   H7R18178   4.252   5.926   7.092  0.0907  2.5411  2.4252
  162SAPE   H7S18179   4.244   6.065   6.986 -1.4770 -1.1194  1.4527
  162SAPE   C2818180   4.447   6.014   7.038 -0.2349  0.1343  0.1894
  162SAPE   H8R18181   4.519   6.015   6.955 -1.5728  0.8251 -1.0015
  162SAPE   C2918182   4.481   6.064   7.160 -0.2602  0.0020  0.4948
  162SAPE   H9R18183   4.585   6.097   7.174  0.0687 -0.8914  0.2320
  162SAPE  C21018184   4.397   6.069   7.282  0.1020  0.2258  0.4015
  162SAPE  H10R18185   4.317   6.144   7.260  0.2883  0.3312  0.0821
  162SAPE  H10S18186   4.459   6.105   7.367 -0.0294  2.8275 -0.5171
  162SAPE  C21118187   4.343   5.945   7.342  0.5444  0.1008 -0.3183
  162SAPE  H11R18188   4.344   5.864   7.268  0.6515  1.3315 -1.7139
  162SAPE  C21218189   4.299   5.924   7.469  0.5111  0.7223  0.1727
  162SAPE  H12R18190   4.255   5.827   7.496 -0.6841  1.1785 -0.0830
  162SAPE  C21318191   4.278   6.028   7.575 -0.1082  0.0962 -0.0799
  162SAPE  H13R18192   4.170   6.050   7.587  0.4826  2.2058  1.7923
  162SAPE  H13S18193   4.324   6.125   7.550  1.8581 -0.7888 -0.1019
  162SAPE  C21418194   4.345   5.972   7.704  0.6318 -0.3927 -0.1692
  162SAPE  H14R18195   4.421   5.893   7.693 -0.7871 -2.2620  2.4543
  162SAPE  C21518196   4.336   6.022   7.823  1.0108  0.1489  0.2819
  162SAPE  H15R18197   4.405   5.984   7.900  0.7727 -3.8641 -1.2282
  162SAPE  C21618198   4.252   6.135   7.864  0.3967  0.0977 -0.0486
  162SAPE  H16R18199   4.188   6.109   7.951 -0.1800  0.1475 -0.4546
  162SAPE  H16S18200   4.186   6.156   7.777  0.5467 -1.3075 -0.5385
  162SAPE  C21718201   4.328   6.268   7.886  1.1326  0.7157 -0.2135
  162SAPE  H17R18202   4.259   6.351   7.912 -1.3803 -1.0948 -0.7526
  162SAPE  H17S18203   4.393   6.288   7.798  3.1113 -0.2531  0.9417
  162SAPE  C21818204   4.412   6.260   8.009 -0.0301  0.0440 -0.3645
  162SAPE  H18R18205   4.493   6.186   7.992 -1.2066 -1.7531  1.3770
  162SAPE  H18S18206   4.349   6.221   8.092  0.0861 -1.7306 -1.0639
  162SAPE  C21918207   4.478   6.394   8.042  0.1868  0.1270 -0.3426
  162SAPE  H19R18208   4.427   6.438   8.129  0.6702 -1.9459  1.0708
  162SAPE  H19S18209   4.458   6.470   7.964  1.6197  0.7605 -0.1281
  162SAPE  C22018210   4.632   6.391   8.055  0.2596 -0.3039  0.2134
  162SAPE  H20R18211   4.669   6.350   8.152  2.4352  3.4154  1.1400
  162SAPE  H20S18212   4.673   6.493   8.043  3.5198 -1.5336 -0.2055
  162SAPE  H20T18213   4.671   6.328   7.972  0.6287 -0.3311  0.4074
  162SAPE   C3318214   3.793   6.215   6.532  0.3542  0.3263 -0.6370
  162SAPE   H3X18215   3.715   6.293   6.550  2.2163  2.0084  0.6817
  162SAPE   H3Y18216   3.866   6.271   6.470  1.5259  1.3280  1.5111
  162SAPE   C3418217   3.855   6.177   6.668  0.0267 -0.4253 -0.4534
  162SAPE   H4X18218   3.885   6.271   6.718 -0.8957 -0.7933  0.8688
  162SAPE   H4Y18219   3.943   6.109   6.659  1.5500  1.3282  0.4965
  162SAPE   C3518220   3.758   6.109   6.763 -0.0202 -0.3726 -0.3405
  162SAPE   H5X18221   3.741   6.008   6.720 -1.7997  0.4045 -1.5606
  162SAPE   H5Y18222   3.652   6.140   6.759 -0.1572 -0.7117  0.4767
  162SAPE   C3618223   3.810   6.074   6.901 -0.6445  1.0049  0.5535
  162SAPE   H6X18224   3.728   6.053   6.974  0.8919 -1.0493  1.7832
  162SAPE   H6Y18225   3.854   6.172   6.930  1.1368  0.8795 -1.4998
  162SAPE   C3718226   3.919   5.964   6.916 -0.0942  0.5022  0.5569
  162SAPE   H7X18227   4.004   5.989   6.850  1.6357 -2.1325  1.6147
  162SAPE   H7Y18228   3.869   5.874   6.874  0.5991  0.1113  0.5687
  162SAPE   C3818229   3.976   5.941   7.055 -0.1561  0.5690 -0.6111
  162SAPE   H8X18230   4.020   6.038   7.088  0.1980 -0.4627  2.2051
  162SAPE   H8Y18231   4.054   5.861   7.053 -1.4294 -0.7190 -0.1198
  162SAPE   C3918232   3.875   5.902   7.160 -0.1667 -0.1009 -0.2683
  162SAPE   H9X18233   3.866   5.791   7.168 -2.3642  0.1882  2.9036
  162SAPE   H9Y18234   3.777   5.949   7.140 -0.0328 -0.1805 -1.1952
  162SAPE  C31018235   3.910   5.959   7.299  0.0961  0.4174  0.3539
  162SAPE  H10X18236   3.883   6.066   7.316  0.3281  0.6115 -0.4649
  162SAPE  H10Y18237   4.016   5.933   7.317  0.0223 -1.5540 -1.6718
  162SAPE  C31118238   3.814   5.900   7.400  0.1510 -0.0012 -0.1548
  162SAPE  H11X18239   3.808   5.791   7.382  3.1861 -0.2333 -0.1460
  162SAPE  H11Y18240   3.716   5.941   7.367  0.7720  2.9363  1.3104
  162SAPE  C31218241   3.834   5.925   7.553 -0.1808  0.0821  0.1615
  162SAPE  H12X18242   3.927   5.876   7.588 -0.1007  0.2895  0.2406
  162SAPE  H12Y18243   3.753   5.879   7.613 -0.4781  1.5297  0.9182
  162SAPE  C31318244   3.837   6.070   7.600 -0.1499 -0.2107 -0.3335
  162SAPE  H13X18245   3.737   6.110   7.576 -0.6750 -0.4472  1.3210
  162SAPE  H13Y18246   3.916   6.130   7.550  0.1369  1.0121  1.4729
  162SAPE  C31418247   3.861   6.092   7.755  0.0671 -0.0777 -0.4997
  162SAPE  H14X18248   3.849   6.200   7.774  1.1012 -0.4575  2.9789
  162SAPE  H14Y18249   3.968   6.063   7.772 -0.0048 -0.6166 -0.9208
  162SAPE  C31518250   3.762   6.015   7.843 -0.2553  0.1849 -0.6599
  162SAPE  H15X18251   3.803   5.912   7.851 -0.5891  0.0222 -1.0183
  162SAPE  H15Y18252   3.666   6.016   7.787 -1.0530  2.4471  0.6076
  162SAPE  C31618253   3.720   6.084   7.970  0.3119  0.6438 -0.0719
  162SAPE  H16X18254   3.652   6.170   7.955  0.6930  0.7332 -1.4568
  162SAPE  H16Y18255   3.801   6.136   8.025 -0.8042  0.8334  1.4453
  162SAPE  C31718256   3.662   5.985   8.082  0.1847  0.0108  0.5853
  162SAPE  H17X18257   3.697   5.881   8.061 -0.9130 -0.0029 -1.4947
  162SAPE  H17Y18258   3.553   5.974   8.062  0.4735 -2.0902 -0.1469
  162SAPE  C31818259   3.697   6.016   8.228  0.0963  0.0289 -0.2670
  162SAPE  H18X18260   3.802   5.997   8.259  0.0413  1.3583  0.8379
  162SAPE  H18Y18261   3.623   5.960   8.291  0.3895  1.6339  1.6054
  162SAPE  H18Z18262   3.670   6.119   8.259  0.3113 -0.4444  1.6865
  163SAPE     N18263   2.963   3.734   6.098 -0.3683  0.4556 -0.3222
  163SAPE   HN118264   3.045   3.681   6.061  0.9720  0.6705  2.1437
  163SAPE   HN218265   2.900   3.666   6.144  0.4751 -0.0074  0.1732
  163SAPE   HN318266   2.916   3.781   6.018 -0.0413  0.1021 -0.7322
  163SAPE   C1218267   3.018   3.827   6.200 -0.6735  0.6846 -0.9657
  163SAPE  H12A18268   2.970   3.925   6.176 -1.1433  0.0903 -2.6259
  163SAPE  H12B18269   3.129   3.838   6.195 -0.6120  0.2427 -0.5846
  163SAPE   C1118270   2.985   3.764   6.343 -0.2586 -0.5837  0.2484
  163SAPE  H11A18271   2.880   3.777   6.377  0.4945  1.5940  2.0174
  163SAPE  H11B18272   3.031   3.838   6.412 -2.1289  0.8635  0.0278
  163SAPE     P18273   3.050   3.580   6.501  0.2718  0.0124 -0.3326
  163SAPE   O1318274   2.914   3.532   6.540  0.0685 -0.0109  0.2723
  163SAPE   O1418275   3.154   3.477   6.508 -0.4964 -0.2747 -0.5825
  163SAPE   O1218276   3.043   3.634   6.357 -0.2179 -0.0917  0.4649
  163SAPE   O1118277   3.094   3.700   6.590  0.4536  0.4897 -0.7199
  163SAPE    C118278   3.009   3.760   6.686 -0.2395 -0.1389  0.1057
  163SAPE    HA18279   2.974   3.859   6.649 -0.2404  0.2517  1.1094
  163SAPE    HB18280   2.922   3.697   6.716 -1.6136  0.5901 -2.0851
  163SAPE    C218281   3.085   3.781   6.818 -0.5399  0.1458 -1.1574
  163SAPE    HS18282   3.014   3.815   6.896  0.5443 -0.9104  0.3325
  163SAPE   O2118283   3.204   3.873   6.802  0.2163  0.5554  0.0131
  163SAPE   C2118284   3.170   3.992   6.756 -0.1531  0.3652  0.4592
  163SAPE   O2218285   3.060   4.039   6.768  0.1184 -0.6269 -0.3587
  163SAPE   C2218286   3.288   4.062   6.690  0.3543  0.3045 -0.3037
  163SAPE   H2R18287   3.387   4.020   6.720  1.3072  0.4422 -2.9467
  163SAPE   H2S18288   3.275   4.043   6.581 -0.3417  1.6286 -0.4715
  163SAPE    C318289   3.143   3.646   6.872  0.1195 -0.5055 -0.4332
  163SAPE    HX18290   3.209   3.670   6.959 -1.5069 -0.2669  0.7921
  163SAPE    HY18291   3.205   3.596   6.795 -0.5021 -2.8371  0.5015
  163SAPE   O3118292   3.037   3.563   6.923  0.1557  0.7741  0.1714
  163SAPE   C3118293   3.084   3.452   6.970  0.4218  0.8414 -0.0005
  163SAPE   O3218294   3.203   3.424   6.991  0.3017  0.3546  0.0079
  163SAPE   C3218295   2.965   3.383   7.025 -0.3423 -0.2640 -0.2473
  163SAPE   H2X18296   2.917   3.351   6.930 -0.2354  0.2533 -0.4809
  163SAPE   H2Y18297   2.902   3.457   7.080 -0.5631 -2.2110  2.2674
  163SAPE   C2318298   3.288   4.218   6.703  0.5773  0.0788 -0.3250
  163SAPE   H3R18299   3.196   4.250   6.649  0.6758 -0.5554 -0.8968
  163SAPE   H3S18300   3.368   4.267   6.644  1.6762 -0.0708  0.9987
  163SAPE   C2418301   3.300   4.285   6.836  0.2734  0.1894 -0.9517
  163SAPE   H4R18302   3.208   4.281   6.899  1.2085  0.0939  0.4376
  163SAPE   H4S18303   3.302   4.394   6.814 -0.0813  0.1141 -1.3707
  163SAPE   C2518304   3.419   4.259   6.930  0.5336 -0.2331 -0.0209
  163SAPE   H5R18305   3.505   4.211   6.881  0.5312  1.8876 -2.3091
  163SAPE   C2618306   3.424   4.292   7.059  0.1258  0.3982  1.0455
  163SAPE   H6R18307   3.499   4.244   7.123 -0.5560 -2.9953 -0.4571
  163SAPE   C2718308   3.321   4.372   7.133  0.1658 -0.1770 -0.3694
  163SAPE   H7R18309   3.277   4.446   7.063  0.1859  0.9856  0.8176
  163SAPE   H7S18310   3.364   4.434   7.214  0.4171 -1.0549  0.1808
  163SAPE   C2818311   3.219   4.280   7.192 -0.6234 -0.2073  0.1324
  163SAPE   H8R18312   3.177   4.213   7.115  0.7205 -1.2984  0.3208
  163SAPE   C2918313   3.170   4.277   7.312 -0.1361  0.2895 -1.1210
  163SAPE   H9R18314   3.102   4.196   7.342 -0.4111  0.4873 -1.2077
  163SAPE  C21018315   3.216   4.363   7.427 -0.2206 -0.5902 -0.4733
  163SAPE  H10R18316   3.326   4.373   7.432 -0.3962  1.7840 -0.3508
  163SAPE  H10S18317   3.198   4.304   7.520  2.4521 -1.5142 -0.4730
  163SAPE  C21118318   3.150   4.494   7.431  0.1916 -0.0902 -0.0990
  163SAPE  H11R18319   3.137   4.534   7.329  1.7776 -0.5305 -0.4950
  163SAPE  C21218320   3.113   4.572   7.537 -0.5410 -0.7755  0.2181
  163SAPE  H12R18321   3.074   4.673   7.516 -2.8965 -2.1545 -2.8845
  163SAPE  C21318322   3.139   4.531   7.683  0.5263  0.2397 -0.0304
  163SAPE  H13R18323   3.121   4.422   7.697 -0.1300  0.0835 -1.8075
  163SAPE  H13S18324   3.075   4.577   7.761  1.8799  1.1591  0.5758
  163SAPE  C21418325   3.283   4.553   7.721 -0.5828  0.7029 -0.1520
  163SAPE  H14R18326   3.359   4.576   7.644  0.5921  0.8057  1.0136
  163SAPE  C21518327   3.315   4.566   7.851  0.0688  0.0385  0.0796
  163SAPE  H15R18328   3.421   4.572   7.878  0.6611  0.0809 -2.1219
  163SAPE  C21618329   3.222   4.562   7.967 -0.8152  0.0113 -0.2717
  163SAPE  H16R18330   3.131   4.508   7.933 -0.1148 -0.7142 -1.0515
  163SAPE  H16S18331   3.185   4.666   7.983  1.4947  0.8330  0.1221
  163SAPE  C21718332   3.270   4.505   8.099 -0.5854  0.0844 -0.2139
  163SAPE  H17R18333   3.321   4.583   8.160  0.7927  0.5013 -1.8201
  163SAPE  H17S18334   3.342   4.421   8.092 -0.4017 -0.4249  4.5229
  163SAPE  C21818335   3.152   4.445   8.180  0.1515 -0.3388  0.7329
  163SAPE  H18R18336   3.106   4.363   8.121 -2.9500  0.5849  1.6481
  163SAPE  H18S18337   3.068   4.516   8.197 -0.9683 -1.8313  1.7565
  163SAPE  C21918338   3.195   4.376   8.311 -0.0855  0.5084  0.9470
  163SAPE  H19R18339   3.257   4.293   8.272 -1.6784 -0.1883 -0.2130
  163SAPE  H19S18340   3.101   4.339   8.358 -0.4435  1.3208  0.8999
  163SAPE  C22018341   3.274   4.464   8.408 -0.0325 -0.6867  0.7825
  163SAPE  H20R18342   3.369   4.505   8.369 -0.5186 -0.5262 -0.2852
  163SAPE  H20S18343   3.284   4.407   8.503 -1.5843 -2.5428 -0.0801
  163SAPE  H20T18344   3.213   4.556   8.421  0.7969 -0.0446  0.2216
  163SAPE   C3318345   2.997   3.261   7.111  0.0784  0.0888  0.0657
  163SAPE   H3X18346   3.083   3.212   7.059 -0.3690  1.9147 -2.6141
  163SAPE   H3Y18347   2.912   3.190   7.108 -1.0987  1.3085  2.4622
  163SAPE   C3418348   3.032   3.304   7.248  0.2301 -0.6112  0.2343
  163SAPE   H4X18349   3.128   3.360   7.251 -1.3855  2.3459  0.2849
  163SAPE   H4Y18350   3.041   3.216   7.316 -0.0907 -0.2175  0.7943
  163SAPE   C3518351   2.930   3.397   7.326  0.1112 -0.0628 -0.3568
  163SAPE   H5X18352   2.923   3.497   7.277  0.6822 -0.8035 -2.0375
  163SAPE   H5Y18353   2.977   3.406   7.426 -0.2662 -1.6490 -0.0076
  163SAPE   C3618354   2.797   3.327   7.364  0.5368 -0.7650 -0.3901
  163SAPE   H6X18355   2.815   3.239   7.430 -0.7618  0.8720  2.3342
  163SAPE   H6Y18356   2.746   3.290   7.273  2.1684 -3.2556 -0.3883
  163SAPE   C3718357   2.702   3.429   7.443 -0.2618  0.2123  0.6173
  163SAPE   H7X18358   2.598   3.391   7.449 -0.7853  1.1734 -1.5526
  163SAPE   H7Y18359   2.704   3.527   7.391  0.8848  0.0209  0.2818
  163SAPE   C3818360   2.755   3.458   7.581 -0.1092  0.0811 -0.2982
  163SAPE   H8X18361   2.711   3.549   7.627  0.1824  0.2432 -0.3381
  163SAPE   H8Y18362   2.866   3.469   7.580 -0.0147 -0.8104  0.0790
  163SAPE   C3918363   2.724   3.347   7.678  0.5394 -0.0834  0.3694
  163SAPE   H9X18364   2.774   3.251   7.653 -1.5443 -1.4719  1.1875
  163SAPE   H9Y18365   2.616   3.320   7.671  0.6613 -0.3648 -0.4891
  163SAPE  C31018366   2.745   3.393   7.827  0.4054 -0.9662  0.1522
  163SAPE  H10X18367   2.678   3.481   7.831  0.6725 -0.5761 -2.5793
  163SAPE  H10Y18368   2.855   3.409   7.832  0.1718  0.3637  3.4243
  163SAPE  C31118369   2.713   3.294   7.939  0.7484  0.6230  0.4858
  163SAPE  H11X18370   2.767   3.199   7.915 -0.8033 -0.3131  0.5556
  163SAPE  H11Y18371   2.604   3.272   7.940  0.8655  0.0209  1.2915
  163SAPE  C31218372   2.750   3.339   8.085 -0.4158 -0.2758  0.5567
  163SAPE  H12X18373   2.860   3.350   8.091  0.6386 -5.7313 -2.4714
  163SAPE  H12Y18374   2.723   3.264   8.162  0.6357 -0.9637  0.2674
  163SAPE  C31318375   2.691   3.469   8.133  0.1727 -0.7048  0.1971
  163SAPE  H13X18376   2.582   3.488   8.125  0.1553 -0.6960  0.4699
  163SAPE  H13Y18377   2.729   3.543   8.059 -0.6528 -0.1425  0.3160
  163SAPE  C31418378   2.740   3.501   8.273  0.5038 -0.0477  0.5572
  163SAPE  H14X18379   2.709   3.607   8.283 -2.4836 -0.6883 -0.8329
  163SAPE  H14Y18380   2.850   3.490   8.280  0.7287  0.3724 -1.7033
  163SAPE  C31518381   2.675   3.415   8.381 -0.1263  0.0540 -0.1134
  163SAPE  H15X18382   2.748   3.331   8.384  1.5604  1.3941 -1.4767
  163SAPE  H15Y18383   2.575   3.377   8.353 -0.9687 -0.4334  3.0882
  163SAPE  C31618384   2.663   3.476   8.519  0.2009  0.2670  0.1095
  163SAPE  H16X18385   2.608   3.571   8.501 -0.9650 -0.7175 -1.8029
  163SAPE  H16Y18386   2.763   3.499   8.561  1.1549 -2.3233 -0.5859
  163SAPE  C31718387   2.596   3.391   8.627  0.1883 -0.1501  0.4629
  163SAPE  H17X18388   2.637   3.405   8.729 -0.9748 -0.0862  0.9358
  163SAPE  H17Y18389   2.621   3.283   8.619 -0.1043 -0.3636  2.2051
  163SAPE  C31818390   2.449   3.422   8.630  0.6612 -0.7602  0.0110
  163SAPE  H18X18391   2.395   3.345   8.689 -1.1134  0.6211  0.2752
  163SAPE  H18Y18392   2.415   3.432   8.525 -0.9926  1.9597  0.7256
  163SAPE  H18Z18393   2.437   3.523   8.673  0.1782  0.2542 -2.3741
  164SAPE     N18394   0.502   5.967   6.282 -0.8250  0.4235 -0.7343
  164SAPE   HN118395   0.548   5.877   6.256  1.8166  1.4974 -0.1391
  164SAPE   HN218396   0.502   5.952   6.385  2.4049 -1.2397 -0.8527
  164SAPE   HN318397   0.407   5.970   6.239 -1.8570 -0.8622  1.2689
  164SAPE   C1218398   0.577   6.087   6.241 -0.2605  0.7009  0.4033
  164SAPE  H12A18399   0.559   6.095   6.131  3.0108  1.0886 -0.1925
  164SAPE  H12B18400   0.687   6.076   6.251 -0.3654  0.8541  1.8002
  164SAPE   C1118401   0.527   6.211   6.314 -0.0411 -0.2984  0.5810
  164SAPE  H11A18402   0.542   6.206   6.424 -2.6893 -0.3441  1.0156
  164SAPE  H11B18403   0.416   6.215   6.308  0.0130  1.5052  0.1833
  164SAPE     P18404   0.700   6.402   6.296 -0.0673  0.1580 -0.1828
  164SAPE   O1318405   0.793   6.297   6.334  0.5604  0.1154  0.1759
  164SAPE   O1418406   0.742   6.503   6.195  0.5699  0.3068 -0.1806
  164SAPE   O1218407   0.576   6.327   6.242 -0.3623  0.4678 -0.0458
  164SAPE   O1118408   0.651   6.472   6.429  0.2306 -0.4988 -0.1055
  164SAPE    C118409   0.553   6.572   6.422  1.0065 -0.0323  0.2874
  164SAPE    HA18410   0.589   6.645   6.346  1.5272 -1.0988 -0.5066
  164SAPE    HB18411   0.457   6.529   6.386  2.7970 -1.8660 -2.6709
  164SAPE    C218412   0.530   6.641   6.560 -0.0956 -0.0487 -0.3691
  164SAPE    HS18413   0.429   6.688   6.554  0.4352  1.1091 -0.5148
  164SAPE   O2118414   0.629   6.742   6.588 -0.0970 -0.3188  0.0080
  164SAPE   C2118415   0.616   6.834   6.678  0.3147 -0.2328 -0.0798
  164SAPE   O2218416   0.514   6.852   6.747  0.5579 -0.1306  0.2235
  164SAPE   C2218417   0.735   6.926   6.678 -0.3097  0.2030 -0.3588
  164SAPE   H2R18418   0.822   6.887   6.621  1.2894 -0.0976  2.1262
  164SAPE   H2S18419   0.693   7.019   6.633 -0.0113  0.1881 -0.6709
  164SAPE    C318420   0.527   6.527   6.662  0.5102 -0.4864 -0.0436
  164SAPE    HX18421   0.628   6.483   6.650  1.7671  1.5174  2.1614
  164SAPE    HY18422   0.458   6.446   6.631  1.0380 -2.4572  3.4264
  164SAPE   O3118423   0.508   6.567   6.801  0.0315 -0.3305  0.1409
  164SAPE   C3118424   0.384   6.581   6.833  0.6157  0.4356  0.2704
  164SAPE   O3218425   0.288   6.553   6.761  0.0037  0.6355 -0.4421
  164SAPE   C3218426   0.369   6.647   6.973  0.4734  0.2624  0.8384
  164SAPE   H2X18427   0.426   6.742   6.965  0.1545  0.3559 -0.5705
  164SAPE   H2Y18428   0.413   6.566   7.034 -0.4944 -3.2282 -2.6788
  164SAPE   C2318429   0.788   6.947   6.820 -0.4533  0.0817  0.0506
  164SAPE   H3R18430   0.715   6.958   6.903  0.1091  3.3566  0.2649
  164SAPE   H3S18431   0.834   7.048   6.821 -0.8641  0.2870  2.0816
  164SAPE   C2418432   0.900   6.842   6.865  0.4050  0.0430  0.5845
  164SAPE   H4R18433   0.951   6.900   6.945 -1.5786  0.1105  1.8664
  164SAPE   H4S18434   0.958   6.822   6.772  0.9690 -2.6536  1.4160
  164SAPE   C2518435   0.849   6.713   6.913 -0.6908  0.1547  0.0347
  164SAPE   H5R18436   0.857   6.638   6.833  1.5212  0.0220  0.3253
  164SAPE   C2618437   0.800   6.676   7.035 -0.7205 -0.2142  0.1486
  164SAPE   H6R18438   0.774   6.570   7.050 -0.6989 -0.2270  0.0955
  164SAPE   C2718439   0.785   6.756   7.162 -0.5898  0.0556  0.8205
  164SAPE   H7R18440   0.795   6.863   7.134  0.1485 -0.3090 -0.4045
  164SAPE   H7S18441   0.872   6.748   7.230  1.1246 -1.0645 -1.3702
  164SAPE   C2818442   0.649   6.732   7.229 -0.4534 -0.1681 -0.4155
  164SAPE   H8R18443   0.557   6.725   7.168 -0.1957 -0.2032 -0.8011
  164SAPE   C2918444   0.635   6.739   7.358  0.7970 -0.6838 -0.9126
  164SAPE   H9R18445   0.533   6.720   7.398  0.5923  3.6312  1.1636
  164SAPE  C21018446   0.728   6.771   7.470 -0.3258  0.5601  0.4089
  164SAPE  H10R18447   0.792   6.857   7.441  0.2220  0.0823  0.1697
  164SAPE  H10S18448   0.796   6.683   7.478 -0.3980  0.3213 -1.2443
  164SAPE  C21118449   0.663   6.799   7.603 -0.1405  0.1417 -0.1602
  164SAPE  H11R18450   0.670   6.900   7.646  1.4903 -0.3496  0.8057
  164SAPE  C21218451   0.594   6.714   7.688  0.2780  0.2362 -0.1966
  164SAPE  H12R18452   0.558   6.747   7.787  0.3807 -0.1912 -0.0165
  164SAPE  C21318453   0.559   6.566   7.655  0.3247  0.0919  0.0666
  164SAPE  H13R18454   0.566   6.512   7.752 -1.5776  0.4617  0.4665
  164SAPE  H13S18455   0.634   6.517   7.589  0.2039  0.6623 -0.5049
  164SAPE  C21418456   0.426   6.556   7.585  0.8519  0.5680  0.1256
  164SAPE  H14R18457   0.431   6.554   7.475  0.3182 -0.3509  0.1108
  164SAPE  C21518458   0.296   6.568   7.638 -0.4749 -0.1403  0.0453
  164SAPE  H15R18459   0.206   6.556   7.577  1.2900 -0.0043 -2.8114
  164SAPE  C21618460   0.284   6.584   7.793 -0.1002 -0.2510  0.3199
  164SAPE  H16R18461   0.382   6.559   7.839  0.1998  1.4340  0.6443
  164SAPE  H16S18462   0.207   6.508   7.819 -1.2757  0.8965  0.2863
  164SAPE  C21718463   0.236   6.724   7.831  0.4179  0.3784 -0.4328
  164SAPE  H17R18464   0.135   6.739   7.788  0.4038  3.2248  0.3807
  164SAPE  H17S18465   0.301   6.804   7.792 -1.3600  1.2878 -1.6529
  164SAPE  C21818466   0.206   6.750   7.978 -0.0991 -0.0945  0.4744
  164SAPE  H18R18467   0.150   6.669   8.031 -0.9031  0.4015  0.4017
  164SAPE  H18S18468   0.137   6.837   7.981  1.0422  0.8268  1.0152
  164SAPE  C21918469   0.335   6.767   8.056  0.1140  0.4634  0.8767
  164SAPE  H19R18470   0.394   6.845   8.005 -1.3878  0.2860 -1.2573
  164SAPE  H19S18471   0.390   6.671   8.067 -1.8343 -0.7328  0.8720
  164SAPE  C22018472   0.317   6.806   8.202 -0.3336  0.4193  0.0729
  164SAPE  H20R18473   0.413   6.826   8.253  0.4359 -1.9933 -0.3265
  164SAPE  H20S18474   0.259   6.732   8.261 -0.0924  0.3160  0.1800
  164SAPE  H20T18475   0.263   6.903   8.190 -0.0710  0.6566  0.7671
  164SAPE   C3318476   0.224   6.680   7.015 -0.3981 -0.3478 -0.0041
  164SAPE   H3X18477   0.163   6.587   7.010 -0.2015 -0.6237  1.9620
  164SAPE   H3Y18478   0.174   6.761   6.957 -1.0666  1.1804  2.5482
  164SAPE   C3418479   0.215   6.713   7.166  0.1088 -0.1279 -0.1236
  164SAPE   H4X18480   0.286   6.647   7.219  0.8297  1.2150  0.6246
  164SAPE   H4Y18481   0.114   6.688   7.205 -0.6475 -0.4677 -2.1616
  164SAPE   C3518482   0.230   6.864   7.199  0.6594  0.1754 -0.4585
  164SAPE   H5X18483   0.158   6.926   7.140  1.5325  0.1400 -1.6016
  164SAPE   H5Y18484   0.332   6.892   7.166  1.1709 -1.2712 -0.1708
  164SAPE   C3618485   0.213   6.901   7.345 -0.0328 -0.8046 -0.1873
  164SAPE   H6X18486   0.283   6.847   7.412  1.8610 -0.3122 -1.6732
  164SAPE   H6Y18487   0.111   6.869   7.376 -0.1746  1.4700  2.0423
  164SAPE   C3718488   0.237   7.051   7.367  0.7810  0.3218  0.2111
  164SAPE   H7X18489   0.174   7.114   7.301  0.4685  0.6572  0.8163
  164SAPE   H7Y18490   0.344   7.079   7.357  1.7408 -1.2620  3.9987
  164SAPE   C3818491   0.203   7.109   7.508  0.0910  0.0591 -0.2945
  164SAPE   H8X18492   0.097   7.108   7.538 -0.4657 -1.3146 -2.0860
  164SAPE   H8Y18493   0.231   7.216   7.503  1.2357 -0.2082 -0.0481
  164SAPE   C3918494   0.290   7.039   7.619 -0.0403 -0.5883 -0.4220
  164SAPE   H9X18495   0.391   7.013   7.581  0.1558  0.2549 -0.4886
  164SAPE   H9Y18496   0.225   6.949   7.629 -0.3259 -0.4730 -1.1694
  164SAPE  C31018497   0.284   7.105   7.755  0.3172 -0.2921  0.6545
  164SAPE  H10X18498   0.333   7.205   7.749  1.0366 -0.6879 -0.5320
  164SAPE  H10Y18499   0.342   7.049   7.832 -1.4916 -0.8611  1.6504
  164SAPE  C31118500   0.146   7.126   7.800  0.2263 -0.1808 -0.8033
  164SAPE  H11X18501   0.097   7.028   7.780  1.0653 -0.5406 -1.1730
  164SAPE  H11Y18502   0.084   7.203   7.749  0.1425  0.3460  0.0784
  164SAPE  C31218503   0.123   7.157   7.949  0.2913  0.1414 -0.3674
  164SAPE  H12X18504   0.155   7.261   7.973  0.4972  0.1584 -0.6993
  164SAPE  H12Y18505   0.195   7.092   8.002  2.1369  1.2528 -1.3807
  164SAPE  C31318506  -0.022   7.129   7.994 -0.2157 -0.2089 -0.3734
  164SAPE  H13X18507  -0.051   7.024   7.970 -3.1411  0.9307 -2.4235
  164SAPE  H13Y18508  -0.100   7.198   7.955 -0.8739 -0.9887 -0.4562
  164SAPE  C31418509  -0.030   7.142   8.148  0.0492 -0.2199  0.0809
  164SAPE  H14X18510  -0.017   7.245   8.187  1.0161 -0.1549 -0.3823
  164SAPE  H14Y18511   0.058   7.085   8.187  0.0591 -0.8253 -0.7971
  164SAPE  C31518512  -0.160   7.086   8.193  0.4875 -0.0266  0.5090
  164SAPE  H15X18513  -0.179   6.981   8.161  0.6545  0.6303 -1.9011
  164SAPE  H15Y18514  -0.235   7.149   8.142  1.7232  0.0743 -1.2457
  164SAPE  C31618515  -0.187   7.105   8.343 -0.1998  0.2807 -0.2826
  164SAPE  H16X18516  -0.280   7.048   8.368  1.1452 -1.5320  0.8435
  164SAPE  H16Y18517  -0.203   7.210   8.376 -0.4931  1.1272 -2.8912
  164SAPE  C31718518  -0.083   7.031   8.431  0.2308 -0.1025  0.5577
  164SAPE  H17X18519  -0.115   7.046   8.537 -1.4127  1.2229 -0.0791
  164SAPE  H17Y18520   0.019   7.073   8.435  0.2966 -0.3482  2.4110
  164SAPE  C31818521  -0.080   6.880   8.397 -0.0935  0.8285  0.8713
  164SAPE  H18X18522  -0.032   6.830   8.484 -1.0377  0.0137  0.9374
  164SAPE  H18Y18523  -0.031   6.841   8.305  0.0392  0.6941  0.9998
  164SAPE  H18Z18524  -0.181   6.836   8.380 -0.0328  0.3042  1.8124
  165SAPE     N18525   5.936   4.264   6.470  0.4274  0.0933  0.2333
  165SAPE   HN118526   5.917   4.167   6.437  0.1876  0.0673  0.4479
  165SAPE   HN218527   5.894   4.293   6.560 -0.0510  0.8518 -0.2189
  165SAPE   HN318528   5.892   4.318   6.392 -0.0798 -1.7490 -0.8180
  165SAPE   C1218529   6.083   4.271   6.477  0.7091 -0.2434 -0.4740
  165SAPE  H12A18530   6.127   4.222   6.388 -0.5945 -0.3144 -1.1078
  165SAPE  H12B18531   6.112   4.204   6.560  0.6391  0.1503 -0.1292
  165SAPE   C1118532   6.138   4.414   6.502  0.3781 -0.3286  0.3381
  165SAPE  H11A18533   6.249   4.408   6.512  0.3723  1.0347  1.5099
  165SAPE  H11B18534   6.090   4.447   6.596 -0.5502 -0.7180  0.0152
  165SAPE     P18535   6.192   4.567   6.291  0.0984  0.4939  0.5962
  165SAPE   O1318536   6.270   4.455   6.233 -0.2621  0.7821  0.1783
  165SAPE   O1418537   6.119   4.648   6.194 -0.2568  0.3983 -0.0315
  165SAPE   O1218538   6.101   4.506   6.393  0.2460 -0.2337  0.2549
  165SAPE   O1118539   6.277   4.659   6.380  0.0448  0.0690  0.0959
  165SAPE    C118540   6.211   4.749   6.465 -0.1047 -0.0600 -0.7968
  165SAPE    HA18541   6.242   4.851   6.434 -0.3660 -0.5547 -2.8460
  165SAPE    HB18542   6.100   4.742   6.462  0.0078 -2.4145 -1.0441
  165SAPE    C218543   6.247   4.719   6.617  0.0983  0.3090 -0.4887
  165SAPE    HS18544   6.206   4.618   6.637 -0.8581  0.2227 -2.6403
  165SAPE   O2118545   6.173   4.813   6.705 -0.4088  0.6655 -0.2092
  165SAPE   C2118546   6.165   4.758   6.833 -0.4878 -0.7339 -0.2721
  165SAPE   O2218547   6.172   4.643   6.854  0.5959  0.1785 -0.2045
  165SAPE   C2218548   6.145   4.878   6.928  0.4567  0.1735  0.6606
  165SAPE   H2R18549   6.243   4.928   6.944 -0.0426  0.6783  2.3373
  165SAPE   H2S18550   6.088   4.957   6.876 -0.7331 -0.8223  0.3860
  165SAPE    C318551   6.400   4.714   6.633  0.3852  0.3421 -0.4293
  165SAPE    HX18552   6.438   4.818   6.626  0.5073  0.5239  2.0396
  165SAPE    HY18553   6.447   4.651   6.555 -0.2003  0.1958 -0.6742
  165SAPE   O3118554   6.428   4.663   6.769 -0.6132 -0.1204 -0.6658
  165SAPE   C3118555   6.510   4.557   6.768 -1.2184  0.1607 -0.1455
  165SAPE   O3218556   6.556   4.508   6.667 -0.2984  0.1837  0.4893
  165SAPE   C3218557   6.534   4.509   6.913  0.2580  0.2101  1.1096
  165SAPE   H2X18558   6.643   4.519   6.927  0.3760 -0.9148  1.0814
  165SAPE   H2Y18559   6.507   4.401   6.916 -1.4960  0.5829  0.2673
  165SAPE   C2318560   6.099   4.821   7.065 -0.4539 -0.6894  0.4727
  165SAPE   H3R18561   6.172   4.752   7.112  1.0441  0.1629 -0.5240
  165SAPE   H3S18562   6.007   4.761   7.045 -0.0329 -1.9552  2.0628
  165SAPE   C2418563   6.066   4.941   7.166  0.3218  0.4615  0.1196
  165SAPE   H4R18564   5.984   5.000   7.119  0.3247  0.8339  0.5684
  165SAPE   H4S18565   6.162   4.996   7.154  1.5902 -1.9844 -1.7650
  165SAPE   C2518566   6.039   4.885   7.310  0.0395  0.6229  0.3325
  165SAPE   H5R18567   5.939   4.840   7.324 -0.5484  1.7483 -0.0948
  165SAPE   C2618568   6.120   4.909   7.419  0.5210 -0.3697  0.3953
  165SAPE   H6R18569   6.081   4.884   7.518 -0.7341  3.2822  0.9672
  165SAPE   C2718570   6.242   4.994   7.429  0.1383 -0.7044  0.0908
  165SAPE   H7R18571   6.204   5.098   7.420  0.6292 -0.6072 -1.0798
  165SAPE   H7S18572   6.289   4.991   7.329  1.0634 -0.9856  0.5216
  165SAPE   C2818573   6.343   4.988   7.535 -0.7927  0.2357 -1.0754
  165SAPE   H8R18574   6.438   4.945   7.500 -0.8420 -1.7038  0.9364
  165SAPE   C2918575   6.332   5.014   7.667  0.2295  0.2973 -0.0336
  165SAPE   H9R18576   6.423   4.999   7.727  0.4563 -0.4892 -0.5611
  165SAPE  C21018577   6.207   5.057   7.731 -0.0076 -0.0807  0.4726
  165SAPE  H10R18578   6.121   5.049   7.661  0.7612  0.0250 -0.5048
  165SAPE  H10S18579   6.209   5.168   7.741 -1.0995  0.0886 -0.8310
  165SAPE  C21118580   6.181   4.992   7.859  0.7704  0.8183 -1.1474
  165SAPE  H11R18581   6.230   4.894   7.863 -0.0889  0.4145  1.3662
  165SAPE  C21218582   6.102   5.032   7.962  0.3434  0.2735  0.0207
  165SAPE  H12R18583   6.094   4.966   8.050  0.3349  1.5244  0.9961
  165SAPE  C21318584   6.036   5.170   7.970  0.0982 -0.3367  0.3104
  165SAPE  H13R18585   5.926   5.158   7.983 -0.0507 -2.4852 -2.0326
  165SAPE  H13S18586   6.049   5.220   7.871 -1.2735 -1.6087 -0.5590
  165SAPE  C21418587   6.092   5.257   8.084  0.1877  0.0509  0.7240
  165SAPE  H14R18588   6.184   5.213   8.125  0.3455 -0.8071 -0.5228
  165SAPE  C21518589   6.044   5.374   8.131  0.5468  0.1639 -1.1519
  165SAPE  H15R18590   6.093   5.432   8.210 -0.1678  0.7137 -1.0919
  165SAPE  C21618591   5.915   5.438   8.072  0.4700 -0.3880  0.0979
  165SAPE  H16R18592   5.888   5.405   7.970 -0.6700  2.5557 -0.6688
  165SAPE  H16S18593   5.925   5.549   8.068 -0.7066 -0.2850 -0.3335
  165SAPE  C21718594   5.782   5.419   8.153  0.2324 -0.3646  0.6281
  165SAPE  H17R18595   5.762   5.310   8.137 -1.5168  0.1360 -1.0616
  165SAPE  H17S18596   5.706   5.481   8.101  0.6417 -0.0066  0.4576
  165SAPE  C21818597   5.804   5.462   8.299  0.1103  0.4349 -0.1878
  165SAPE  H18R18598   5.845   5.562   8.324 -1.5777  0.7458  1.6254
  165SAPE  H18S18599   5.876   5.386   8.339 -2.2527 -1.4903  0.6621
  165SAPE  C21918600   5.685   5.446   8.393 -0.3347 -0.8852 -0.6641
  165SAPE  H19R18601   5.589   5.483   8.352  0.2227  1.4711  0.0170
  165SAPE  H19S18602   5.691   5.495   8.493  1.1185 -2.0967 -0.1043
  165SAPE  C22018603   5.672   5.297   8.424 -0.3622 -0.3335 -0.0229
  165SAPE  H20R18604   5.637   5.235   8.339 -0.6560 -0.6041  0.2961
  165SAPE  H20S18605   5.593   5.283   8.501  0.3937  0.7138  0.9892
  165SAPE  H20T18606   5.762   5.245   8.464 -0.3347 -1.4516 -1.4600
  165SAPE   C3318607   6.449   4.574   7.028 -0.0133  0.2361  0.5466
  165SAPE   H3X18608   6.341   4.577   7.001  0.2396 -1.7565 -0.9293
  165SAPE   H3Y18609   6.473   4.681   7.048 -1.2227  0.2676  2.0234
  165SAPE   C3418610   6.462   4.507   7.164  0.1980 -0.4702 -0.6971
  165SAPE   H4X18611   6.559   4.453   7.163 -0.4623 -1.7203 -1.1458
  165SAPE   H4Y18612   6.379   4.432   7.166  1.4313 -1.8595  1.1723
  165SAPE   C3518613   6.451   4.612   7.269  0.4715 -0.4402 -0.0896
  165SAPE   H5X18614   6.363   4.677   7.247  0.0927 -0.9272 -0.0362
  165SAPE   H5Y18615   6.542   4.675   7.267  0.3165 -0.2265 -0.5086
  165SAPE   C3618616   6.422   4.553   7.408 -0.1410  1.0120  0.5159
  165SAPE   H6X18617   6.513   4.496   7.436  0.5285  1.1472 -1.2101
  165SAPE   H6Y18618   6.330   4.490   7.412  0.1974  0.5885  2.2582
  165SAPE   C3718619   6.394   4.659   7.517 -0.0738 -0.0516 -0.2250
  165SAPE   H7X18620   6.299   4.716   7.505  0.0846  1.0056  2.6162
  165SAPE   H7Y18621   6.486   4.721   7.517  0.4059 -0.7461 -0.9742
  165SAPE   C3818622   6.398   4.582   7.656  0.4486 -0.1011  0.5159
  165SAPE   H8X18623   6.486   4.515   7.664  1.4252  1.0353 -0.3168
  165SAPE   H8Y18624   6.309   4.518   7.645 -0.0674  0.9067 -1.8603
  165SAPE   C3918625   6.382   4.673   7.780  0.0017 -0.6465  0.8617
  165SAPE   H9X18626   6.338   4.610   7.860 -1.7043 -1.4600 -0.6366
  165SAPE   H9Y18627   6.310   4.754   7.755  0.3350 -1.0903 -1.9332
  165SAPE  C31018628   6.517   4.743   7.826 -0.1135 -0.1838  0.3365
  165SAPE  H10X18629   6.553   4.800   7.737 -0.2176 -1.7325 -0.7303
  165SAPE  H10Y18630   6.586   4.659   7.846 -0.5853 -1.5016 -2.8875
  165SAPE  C31118631   6.503   4.826   7.958  0.1939  0.0062 -0.0620
  165SAPE  H11X18632   6.423   4.901   7.944  0.6246  0.2832 -1.1866
  165SAPE  H11Y18633   6.595   4.887   7.974 -0.9489  2.2593 -1.5673
  165SAPE  C31218634   6.465   4.746   8.087 -0.8435  0.3876  0.4561
  165SAPE  H12X18635   6.382   4.674   8.071  0.0305 -0.4563 -0.3924
  165SAPE  H12Y18636   6.446   4.829   8.159 -3.8953  1.3334 -1.2540
  165SAPE  C31318637   6.590   4.659   8.128 -0.0658 -0.2410  0.3532
  165SAPE  H13X18638   6.687   4.712   8.118 -0.1276 -0.1629  0.1677
  165SAPE  H13Y18639   6.590   4.560   8.079 -2.3997 -0.0098 -0.2449
  165SAPE  C31418640   6.583   4.630   8.278 -0.1765 -0.1155 -0.5624
  165SAPE  H14X18641   6.493   4.576   8.314 -0.7075  2.1382  1.8786
  165SAPE  H14Y18642   6.591   4.720   8.344 -2.0966 -0.1690 -0.1929
  165SAPE  C31518643   6.700   4.539   8.323  0.9007  0.4038 -0.4989
  165SAPE  H15X18644   6.794   4.576   8.276  0.0951  0.2070 -2.3401
  165SAPE  H15Y18645   6.685   4.439   8.276 -0.6044  1.0355 -1.4349
  165SAPE  C31618646   6.704   4.520   8.478  0.0749 -0.2501 -0.2794
  165SAPE  H16X18647   6.735   4.619   8.518 -0.4356 -0.1321 -0.1679
  165SAPE  H16Y18648   6.786   4.447   8.495  1.6476  0.7306 -3.1158
  165SAPE  C31718649   6.575   4.474   8.561 -0.8699 -0.1949 -0.0035
  165SAPE  H17X18650   6.524   4.387   8.513 -0.4252 -0.4819  0.0347
  165SAPE  H17Y18651   6.504   4.559   8.557 -2.1212 -1.2380 -0.7322
  165SAPE  C31818652   6.607   4.427   8.703  0.2272  0.4382 -1.0941
  165SAPE  H18X18653   6.616   4.516   8.768  2.0664 -0.8355  0.5087
  165SAPE  H18Y18654   6.695   4.360   8.710  1.0079  1.4708 -0.8390
  165SAPE  H18Z18655   6.515   4.381   8.747  1.6415  0.8692  2.6565
  166SAPE     N18656   2.899   6.131   6.038  0.4077  0.0824  0.1377
  166SAPE   HN118657   2.843   6.218   6.035 -0.7122 -0.6438 -0.8334
  166SAPE   HN218658   2.945   6.114   5.946 -2.8720 -0.5042 -1.5291
  166SAPE   HN318659   2.838   6.048   6.043 -0.9354  1.0017 -0.3993
  166SAPE   C1218660   3.004   6.119   6.147  0.5877 -0.7691 -0.4411
  166SAPE  H12A18661   2.960   6.115   6.249  4.4658 -0.0327  1.4689
  166SAPE  H12B18662   3.070   6.208   6.143  0.8577 -1.0024 -1.4839
  166SAPE   C1118663   3.081   5.989   6.121 -0.2764 -0.0806  0.0602
  166SAPE  H11A18664   2.998   5.916   6.123 -0.3087 -0.0433  1.6498
  166SAPE  H11B18665   3.157   5.966   6.200  1.9452  1.1229 -1.6098
  166SAPE     P18666   3.285   6.002   5.959  0.0787 -0.4257  0.6585
  166SAPE   O1318667   3.312   5.934   5.831  0.5034 -0.1751 -0.1558
  166SAPE   O1418668   3.338   6.145   5.964  0.4417  0.6251  0.6696
  166SAPE   O1218669   3.140   5.986   5.994  0.6770 -0.3244  0.0622
  166SAPE   O1118670   3.352   5.929   6.078 -0.9341 -0.1847 -0.3807
  166SAPE    C118671   3.375   5.791   6.086  0.0001 -0.2905  0.0785
  166SAPE    HA18672   3.276   5.740   6.080 -0.0229 -0.1052 -1.5724
  166SAPE    HB18673   3.427   5.744   6.000 -0.4698 -1.6183  0.4785
  166SAPE    C218674   3.444   5.749   6.218 -0.1956  0.1609 -1.2320
  166SAPE    HS18675   3.450   5.638   6.221 -3.3296 -0.1614  3.7347
  166SAPE   O2118676   3.359   5.793   6.329  0.5284 -0.2891  0.2151
  166SAPE   C2118677   3.298   5.711   6.405 -0.1560  0.3286  0.4434
  166SAPE   O2218678   3.310   5.589   6.401 -0.3876 -0.2342 -0.5162
  166SAPE   C2218679   3.209   5.799   6.501  0.5706  0.1614  0.5580
  166SAPE   H2R18680   3.214   5.904   6.466  2.0857  0.0939  0.5224
  166SAPE   H2S18681   3.103   5.766   6.491  0.7418 -0.2723  0.1589
  166SAPE    C318682   3.590   5.800   6.244  0.2497 -1.0300  0.4771
  166SAPE    HX18683   3.586   5.911   6.252 -1.7106 -0.9391 -0.9346
  166SAPE    HY18684   3.656   5.782   6.157 -2.0929  0.1408 -1.6838
  166SAPE   O3118685   3.649   5.742   6.360  1.0689  0.1398 -0.2415
  166SAPE   C3118686   3.684   5.616   6.348  1.0482  0.1555  0.2790
  166SAPE   O3218687   3.677   5.547   6.244 -0.0219  0.5090  0.2434
  166SAPE   C3218688   3.725   5.570   6.486 -0.0977 -0.4237  0.1716
  166SAPE   H2X18689   3.759   5.654   6.549  0.9175  0.8439 -1.9713
  166SAPE   H2Y18690   3.806   5.494   6.483 -0.4753 -0.9087  1.4005
  166SAPE   C2318691   3.264   5.806   6.649 -0.0555 -0.2575 -0.0141
  166SAPE   H3R18692   3.269   5.697   6.671 -2.1806 -0.5896 -0.9406
  166SAPE   H3S18693   3.196   5.856   6.721 -0.2065 -2.8574  1.7995
  166SAPE   C2418694   3.407   5.872   6.655  0.0473  0.2503 -0.6860
  166SAPE   H4R18695   3.483   5.823   6.591  1.4573 -1.2717  1.9808
  166SAPE   H4S18696   3.443   5.858   6.759  1.0809 -1.2225 -1.2105
  166SAPE   C2518697   3.402   6.012   6.624  0.8072  0.3540  0.1600
  166SAPE   H5R18698   3.425   6.031   6.518  1.0607 -0.2559  0.1015
  166SAPE   C2618699   3.380   6.119   6.696 -0.0458 -0.0580 -0.6845
  166SAPE   H6R18700   3.396   6.216   6.647  3.8013 -0.4347 -0.5027
  166SAPE   C2718701   3.344   6.123   6.844 -0.1641  0.4019  0.0840
  166SAPE   H7R18702   3.429   6.076   6.897 -1.5008 -1.8529  0.3386
  166SAPE   H7S18703   3.260   6.052   6.861 -2.6931  2.9404 -0.9377
  166SAPE   C2818704   3.317   6.265   6.895 -0.3178  0.0818  0.2138
  166SAPE   H8R18705   3.350   6.348   6.830  0.0329 -0.7264 -0.6704
  166SAPE   C2918706   3.244   6.304   7.004 -0.6543 -0.5488 -0.5621
  166SAPE   H9R18707   3.241   6.410   7.032 -1.7475 -0.0011 -2.5293
  166SAPE  C21018708   3.178   6.220   7.109  0.3693  0.3786  0.3640
  166SAPE  H10R18709   3.199   6.112   7.092 -1.6019 -0.2307  1.4439
  166SAPE  H10S18710   3.070   6.233   7.087  0.4812 -1.9803 -2.0983
  166SAPE  C21118711   3.196   6.256   7.254 -0.1492  0.7899  0.2787
  166SAPE  H11R18712   3.303   6.252   7.279 -0.2997  0.5617  0.9053
  166SAPE  C21218713   3.107   6.292   7.341 -0.3168 -0.0449  0.1411
  166SAPE  H12R18714   3.137   6.307   7.445 -0.8588  1.0750  0.1510
  166SAPE  C21318715   2.954   6.308   7.322  0.5952 -0.6403 -0.1973
  166SAPE  H13R18716   2.910   6.225   7.380  0.4515  0.0662  0.7352
  166SAPE  H13S18717   2.920   6.295   7.217  0.1326  0.9840 -0.2856
  166SAPE  C21418718   2.889   6.426   7.385  0.2011  0.4880 -0.6391
  166SAPE  H14R18719   2.839   6.483   7.305  2.0404 -0.8554 -2.8543
  166SAPE  C21518720   2.892   6.456   7.512 -0.3597  0.6505 -0.2790
  166SAPE  H15R18721   2.849   6.549   7.550 -0.6925 -0.1241  1.3124
  166SAPE  C21618722   2.959   6.374   7.619 -0.3672  0.2337 -0.1330
  166SAPE  H16R18723   3.070   6.380   7.619 -0.1963 -1.3448  2.3678
  166SAPE  H16S18724   2.936   6.270   7.587  1.5207 -0.2081 -0.1681
  166SAPE  C21718725   2.919   6.402   7.766  0.6861 -0.6184  0.5786
  166SAPE  H17R18726   2.924   6.511   7.788  2.1925 -0.0478 -2.2137
  166SAPE  H17S18727   2.997   6.357   7.832  1.0235 -0.6475  0.1606
  166SAPE  C21818728   2.770   6.352   7.794  0.4107  0.2201 -0.1573
  166SAPE  H18R18729   2.769   6.243   7.774  1.6189  0.3319 -0.8991
  166SAPE  H18S18730   2.704   6.414   7.730  0.3690 -0.0280 -0.3547
  166SAPE  C21918731   2.727   6.357   7.946  0.3562  0.2237 -0.1810
  166SAPE  H19R18732   2.616   6.353   7.960  0.2118  0.9913 -1.0157
  166SAPE  H19S18733   2.762   6.450   7.996 -0.2494 -0.7080  2.1067
  166SAPE  C22018734   2.795   6.236   8.028  0.6484  0.3949 -0.0948
  166SAPE  H20R18735   2.906   6.230   8.022  0.7702  0.7457  1.4322
  166SAPE  H20S18736   2.755   6.145   7.978  1.2645  0.3126 -0.4501
  166SAPE  H20T18737   2.766   6.227   8.135  0.6864 -0.0233 -0.1174
  166SAPE   C3318738   3.602   5.499   6.558  0.1504 -0.3205  0.0046
  166SAPE   H3X18739   3.551   5.429   6.488 -0.6204  0.7414 -0.5229
  166SAPE   H3Y18740   3.534   5.577   6.599  1.4603  0.6863  0.3328
  166SAPE   C3418741   3.638   5.415   6.680  0.2849  0.5110  0.0044
  166SAPE   H4X18742   3.725   5.353   6.648 -0.3505  1.2274 -3.5946
  166SAPE   H4Y18743   3.555   5.349   6.712  0.1746 -0.3257 -1.8322
  166SAPE   C3518744   3.670   5.501   6.803  0.2426  0.7136  0.3330
  166SAPE   H5X18745   3.746   5.580   6.783 -0.8480  2.1429  1.5482
  166SAPE   H5Y18746   3.715   5.433   6.879  0.1150 -2.1766 -2.0190
  166SAPE   C3618747   3.549   5.574   6.871 -0.1312 -0.6170  0.3154
  166SAPE   H6X18748   3.489   5.494   6.920 -0.1026 -0.3526  0.7855
  166SAPE   H6Y18749   3.488   5.615   6.788 -0.0827 -0.6253  0.2754
  166SAPE   C3718750   3.582   5.682   6.974  0.3145 -0.3672  0.4728
  166SAPE   H7X18751   3.634   5.763   6.919  0.0836 -1.0995 -0.8715
  166SAPE   H7Y18752   3.654   5.644   7.049  0.0652  1.3412  1.6366
  166SAPE   C3818753   3.454   5.728   7.052  0.0862 -0.3680  1.0195
  166SAPE   H8X18754   3.410   5.633   7.090  1.6580 -0.5773  2.4027
  166SAPE   H8Y18755   3.380   5.780   6.987  0.4533 -2.6577 -1.4141
  166SAPE   C3918756   3.497   5.815   7.172 -0.9212  0.2186  0.6852
  166SAPE   H9X18757   3.560   5.895   7.129 -1.1743 -0.6155 -1.3832
  166SAPE   H9Y18758   3.546   5.743   7.241  0.9643 -1.5764 -2.2987
  166SAPE  C31018759   3.395   5.889   7.258 -0.2662  0.7242  0.6189
  166SAPE  H10X18760   3.312   5.815   7.270 -1.8358  2.3750  0.3077
  166SAPE  H10Y18761   3.354   5.972   7.197 -2.1358  0.3573  1.3010
  166SAPE  C31118762   3.445   5.936   7.393 -0.1942 -0.0147 -0.0187
  166SAPE  H11X18763   3.507   6.025   7.367 -0.3732  0.5106  1.2630
  166SAPE  H11Y18764   3.504   5.865   7.454 -1.4982 -0.1007  1.1812
  166SAPE  C31218765   3.330   5.981   7.483 -0.0695  0.2537  0.2564
  166SAPE  H12X18766   3.266   5.890   7.489 -4.2016  2.7940 -1.7018
  166SAPE  H12Y18767   3.262   6.060   7.447 -2.2169 -1.2206  0.9066
  166SAPE  C31318768   3.380   6.025   7.621  0.2405 -0.2764 -0.8413
  166SAPE  H13X18769   3.457   6.103   7.602 -0.0523 -0.3086 -2.2594
  166SAPE  H13Y18770   3.435   5.945   7.674  1.9366  1.5376  0.2892
  166SAPE  C31418771   3.273   6.084   7.711  0.8855 -0.3344  0.1374
  166SAPE  H14X18772   3.187   6.013   7.711  1.6237 -1.2823  1.4311
  166SAPE  H14Y18773   3.227   6.181   7.683 -0.9938 -0.9045  1.0713
  166SAPE  C31518774   3.311   6.093   7.862 -0.1047 -0.4495 -0.2750
  166SAPE  H15X18775   3.374   6.184   7.861 -2.8558  1.6216  0.3102
  166SAPE  H15Y18776   3.365   6.006   7.904  1.1262 -0.3021 -1.4870
  166SAPE  C31618777   3.186   6.141   7.942  0.7176 -0.2540  0.8027
  166SAPE  H16X18778   3.087   6.098   7.917 -0.2155  1.9448  0.4239
  166SAPE  H16Y18779   3.166   6.246   7.911 -3.3805 -0.7112  1.3704
  166SAPE  C31718780   3.204   6.146   8.091 -0.3362  0.3097  0.2260
  166SAPE  H17X18781   3.241   6.048   8.127  2.2140  0.8372 -0.7346
  166SAPE  H17Y18782   3.110   6.167   8.147  1.3211  1.5535  2.7414
  166SAPE  C31818783   3.302   6.255   8.137  0.5119  0.5873 -0.4799
  166SAPE  H18X18784   3.280   6.356   8.096 -0.7816  0.7970  0.6584
  166SAPE  H18Y18785   3.405   6.238   8.099 -0.2626  0.3080 -2.6239
  166SAPE  H18Z18786   3.309   6.264   8.247  0.4128 -0.0991 -0.4184
  167SAPE     N18787   3.984   1.482   6.287  1.1250  0.8255 -0.0695
  167SAPE   HN118788   3.951   1.475   6.189 -0.0872 -0.0608  0.3722
  167SAPE   HN218789   3.905   1.452   6.348  0.0551  1.6357 -1.0210
  167SAPE   HN318790   3.998   1.584   6.304  0.3044  1.0516 -0.6604
  167SAPE   C1218791   4.114   1.419   6.322  0.3005  0.3649  0.3174
  167SAPE  H12A18792   4.190   1.450   6.248  0.0503 -1.3143 -0.6841
  167SAPE  H12B18793   4.103   1.310   6.343  2.3971  0.2396  0.9608
  167SAPE   C1118794   4.172   1.473   6.455  0.2913 -0.0375  0.0837
  167SAPE  H11A18795   4.273   1.429   6.469  0.1731 -0.3430 -0.0140
  167SAPE  H11B18796   4.114   1.450   6.547  1.4749  2.2466  1.4927
  167SAPE     P18797   4.271   1.719   6.401  0.0973 -0.0969  0.1803
  167SAPE   O1318798   4.319   1.676   6.261 -0.4004  0.1857 -0.4155
  167SAPE   O1418799   4.207   1.855   6.404  0.9070  0.6031  0.5469
  167SAPE   O1218800   4.172   1.608   6.456 -0.0474  0.4011  0.1417
  167SAPE   O1118801   4.396   1.718   6.491 -0.1659  0.3649  0.2506
  167SAPE    C118802   4.525   1.672   6.457 -0.2918 -0.0129 -0.1127
  167SAPE    HA18803   4.507   1.579   6.398 -2.0713 -0.3471  0.8773
  167SAPE    HB18804   4.586   1.745   6.400 -0.2658  1.0896  1.2812
  167SAPE    C218805   4.604   1.634   6.583  0.2627  0.2913  0.2484
  167SAPE    HS18806   4.692   1.576   6.549  1.2900  2.7520 -1.6484
  167SAPE   O2118807   4.514   1.561   6.678 -0.0260  0.1676  0.0624
  167SAPE   C2118808   4.472   1.441   6.644  0.1375 -0.2379  0.0014
  167SAPE   O2218809   4.523   1.375   6.553 -0.0066  0.3615  0.3047
  167SAPE   C2218810   4.354   1.408   6.732 -0.3180  0.0773  0.1545
  167SAPE   H2R18811   4.396   1.419   6.834 -0.5700 -0.0047  0.2664
  167SAPE   H2S18812   4.268   1.479   6.728 -0.0342  0.5643  1.8205
  167SAPE    C318813   4.653   1.755   6.666 -0.4307  0.7517 -0.4384
  167SAPE    HX18814   4.567   1.818   6.696  0.9737  1.9736  1.1993
  167SAPE    HY18815   4.713   1.815   6.595  1.1465 -0.9253 -0.5888
  167SAPE   O3118816   4.742   1.728   6.782  0.2030 -0.2838  0.3372
  167SAPE   C3118817   4.867   1.715   6.757 -0.3193  0.8053  0.0788
  167SAPE   O3218818   4.923   1.711   6.646  0.3990  0.3432  0.4322
  167SAPE   C3218819   4.929   1.696   6.894  0.1795 -0.2768 -0.0822
  167SAPE   H2X18820   4.850   1.662   6.965 -1.0388 -0.3957 -1.4392
  167SAPE   H2Y18821   4.968   1.791   6.935  1.0347 -0.3190 -0.7803
  167SAPE   C2318822   4.303   1.255   6.725 -0.4616  0.3967  0.5573
  167SAPE   H3R18823   4.391   1.188   6.737  0.4243  1.1263 -1.4161
  167SAPE   H3S18824   4.274   1.248   6.618 -0.6203 -0.2090  0.6396
  167SAPE   C2418825   4.185   1.225   6.820  0.0760 -0.2017 -1.2873
  167SAPE   H4R18826   4.157   1.119   6.805 -0.4658 -0.0426 -1.4116
  167SAPE   H4S18827   4.104   1.285   6.773  1.2350  1.5745 -1.1299
  167SAPE   C2518828   4.190   1.259   6.964 -0.4774 -0.4406 -0.6136
  167SAPE   H5R18829   4.147   1.355   6.998 -0.1787 -0.7655  0.7481
  167SAPE   C2618830   4.253   1.193   7.059  0.4429  0.0535 -0.1925
  167SAPE   H6R18831   4.259   1.235   7.161  0.1263  0.9487 -0.5383
  167SAPE   C2718832   4.333   1.070   7.042  0.1745  0.8387  0.0356
  167SAPE   H7R18833   4.424   1.082   7.104  0.2314 -0.1784  0.1665
  167SAPE   H7S18834   4.377   1.065   6.940 -1.9707  0.6824 -0.9385
  167SAPE   C2818835   4.251   0.941   7.069 -0.4287  0.8158 -0.0916
  167SAPE   H8R18836   4.230   0.890   6.974 -1.7191  1.3106 -0.0895
  167SAPE   C2918837   4.219   0.889   7.194 -0.2261  0.1561  0.2361
  167SAPE   H9R18838   4.165   0.795   7.210  0.4888 -0.2350  0.3796
  167SAPE  C21018839   4.256   0.956   7.326 -0.1785  0.3402 -0.0567
  167SAPE  H10R18840   4.313   1.049   7.303  2.3396 -1.4032 -1.2594
  167SAPE  H10S18841   4.330   0.892   7.378 -1.3782  1.0118  2.6305
  167SAPE  C21118842   4.150   0.968   7.430  0.1327  0.9063  1.0149
  167SAPE  H11R18843   4.049   0.942   7.395 -0.0659  1.4906  1.1513
  167SAPE  C21218844   4.159   1.011   7.549  0.0145  0.1028 -0.4864
  167SAPE  H12R18845   4.078   1.021   7.622  2.1085  0.5835  1.9041
  167SAPE  C21318846   4.289   1.064   7.607  0.9263  0.5249  0.5484
  167SAPE  H13R18847   4.372   1.024   7.544 -0.6627 -0.4115 -1.0502
  167SAPE  H13S18848   4.311   1.015   7.705  0.4909  0.7211  0.7465
  167SAPE  C21418849   4.287   1.217   7.622 -0.5873  0.3232  1.0921
  167SAPE  H14R18850   4.298   1.274   7.528  0.0041 -1.4971  0.0181
  167SAPE  C21518851   4.258   1.280   7.738  0.1610 -0.6667  0.3573
  167SAPE  H15R18852   4.253   1.389   7.750  2.1660 -0.4023 -0.6844
  167SAPE  C21618853   4.216   1.209   7.865 -0.2940 -0.2425 -0.5715
  167SAPE  H16R18854   4.181   1.104   7.859  0.1903 -0.4446  0.0501
  167SAPE  H16S18855   4.132   1.259   7.920  0.0755 -1.7384  1.4627
  167SAPE  C21718856   4.335   1.207   7.963 -0.1298 -0.1991  0.8412
  167SAPE  H17R18857   4.377   1.309   7.972  0.2131 -0.2448 -0.1051
  167SAPE  H17S18858   4.418   1.156   7.909  0.3082  0.1850  1.1453
  167SAPE  C21818859   4.312   1.135   8.095  0.0786 -0.2273  0.3650
  167SAPE  H18R18860   4.285   1.027   8.087 -0.0372 -0.3465  1.9459
  167SAPE  H18S18861   4.222   1.184   8.137  0.7493  0.0245  1.5755
  167SAPE  C21918862   4.424   1.157   8.198 -0.2634  0.1787  0.0434
  167SAPE  H19R18863   4.473   1.253   8.171  1.2234 -0.0157  1.8226
  167SAPE  H19S18864   4.498   1.076   8.181  0.4610  0.8086  0.1745
  167SAPE  C22018865   4.382   1.151   8.349  0.6671  0.6218 -0.5109
  167SAPE  H20R18866   4.358   1.046   8.375 -0.5031  0.5639 -1.6854
  167SAPE  H20S18867   4.283   1.196   8.369  0.1576 -1.4351  2.1209
  167SAPE  H20T18868   4.455   1.193   8.422  0.1074  0.7917 -0.0381
  167SAPE   C3318869   5.038   1.592   6.876  0.9898  0.1143  0.0439
  167SAPE   H3X18870   5.130   1.633   6.830  0.8680  1.6571  1.0765
  167SAPE   H3Y18871   5.008   1.498   6.826 -2.1656  1.6052 -1.1240
  167SAPE   C3418872   5.084   1.553   7.012  0.0517  0.5837  0.5735
  167SAPE   H4X18873   5.143   1.460   7.003 -0.2616  0.0584  3.1126
  167SAPE   H4Y18874   5.004   1.539   7.089  0.9733  0.4455  1.5269
  167SAPE   C3518875   5.194   1.649   7.068  0.0363 -0.1058  0.3017
  167SAPE   H5X18876   5.179   1.754   7.032 -1.8107 -0.7694 -1.0206
  167SAPE   H5Y18877   5.291   1.614   7.026  0.5703  3.0101 -1.4239
  167SAPE   C3618878   5.201   1.671   7.222 -0.2892  0.0932  0.1274
  167SAPE   H6X18879   5.112   1.715   7.272  0.0043  0.0000  0.7403
  167SAPE   H6Y18880   5.290   1.736   7.240 -0.4681 -0.1508  2.1073
  167SAPE   C3718881   5.223   1.534   7.294 -0.3996 -0.4751 -0.0539
  167SAPE   H7X18882   5.319   1.500   7.248  1.2062  2.0253  1.2599
  167SAPE   H7Y18883   5.146   1.458   7.266  1.0111 -1.4649 -1.4681
  167SAPE   C3818884   5.254   1.542   7.442 -0.0548  0.9913 -1.0143
  167SAPE   H8X18885   5.339   1.613   7.456  1.4192 -1.1239  1.8400
  167SAPE   H8Y18886   5.277   1.441   7.480 -0.9387  0.8432 -0.8574
  167SAPE   C3918887   5.127   1.580   7.525  0.3742  0.0334  0.1657
  167SAPE   H9X18888   5.043   1.538   7.465  0.4452  0.6595 -0.3861
  167SAPE   H9Y18889   5.123   1.691   7.519 -2.1651 -0.0543 -1.0665
  167SAPE  C31018890   5.120   1.544   7.672 -0.4899 -0.1894 -0.4019
  167SAPE  H10X18891   5.144   1.436   7.681  0.6478  0.1659  1.3736
  167SAPE  H10Y18892   5.021   1.568   7.716 -0.7358 -0.9045 -0.5492
  167SAPE  C31118893   5.234   1.611   7.755  0.1419 -0.6569 -0.7739
  167SAPE  H11X18894   5.253   1.717   7.726 -0.5381 -0.9780 -2.5377
  167SAPE  H11Y18895   5.330   1.564   7.722  2.7625  3.6848 -0.2059
  167SAPE  C31218896   5.216   1.607   7.904 -0.6580 -0.5098 -0.2798
  167SAPE  H12X18897   5.145   1.523   7.919 -0.7946 -0.5340 -1.0300
  167SAPE  H12Y18898   5.157   1.686   7.955 -0.1166 -0.5193  0.3755
  167SAPE  C31318899   5.338   1.575   7.981  0.2627 -1.1892 -0.6175
  167SAPE  H13X18900   5.406   1.663   7.975 -1.7253  0.3427 -1.6656
  167SAPE  H13Y18901   5.394   1.485   7.945  0.6275 -1.5443  0.7688
  167SAPE  C31418902   5.308   1.554   8.126 -0.2485  0.3000  0.3809
  167SAPE  H14X18903   5.235   1.471   8.134  0.1429  0.0795  2.0667
  167SAPE  H14Y18904   5.253   1.644   8.163  0.2572  1.5807 -1.8065
  167SAPE  C31518905   5.434   1.520   8.206  0.2327 -0.0213 -0.4265
  167SAPE  H15X18906   5.470   1.416   8.190  0.7047 -0.0106  0.4969
  167SAPE  H15Y18907   5.410   1.533   8.314  0.0453  1.2521 -0.6060
  167SAPE  C31618908   5.557   1.615   8.194 -0.2813  0.0116 -0.4232
  167SAPE  H16X18909   5.517   1.715   8.220  1.3998  1.0333 -1.6176
  167SAPE  H16Y18910   5.588   1.636   8.090 -1.8515  2.6077 -0.4313
  167SAPE  C31718911   5.682   1.566   8.275  0.7105  0.1695  0.1435
  167SAPE  H17X18912   5.777   1.616   8.247 -0.1810  1.3590 -0.8537
  167SAPE  H17Y18913   5.684   1.455   8.272  0.7500  0.0647  2.3212
  167SAPE  C31818914   5.672   1.591   8.427  0.2011  0.9735  0.1221
  167SAPE  H18X18915   5.746   1.544   8.496  1.1241  2.2971  0.0668
  167SAPE  H18Y18916   5.579   1.550   8.474  1.9837 -2.1698  1.2282
  167SAPE  H18Z18917   5.677   1.699   8.452 -0.2828  1.3503 -1.3583
  168SAPE     N18918   0.867   1.105   6.073 -0.2854  0.0200  0.0383
  168SAPE   HN118919   0.941   1.128   6.004  1.9172 -1.1933  1.8276
  168SAPE   HN218920   0.825   1.014   6.045  2.3834 -1.4193  0.3345
  168SAPE   HN318921   0.782   1.165   6.070 -0.5612 -0.3181  0.7614
  168SAPE   C1218922   0.921   1.084   6.215  0.3001  0.3597 -0.6410
  168SAPE  H12A18923   0.838   1.044   6.277  2.0635 -2.9350 -0.1626
  168SAPE  H12B18924   0.974   1.177   6.244  1.3154  0.2443 -2.0330
  168SAPE   C1118925   1.028   0.971   6.204 -0.2109 -0.3959  0.2830
  168SAPE  H11A18926   0.979   0.877   6.172 -2.2085  1.2304 -1.9208
  168SAPE  H11B18927   1.076   0.949   6.301  3.6842 -3.0325 -1.9528
  168SAPE     P18928   1.256   0.924   6.074  0.0157 -0.3877 -0.0257
  168SAPE   O1318929   1.231   0.780   6.067 -0.5305  0.4220  0.6031
  168SAPE   O1418930   1.324   0.986   5.958 -0.1577  0.0501  0.1171
  168SAPE   O1218931   1.124   1.009   6.101 -0.2112  0.2246 -0.1762
  168SAPE   O1118932   1.342   0.950   6.200 -0.3121  0.6490 -0.4129
  168SAPE    C118933   1.389   1.073   6.249 -0.4138 -0.0584  0.2347
  168SAPE    HA18934   1.464   1.100   6.172  1.5478 -1.3759  1.5718
  168SAPE    HB18935   1.306   1.145   6.239  0.0871  0.7856  1.8462
  168SAPE    C218936   1.431   1.063   6.396  0.3106  0.5300 -0.3000
  168SAPE    HS18937   1.531   1.014   6.398  0.6606  1.1031 -1.9414
  168SAPE   O2118938   1.334   0.984   6.468 -0.1676 -0.4012  0.1880
  168SAPE   C2118939   1.372   0.864   6.500  1.0391 -0.3957  0.9231
  168SAPE   O2218940   1.479   0.814   6.466  0.6318 -0.0588  0.4850
  168SAPE   C2218941   1.280   0.807   6.608  0.1588  0.3445 -0.9876
  168SAPE   H2R18942   1.246   0.882   6.683 -1.1522 -1.1732 -0.0082
  168SAPE   H2S18943   1.192   0.759   6.561  0.4254 -0.2770 -0.8616
  168SAPE    C318944   1.446   1.195   6.471 -0.0510  1.0334 -0.1075
  168SAPE    HX18945   1.345   1.241   6.473 -0.1930  0.7450 -0.4488
  168SAPE    HY18946   1.513   1.252   6.404 -0.6509  1.2071 -0.5712
  168SAPE   O3118947   1.517   1.179   6.594 -0.3145  0.2666  0.2622
  168SAPE   C3118948   1.449   1.204   6.701 -0.8215 -0.3670  0.5800
  168SAPE   O3218949   1.335   1.242   6.706 -0.0415  0.1021 -0.2676
  168SAPE   C3218950   1.539   1.158   6.816 -0.4186  0.0127  0.4967
  168SAPE   H2X18951   1.644   1.192   6.804 -0.5246  0.9500  1.9312
  168SAPE   H2Y18952   1.538   1.046   6.816  0.3647 -0.0427 -1.9366
  168SAPE   C2318953   1.345   0.691   6.684  0.3877  0.1546 -0.8958
  168SAPE   H3R18954   1.450   0.719   6.705  0.4424  0.3558 -1.4264
  168SAPE   H3S18955   1.346   0.598   6.623  1.8163 -0.0477 -0.6047
  168SAPE   C2418956   1.274   0.660   6.813  0.4175  0.2594  0.0465
  168SAPE   H4R18957   1.301   0.735   6.890 -0.8660  1.2271 -0.3978
  168SAPE   H4S18958   1.317   0.567   6.856 -1.5924  0.1133  1.8862
  168SAPE   C2518959   1.119   0.641   6.800 -0.3370  0.0593  0.5228
  168SAPE   H5R18960   1.079   0.613   6.702  0.4795 -1.1468  0.5156
  168SAPE   C2618961   1.030   0.645   6.898  0.2596  0.0716 -0.2299
  168SAPE   H6R18962   0.925   0.620   6.875  0.0328  1.5026 -0.8529
  168SAPE   C2718963   1.058   0.653   7.044  0.4806  0.8211 -0.8822
  168SAPE   H7R18964   1.160   0.694   7.058  0.5620  0.1972  0.4399
  168SAPE   H7S18965   1.054   0.551   7.087  1.4329  1.1579  0.0603
  168SAPE   C2818966   0.959   0.734   7.130 -1.1820  1.0185  0.0055
  168SAPE   H8R18967   0.896   0.806   7.076 -0.2428  0.9483 -1.2241
  168SAPE   C2918968   0.958   0.730   7.262  0.2717  0.1313  0.3226
  168SAPE   H9R18969   0.872   0.777   7.311  0.7029  1.1249  0.1494
  168SAPE  C21018970   1.048   0.653   7.355  0.5421  0.8096 -0.0232
  168SAPE  H10R18971   1.125   0.603   7.292 -1.3871 -0.3099 -1.6420
  168SAPE  H10S18972   0.990   0.583   7.419 -1.8657  0.2312 -2.6241
  168SAPE  C21118973   1.118   0.751   7.441 -0.0222  0.1587 -0.0582
  168SAPE  H11R18974   1.219   0.776   7.405  0.2229  1.1852  1.2685
  168SAPE  C21218975   1.084   0.807   7.563 -0.4576  0.2930  0.3056
  168SAPE  H12R18976   1.147   0.885   7.610 -1.7052  0.2478  2.1476
  168SAPE  C21318977   0.952   0.779   7.634 -0.7982  0.3025  0.0801
  168SAPE  H13R18978   0.966   0.699   7.710  1.8753 -0.7281 -1.3357
  168SAPE  H13S18979   0.875   0.742   7.563 -1.1994  0.2992  0.5155
  168SAPE  C21418980   0.890   0.905   7.695  0.6888 -0.1076  0.0606
  168SAPE  H14R18981   0.837   0.968   7.621  0.8211  0.6681  0.6174
  168SAPE  C21518982   0.887   0.948   7.827  0.3640  0.6268  0.0245
  168SAPE  H15R18983   0.830   1.037   7.858  1.4936  2.2982 -2.3859
  168SAPE  C21618984   0.955   0.873   7.937  0.0928 -0.2990 -0.5720
  168SAPE  H16R18985   0.937   0.763   7.928  1.1258 -0.5744  0.5073
  168SAPE  H16S18986   0.912   0.905   8.034  0.4205  1.1118 -0.8805
  168SAPE  C21718987   1.112   0.892   7.955 -0.8106  0.3894  0.1621
  168SAPE  H17R18988   1.164   0.875   7.858 -1.7437  0.0667 -0.2941
  168SAPE  H17S18989   1.141   0.813   8.026  1.1261  1.8108  1.0569
  168SAPE  C21818990   1.168   1.030   8.005  0.5567  0.1712  0.7250
  168SAPE  H18R18991   1.103   1.081   8.080  0.2124 -0.0607  0.5877
  168SAPE  H18S18992   1.163   1.103   7.921 -1.4199 -1.5384 -0.7442
  168SAPE  C21918993   1.305   1.017   8.070 -0.7108  0.5205  0.0207
  168SAPE  H19R18994   1.347   1.120   8.074 -0.1553  0.2609  1.6509
  168SAPE  H19S18995   1.369   0.971   7.993 -0.3275  1.1712 -0.0616
  168SAPE  C22018996   1.317   0.948   8.206 -0.5866  0.5512 -0.4452
  168SAPE  H20R18997   1.256   0.995   8.286  1.0495 -0.8132  1.7457
  168SAPE  H20S18998   1.414   0.964   8.258 -0.2555 -1.8069 -0.2452
  168SAPE  H20T18999   1.301   0.839   8.195  1.1589  0.1310  0.7215
  168SAPE   C3319000   1.479   1.209   6.949  0.0984 -0.0792 -1.4388
  168SAPE   H3X19001   1.376   1.167   6.955  0.8661 -1.9115  0.8370
  168SAPE   H3Y19002   1.478   1.320   6.944 -1.2819  0.1101  1.2222
  168SAPE   C3419003   1.555   1.167   7.079 -0.1280 -0.5610  0.3022
  168SAPE   H4X19004   1.658   1.206   7.088 -0.1510 -0.4183 -0.0482
  168SAPE   H4Y19005   1.569   1.056   7.075  0.3442 -0.5313  0.9938
  168SAPE   C3519006   1.472   1.183   7.205 -0.0438  0.0063  0.0849
  168SAPE   H5X19007   1.372   1.134   7.208 -0.0458  0.0309  0.4388
  168SAPE   H5Y19008   1.441   1.289   7.213  2.1395  0.7405 -0.4888
  168SAPE   C3619009   1.556   1.142   7.328 -0.3217 -0.2681 -0.2053
  168SAPE   H6X19010   1.656   1.190   7.323 -1.1586  1.5048 -0.5814
  168SAPE   H6Y19011   1.560   1.032   7.312  0.7188 -0.5515  1.6686
  168SAPE   C3719012   1.487   1.183   7.463  0.1474 -0.6750 -0.1791
  168SAPE   H7X19013   1.386   1.136   7.474 -2.0023  3.1202 -1.8769
  168SAPE   H7Y19014   1.468   1.292   7.457  0.7792 -0.6624 -3.3706
  168SAPE   C3819015   1.569   1.169   7.592  0.1740  0.3170  0.3637
  168SAPE   H8X19016   1.666   1.221   7.576  0.8829 -1.0635 -0.0016
  168SAPE   H8Y19017   1.589   1.061   7.609 -1.9369  0.0352  1.4094
  168SAPE   C3919018   1.483   1.220   7.714  0.7789  0.4306  0.3590
  168SAPE   H9X19019   1.400   1.148   7.729  0.4073  0.5782 -0.8384
  168SAPE   H9Y19020   1.438   1.319   7.691 -1.4298 -0.8662 -1.3401
  168SAPE  C31019021   1.570   1.235   7.837  0.2311 -0.6954  0.3486
  168SAPE  H10X19022   1.508   1.285   7.914  1.1522 -1.2804  1.4978
  168SAPE  H10Y19023   1.645   1.313   7.815 -3.7329  3.7522  0.9225
  168SAPE  C31119024   1.629   1.101   7.881 -0.6749 -0.3259  0.3997
  168SAPE  H11X19025   1.716   1.071   7.820  0.1074 -0.6386  1.6325
  168SAPE  H11Y19026   1.555   1.018   7.873 -0.6481 -0.2796 -0.3892
  168SAPE  C31219027   1.667   1.107   8.033 -0.1986 -0.5040  0.6685
  168SAPE  H12X19028   1.593   1.161   8.097  1.1749  1.6350  0.5525
  168SAPE  H12Y19029   1.764   1.160   8.034 -0.5241  0.1655 -0.6202
  168SAPE  C31319030   1.691   0.966   8.089 -0.9562  0.2476  0.0753
  168SAPE  H13X19031   1.765   0.922   8.018 -1.1341 -2.2042  1.3061
  168SAPE  H13Y19032   1.595   0.912   8.072 -0.8308 -0.6685  2.0489
  168SAPE  C31419033   1.732   0.954   8.238 -0.2157  0.3033 -0.5142
  168SAPE  H14X19034   1.649   0.998   8.298 -0.9650  0.2184 -1.4571
  168SAPE  H14Y19035   1.808   1.033   8.251 -0.1180  0.0672  0.4088
  168SAPE  C31519036   1.778   0.817   8.279  0.6778  0.1832  0.4917
  168SAPE  H15X19037   1.843   0.829   8.368  0.1241  0.2779  0.8837
  168SAPE  H15Y19038   1.839   0.777   8.195  0.7505  0.5527  0.3652
  168SAPE  C31619039   1.676   0.713   8.321 -0.0386  0.1976 -0.2625
  168SAPE  H16X19040   1.737   0.620   8.328  1.8064  1.3316 -0.3783
  168SAPE  H16Y19041   1.600   0.691   8.243 -0.2201 -0.6505  0.1463
  168SAPE  C31719042   1.603   0.741   8.455 -0.6494  0.4571  0.1935
  168SAPE  H17X19043   1.496   0.718   8.439 -1.3317  0.8144  3.5899
  168SAPE  H17Y19044   1.607   0.838   8.510  1.6997  1.2648 -1.2097
  168SAPE  C31819045   1.659   0.639   8.554 -0.3909  0.0516 -0.2790
  168SAPE  H18X19046   1.656   0.531   8.529  1.9878 -0.6087  1.8411
  168SAPE  H18Y19047   1.595   0.652   8.645 -0.4674  2.5958 -0.6247
  168SAPE  H18Z19048   1.764   0.661   8.584  0.0014 -0.9441 -0.8944
  169SAPE     N19049   6.032   3.077   5.854 -0.3528  0.9660  0.1311
  169SAPE   HN119050   6.081   3.133   5.782  0.5238  1.8822  1.3893
  169SAPE   HN219051   5.947   3.034   5.812  0.3795  0.2339 -0.6449
  169SAPE   HN319052   6.004   3.141   5.931  1.2956  0.4685  1.2050
  169SAPE   C1219053   6.126   2.953   5.886  0.2405 -0.2784 -0.1648
  169SAPE  H12A19054   6.226   3.002   5.888  0.1757 -0.1412 -0.2796
  169SAPE  H12B19055   6.124   2.881   5.802  2.4910 -1.1852  0.4816
  169SAPE   C1119056   6.082   2.883   6.014  0.7857 -0.5070 -0.1572
  169SAPE  H11A19057   6.132   2.784   6.017 -0.5369 -1.4086 -3.6157
  169SAPE  H11B19058   5.973   2.868   6.024  0.7287  0.4756  0.9752
  169SAPE     P19059   6.113   2.928   6.262 -0.0254  0.0583 -0.0940
  169SAPE   O1319060   6.208   2.816   6.280 -0.0721 -0.4860  0.5581
  169SAPE   O1419061   6.116   3.044   6.357  0.3007 -0.0460  0.4064
  169SAPE   O1219062   6.122   2.978   6.114 -0.2606  0.4774  0.4506
  169SAPE   O1119063   5.978   2.863   6.257  0.4958 -0.0700  0.2529
  169SAPE    C119064   5.852   2.925   6.297 -0.1813  0.2443  0.8187
  169SAPE    HA19065   5.849   3.036   6.295 -2.4623  0.2108 -0.7964
  169SAPE    HB19066   5.772   2.888   6.229  0.0787  3.9569 -1.8014
  169SAPE    C219067   5.819   2.876   6.445  0.0893 -0.5153  0.0873
  169SAPE    HS19068   5.712   2.895   6.466 -0.8198 -2.9888 -1.7084
  169SAPE   O2119069   5.905   2.949   6.544 -0.6055 -0.0766 -0.2602
  169SAPE   C2119070   5.876   3.069   6.570  1.1520  1.1649  0.0267
  169SAPE   O2219071   5.793   3.146   6.520 -0.9659  0.8156  1.1394
  169SAPE   C2219072   5.969   3.121   6.676 -0.3380  0.1962  0.1997
  169SAPE   H2R19073   6.042   3.182   6.618  0.6213 -2.9482 -2.1400
  169SAPE   H2S19074   5.907   3.188   6.740 -1.6960  1.8042 -2.6071
  169SAPE    C319075   5.834   2.721   6.466  0.0091 -0.3965  0.0030
  169SAPE    HX19076   5.930   2.682   6.424 -0.9411 -1.5085 -1.2467
  169SAPE    HY19077   5.754   2.676   6.403  1.4686 -1.4980 -1.1540
  169SAPE   O3119078   5.808   2.685   6.595  0.4959  0.4340 -0.3497
  169SAPE   C3119079   5.894   2.664   6.688 -0.8542 -0.1564  0.4903
  169SAPE   O3219080   6.014   2.669   6.667  0.1244 -0.0957  0.3254
  169SAPE   C3219081   5.827   2.638   6.821  0.1483  0.3731 -0.8149
  169SAPE   H2X19082   5.733   2.586   6.794 -0.4773  0.7106  0.6578
  169SAPE   H2Y19083   5.801   2.738   6.861 -2.8880 -2.0954  4.3388
  169SAPE   C2319084   6.040   3.019   6.758 -0.5645  0.2932 -0.0156
  169SAPE   H3R19085   6.097   2.948   6.694  1.0944  0.5902  1.0536
  169SAPE   H3S19086   5.972   2.943   6.803  0.6422 -0.1808  1.0696
  169SAPE   C2419087   6.134   3.075   6.867 -0.0137 -0.0810 -0.1752
  169SAPE   H4R19088   6.071   3.142   6.929 -0.3484  0.5673 -1.1914
  169SAPE   H4S19089   6.210   3.135   6.813 -0.2587  1.3246  0.9915
  169SAPE   C2519090   6.200   2.975   6.957  0.2797 -0.3476 -0.1585
  169SAPE   H5R19091   6.283   2.923   6.908  0.4859 -0.4872  0.3352
  169SAPE   C2619092   6.173   2.946   7.084 -0.6129  0.6795  0.2894
  169SAPE   H6R19093   6.237   2.870   7.131 -3.1076 -0.0555  2.8094
  169SAPE   C2719094   6.066   3.002   7.172 -0.3681  0.4408  0.2823
  169SAPE   H7R19095   5.978   3.042   7.116 -1.7849 -2.5542  0.1665
  169SAPE   H7S19096   6.104   3.079   7.243  2.6347 -0.8310  0.1975
  169SAPE   C2819097   6.011   2.887   7.259  0.3896 -0.5400 -0.6710
  169SAPE   H8R19098   5.925   2.836   7.213  0.0755 -1.9494  1.3591
  169SAPE   C2919099   6.033   2.850   7.387 -0.4357  0.0934 -0.0062
  169SAPE   H9R19100   5.993   2.755   7.425  1.1805 -0.1728  1.1093
  169SAPE  C21019101   6.137   2.908   7.483 -0.1831 -0.3629 -0.0981
  169SAPE  H10R19102   6.180   2.997   7.432  1.1901 -1.8865 -1.7444
  169SAPE  H10S19103   6.218   2.832   7.495 -1.0515 -1.1030  1.2529
  169SAPE  C21119104   6.089   2.972   7.616 -0.0956  0.3740  0.2420
  169SAPE  H11R19105   6.076   3.081   7.609  0.1542  0.4098  0.3208
  169SAPE  C21219106   6.071   2.902   7.729 -0.3072 -0.1830  0.4999
  169SAPE  H12R19107   6.043   2.949   7.824 -3.6320 -2.6155  0.9382
  169SAPE  C21319108   6.095   2.757   7.751 -0.2496  0.2682  0.0022
  169SAPE  H13R19109   6.193   2.737   7.799  0.1849 -1.5740 -1.5193
  169SAPE  H13S19110   6.113   2.712   7.651 -0.9010  1.9123 -0.8864
  169SAPE  C21419111   5.981   2.697   7.827  0.3074 -0.8230 -0.0193
  169SAPE  H14R19112   5.949   2.752   7.917  0.9152 -1.0218  0.3277
  169SAPE  C21519113   5.919   2.582   7.804  0.5797  0.4879  0.7556
  169SAPE  H15R19114   5.834   2.558   7.870  1.3755 -0.2125  1.5674
  169SAPE  C21619115   5.953   2.480   7.697 -0.2827 -0.9373  0.0372
  169SAPE  H16R19116   6.060   2.494   7.670 -0.6714  0.6252 -0.8600
  169SAPE  H16S19117   5.886   2.494   7.610 -1.3790 -0.9922  0.8552
  169SAPE  C21719118   5.936   2.334   7.737  0.0796 -0.7087 -0.8021
  169SAPE  H17R19119   5.828   2.309   7.747 -0.2795 -1.3015 -4.5289
  169SAPE  H17S19120   5.985   2.321   7.836  0.3431  0.5771 -0.7463
  169SAPE  C21819121   5.996   2.241   7.641  0.5560 -0.6241 -0.2476
  169SAPE  H18R19122   6.106   2.239   7.627  0.3123 -1.3856 -2.3120
  169SAPE  H18S19123   5.961   2.271   7.540 -2.2805 -0.4227  0.6970
  169SAPE  C21919124   5.954   2.091   7.643  1.0688 -0.0956 -0.6045
  169SAPE  H19R19125   5.844   2.082   7.644  1.1335 -0.9746 -0.3800
  169SAPE  H19S19126   5.994   2.047   7.737 -2.0564 -0.7423  0.5230
  169SAPE  C22019127   6.005   2.022   7.513  0.2070  0.1620  0.5743
  169SAPE  H20R19128   5.949   1.927   7.505  0.4387 -0.0758  1.6908
  169SAPE  H20S19129   6.114   1.999   7.515 -0.2760 -2.4693  0.0556
  169SAPE  H20T19130   5.985   2.096   7.431  1.0120  1.3090  1.3728
  169SAPE   C3319131   5.911   2.556   6.922 -0.2451 -0.3739  0.7723
  169SAPE   H3X19132   6.001   2.610   6.958  0.2203 -1.5384  1.3937
  169SAPE   H3Y19133   5.946   2.467   6.866 -1.3983 -0.8055  0.7195
  169SAPE   C3419134   5.831   2.511   7.040 -0.1135  0.7565 -0.5767
  169SAPE   H4X19135   5.744   2.453   7.002  0.0218  0.2816 -0.1677
  169SAPE   H4Y19136   5.789   2.602   7.087 -0.1746 -0.1529  1.2282
  169SAPE   C3519137   5.909   2.411   7.125 -0.2265  0.8779  0.5236
  169SAPE   H5X19138   5.981   2.459   7.195  0.4453 -0.4836  0.8046
  169SAPE   H5Y19139   5.962   2.342   7.057 -0.0207  1.0488  0.5105
  169SAPE   C3619140   5.817   2.332   7.221  0.3448 -0.3698  0.0409
  169SAPE   H6X19141   5.877   2.252   7.269 -0.3743 -1.0149 -0.1040
  169SAPE   H6Y19142   5.738   2.275   7.167 -0.1912 -0.4268  0.8756
  169SAPE   C3719143   5.734   2.411   7.329  0.2182  0.2131  0.5957
  169SAPE   H7X19144   5.665   2.478   7.273 -0.2182 -0.5639  0.1967
  169SAPE   H7Y19145   5.807   2.477   7.382  1.2990  2.0838 -2.8615
  169SAPE   C3819146   5.640   2.322   7.420  0.5005  0.5469 -0.3347
  169SAPE   H8X19147   5.696   2.246   7.478  0.6584  1.0485  0.1812
  169SAPE   H8Y19148   5.578   2.249   7.364 -0.0064  1.7839 -1.4603
  169SAPE   C3919149   5.565   2.402   7.530  0.3049  0.4469 -0.2834
  169SAPE   H9X19150   5.520   2.497   7.495 -2.0756 -0.5314 -0.0441
  169SAPE   H9Y19151   5.636   2.435   7.609  0.0049  2.8047 -0.9505
  169SAPE  C31019152   5.460   2.320   7.611  0.4529 -0.2244  0.6751
  169SAPE  H10X19153   5.504   2.226   7.650 -1.0761 -1.0117  0.5892
  169SAPE  H10Y19154   5.389   2.294   7.530 -0.1817  1.4148  0.6705
  169SAPE  C31119155   5.388   2.399   7.720  0.6803 -0.2640 -0.0293
  169SAPE  H11X19156   5.321   2.320   7.762  0.3105  0.3382  0.5297
  169SAPE  H11Y19157   5.319   2.478   7.683 -0.2666 -0.5139  1.1582
  169SAPE  C31219158   5.477   2.466   7.822  0.8442  0.8238  0.4927
  169SAPE  H12X19159   5.511   2.563   7.780  1.4869 -0.3558 -1.9229
  169SAPE  H12Y19160   5.550   2.385   7.844  0.0095  0.0765  0.5710
  169SAPE  C31319161   5.406   2.498   7.959 -0.2447  0.3467 -0.1360
  169SAPE  H13X19162   5.300   2.526   7.945 -0.4562 -0.2606  0.2073
  169SAPE  H13Y19163   5.457   2.585   8.007  0.3771 -2.0498  4.1245
  169SAPE  C31419164   5.410   2.382   8.060 -0.0383 -0.3975  0.0298
  169SAPE  H14X19165   5.513   2.341   8.071  2.7729  5.3242 -1.1114
  169SAPE  H14Y19166   5.366   2.301   7.997 -1.7199  0.6172 -0.1376
  169SAPE  C31519167   5.347   2.423   8.191  0.3150 -0.1163  0.0751
  169SAPE  H15X19168   5.247   2.463   8.161  0.5578  0.4414 -0.0056
  169SAPE  H15Y19169   5.405   2.505   8.238  1.7153  0.2763 -2.1748
  169SAPE  C31619170   5.304   2.302   8.267 -0.9421 -0.2222 -0.5923
  169SAPE  H16X19171   5.230   2.235   8.217 -0.5572 -2.2834  1.4084
  169SAPE  H16Y19172   5.249   2.350   8.351 -1.1373 -0.2816 -0.6862
  169SAPE  C31719173   5.421   2.213   8.320  0.1901  0.0372  0.6856
  169SAPE  H17X19174   5.471   2.166   8.233  1.1868  1.1759  0.6125
  169SAPE  H17Y19175   5.374   2.128   8.374 -2.7970  0.5617 -0.8539
  169SAPE  C31819176   5.523   2.282   8.411 -0.3113 -0.3742 -0.3992
  169SAPE  H18X19177   5.479   2.329   8.502  0.9332  0.7809 -0.3535
  169SAPE  H18Y19178   5.566   2.365   8.351  2.3963 -1.1340  0.3404
  169SAPE  H18Z19179   5.609   2.217   8.439  0.9368  1.5813  0.6098
  170SAPE     N19180   1.040   5.856   6.486 -0.2812 -0.7285 -0.0749
  170SAPE   HN119181   0.957   5.795   6.499 -0.5500 -0.2285  0.5995
  170SAPE   HN219182   1.116   5.813   6.541 -0.1123 -0.7968 -0.3565
  170SAPE   HN319183   1.029   5.948   6.534 -0.7294 -0.5724 -0.4617
  170SAPE   C1219184   1.086   5.881   6.344  0.1073  0.3489 -0.1540
  170SAPE  H12A19185   1.164   5.807   6.317 -0.8715 -0.8024  0.0393
  170SAPE  H12B19186   1.153   5.967   6.326  2.0748 -1.6336 -3.2506
  170SAPE   C1119187   0.979   5.882   6.237  0.0558  0.0657  0.2813
  170SAPE  H11A19188   1.016   5.929   6.143 -2.5350  0.6830 -0.4957
  170SAPE  H11B19189   0.892   5.944   6.268 -0.1688 -0.4802  0.7622
  170SAPE     P19190   0.803   5.692   6.262 -0.2778 -0.1167  0.2177
  170SAPE   O1319191   0.682   5.769   6.229  0.2213  0.0364  0.0433
  170SAPE   O1419192   0.800   5.548   6.221  0.0009  0.2715 -0.2934
  170SAPE   O1219193   0.941   5.749   6.197  0.1143 -0.0700 -0.6766
  170SAPE   O1119194   0.833   5.706   6.417 -0.0269 -0.4902 -0.6533
  170SAPE    C119195   0.763   5.636   6.519  0.0031 -0.0806 -0.0871
  170SAPE    HA19196   0.716   5.543   6.481  0.8896 -0.7082  0.3361
  170SAPE    HB19197   0.827   5.612   6.606  0.2601 -0.5798 -0.4128
  170SAPE    C219198   0.641   5.714   6.578  0.3788  0.1212  0.6966
  170SAPE    HS19199   0.580   5.754   6.494 -0.5171  2.1795  2.2463
  170SAPE   O2119200   0.705   5.818   6.653  0.5492 -0.4762 -1.0954
  170SAPE   C2119201   0.658   5.945   6.627 -0.1407  0.3112  0.1049
  170SAPE   O2219202   0.576   5.970   6.541 -0.0777  0.1863 -0.2273
  170SAPE   C2219203   0.707   6.031   6.740 -0.2864  0.0095 -0.1644
  170SAPE   H2R19204   0.684   5.971   6.831  0.4320 -0.0131  0.0074
  170SAPE   H2S19205   0.818   6.034   6.737  0.0729 -2.6112  3.4088
  170SAPE    C319206   0.551   5.630   6.667  0.1265 -0.0251  0.8327
  170SAPE    HX19207   0.474   5.576   6.606 -2.8847  2.4365  2.1529
  170SAPE    HY19208   0.491   5.706   6.721  0.0788 -0.5773  1.5794
  170SAPE   O3119209   0.627   5.548   6.755 -0.3095  0.2677  0.0746
  170SAPE   C3119210   0.573   5.429   6.802 -0.0328 -0.6534 -0.9228
  170SAPE   O3219211   0.467   5.384   6.767 -0.5307 -0.5063  0.2637
  170SAPE   C3219212   0.654   5.375   6.912 -0.3263  0.4149 -1.0206
  170SAPE   H2X19213   0.745   5.435   6.934  0.9226 -1.7384  0.1241
  170SAPE   H2Y19214   0.697   5.278   6.876 -0.8271 -0.1868 -0.0282
  170SAPE   C2319215   0.646   6.180   6.746  0.0058  0.7650  0.7353
  170SAPE   H3R19216   0.539   6.166   6.721  0.4511  0.8425 -1.3550
  170SAPE   H3S19217   0.696   6.237   6.665  0.9703 -1.2456 -0.1412
  170SAPE   C2419218   0.676   6.244   6.880 -0.0262  0.0452  0.2550
  170SAPE   H4R19219   0.641   6.173   6.959 -1.3207 -0.6290 -0.8969
  170SAPE   H4S19220   0.614   6.336   6.884  0.2889  0.2408  0.8486
  170SAPE   C2519221   0.822   6.268   6.896 -0.1445  0.1584  0.3846
  170SAPE   H5R19222   0.877   6.292   6.803 -0.5318  0.6460  0.2764
  170SAPE   C2619223   0.892   6.289   7.009 -0.1019 -0.1400  0.2463
  170SAPE   H6R19224   0.996   6.324   6.995  0.1216 -0.3434  1.2494
  170SAPE   C2719225   0.839   6.287   7.152 -0.2528  0.8324 -0.9225
  170SAPE   H7R19226   0.730   6.308   7.158 -1.0344 -2.5651 -1.2314
  170SAPE   H7S19227   0.892   6.368   7.207 -1.5004  0.1334  1.4610
  170SAPE   C2819228   0.849   6.158   7.225  0.0459 -0.0057  0.7976
  170SAPE   H8R19229   0.840   6.067   7.165 -1.7054 -0.1281  1.1856
  170SAPE   C2919230   0.840   6.148   7.356 -0.1731 -0.1499  0.3558
  170SAPE   H9R19231   0.845   6.046   7.396  0.1829 -0.6549 -0.9202
  170SAPE  C21019232   0.834   6.261   7.455 -0.7832 -0.2249 -0.0404
  170SAPE  H10R19233   0.735   6.258   7.506 -0.8732  1.0400 -0.1033
  170SAPE  H10S19234   0.831   6.360   7.404  2.6322  0.0592  0.0982
  170SAPE  C21119235   0.939   6.261   7.557  0.0857  0.1598  0.2275
  170SAPE  H11R19236   1.040   6.294   7.526  1.0330 -0.9921  1.9173
  170SAPE  C21219237   0.931   6.225   7.687  0.5851 -0.0490  0.0103
  170SAPE  H12R19238   1.024   6.240   7.744 -0.8275  0.2281  2.3764
  170SAPE  C21319239   0.795   6.201   7.756  0.2995 -0.6207  0.8010
  170SAPE  H13R19240   0.736   6.124   7.702 -1.4348  1.1631  0.0421
  170SAPE  H13S19241   0.730   6.291   7.757  0.8695 -0.1958  2.0594
  170SAPE  C21419242   0.804   6.144   7.899 -0.0341  0.2140  0.4624
  170SAPE  H14R19243   0.859   6.049   7.902 -2.9891 -1.6781 -0.1902
  170SAPE  C21519244   0.765   6.208   8.013 -0.4146  0.2182  0.5557
  170SAPE  H15R19245   0.787   6.161   8.110  0.2564 -3.8817 -1.3709
  170SAPE  C21619246   0.702   6.344   8.037  0.1525 -0.1252  0.0114
  170SAPE  H16R19247   0.609   6.341   8.097 -0.6888 -2.0507 -1.2696
  170SAPE  H16S19248   0.672   6.389   7.939 -1.6811 -0.7381  0.2600
  170SAPE  C21719249   0.793   6.444   8.106 -0.2496  0.3999  0.0721
  170SAPE  H17R19250   0.884   6.449   8.043 -0.8725 -1.8200 -1.0986
  170SAPE  H17S19251   0.832   6.406   8.203 -0.8956 -0.9195 -0.1619
  170SAPE  C21819252   0.720   6.576   8.128  0.5717  0.2511 -0.5039
  170SAPE  H18R19253   0.646   6.555   8.208  0.6579 -0.5020 -0.6137
  170SAPE  H18S19254   0.660   6.609   8.041 -0.0894 -0.1092 -0.1939
  170SAPE  C21919255   0.809   6.698   8.177 -0.1717 -0.3962  0.1354
  170SAPE  H19R19256   0.882   6.718   8.095  0.0673  2.6696  0.9674
  170SAPE  H19S19257   0.865   6.668   8.267 -1.6632  0.6904  1.4872
  170SAPE  C22019258   0.718   6.821   8.202 -0.2099  0.8836  0.3437
  170SAPE  H20R19259   0.777   6.905   8.246 -1.0537  1.2731  0.7617
  170SAPE  H20S19260   0.646   6.799   8.285  0.7799  0.2138  1.0411
  170SAPE  H20T19261   0.672   6.858   8.108  0.5699  2.5453  0.5745
  170SAPE   C3319262   0.572   5.366   7.045 -0.2038  0.0099 -0.1968
  170SAPE   H3X19263   0.494   5.289   7.025 -1.9206  1.8059 -0.6714
  170SAPE   H3Y19264   0.529   5.465   7.071  0.5967 -0.2004  2.2406
  170SAPE   C3419265   0.645   5.304   7.169 -0.8828  0.7529 -0.3166
  170SAPE   H4X19266   0.739   5.354   7.201 -1.5466  0.6321  1.9957
  170SAPE   H4Y19267   0.667   5.200   7.134 -2.2541  0.5969 -0.7594
  170SAPE   C3519268   0.551   5.297   7.290 -0.1245  0.6661  0.6001
  170SAPE   H5X19269   0.471   5.224   7.266 -0.5692  0.7134  1.8943
  170SAPE   H5Y19270   0.507   5.397   7.308 -2.2994  0.2154 -1.5984
  170SAPE   C3619271   0.624   5.253   7.416  0.0214  0.2242 -0.4400
  170SAPE   H6X19272   0.701   5.325   7.450  1.4565 -1.8862  0.9841
  170SAPE   H6Y19273   0.691   5.168   7.391  2.9741  2.8479 -2.0354
  170SAPE   C3719274   0.524   5.221   7.529  0.1613  0.2350 -0.0659
  170SAPE   H7X19275   0.501   5.112   7.519 -2.2413  0.7071 -0.3291
  170SAPE   H7Y19276   0.427   5.273   7.514 -0.0087 -0.4960 -1.6667
  170SAPE   C3819277   0.579   5.238   7.670 -0.5887  0.2288  0.4291
  170SAPE   H8X19278   0.613   5.343   7.683 -0.6037  0.0502  2.1235
  170SAPE   H8Y19279   0.666   5.172   7.692 -2.2419 -2.1317  0.2559
  170SAPE   C3919280   0.468   5.221   7.770  0.0844  0.7540  0.9596
  170SAPE   H9X19281   0.436   5.115   7.775  2.4044  0.0334  4.7248
  170SAPE   H9Y19282   0.391   5.290   7.729  0.3081  0.1926 -0.4595
  170SAPE  C31019283   0.489   5.278   7.909 -0.4358 -0.1320 -0.0505
  170SAPE  H10X19284   0.393   5.286   7.965 -1.9447  0.9855 -2.6299
  170SAPE  H10Y19285   0.514   5.385   7.892  1.5339 -0.3044  1.4471
  170SAPE  C31119286   0.597   5.201   7.989  0.0702 -1.3699  0.2938
  170SAPE  H11X19287   0.688   5.187   7.927 -1.0917 -0.8348 -1.5929
  170SAPE  H11Y19288   0.546   5.107   8.021 -2.6855  0.2299  0.9812
  170SAPE  C31219289   0.632   5.265   8.124 -0.4404  0.3735 -1.1174
  170SAPE  H12X19290   0.531   5.278   8.170 -0.0819 -1.1087  0.1589
  170SAPE  H12Y19291   0.688   5.359   8.107 -1.9359  1.5610  0.2504
  170SAPE  C31319292   0.720   5.165   8.203  0.3052  0.0285 -0.0605
  170SAPE  H13X19293   0.798   5.135   8.129  0.0536  0.9304 -0.7087
  170SAPE  H13Y19294   0.656   5.074   8.208  1.4409 -0.9269 -1.6346
  170SAPE  C31419295   0.766   5.204   8.341  0.2570 -0.7475 -0.0738
  170SAPE  H14X19296   0.680   5.245   8.398  0.5692 -1.2896  0.7986
  170SAPE  H14Y19297   0.831   5.293   8.333 -0.2357 -0.3956 -0.2417
  170SAPE  C31519298   0.823   5.084   8.420  0.1688 -0.1122 -0.1319
  170SAPE  H15X19299   0.893   5.026   8.357 -0.1575 -3.4468  2.2939
  170SAPE  H15Y19300   0.737   5.016   8.437  1.3471 -1.5728  0.2018
  170SAPE  C31619301   0.892   5.115   8.549  0.0603  0.3899  0.1519
  170SAPE  H16X19302   0.827   5.169   8.622 -0.8075 -1.2699  0.6471
  170SAPE  H16Y19303   0.983   5.178   8.534  0.2083  0.3390  0.7747
  170SAPE  C31719304   0.940   4.983   8.629 -0.3335  0.7545  0.5040
  170SAPE  H17X19305   0.992   5.014   8.723 -0.5220  1.2848  0.4365
  170SAPE  H17Y19306   1.018   4.924   8.576 -0.7318  0.9457 -0.3065
  170SAPE  C31819307   0.827   4.875   8.648  1.0536  0.0537 -0.0454
  170SAPE  H18X19308   0.728   4.909   8.687 -0.7482 -3.0170 -1.5190
  170SAPE  H18Y19309   0.862   4.797   8.719  0.8287  1.3177  1.5209
  170SAPE  H18Z19310   0.809   4.825   8.550 -1.1095  2.1437 -0.8210
  171SAPE     N19311   1.726   2.075   6.233  1.1003  1.0595 -0.1356
  171SAPE   HN119312   1.785   2.024   6.164 -1.2587 -0.6858 -0.9905
  171SAPE   HN219313   1.651   2.131   6.186  0.3691 -0.1199 -0.4017
  171SAPE   HN319314   1.778   2.146   6.289 -0.4411  3.8355 -1.9898
  171SAPE   C1219315   1.676   1.965   6.315 -0.1386 -0.5162 -0.1893
  171SAPE  H12A19316   1.599   1.912   6.255 -0.4886  0.4079 -0.5672
  171SAPE  H12B19317   1.646   2.001   6.416 -2.4672  0.7276 -1.2534
  171SAPE   C1119318   1.791   1.867   6.347 -0.5535 -0.0088 -0.2282
  171SAPE  H11A19319   1.825   1.822   6.251 -0.5734 -0.6747  0.0727
  171SAPE  H11B19320   1.755   1.782   6.408 -1.1155  0.2711 -0.1568
  171SAPE     P19321   2.049   1.879   6.409  0.1760 -0.4287  0.5362
  171SAPE   O1319322   2.048   1.778   6.308 -0.4333  0.3988  0.2338
  171SAPE   O1419323   2.150   1.994   6.396  0.3321  0.0128 -0.4099
  171SAPE   O1219324   1.896   1.937   6.423 -0.6710  0.4189 -0.7754
  171SAPE   O1119325   2.083   1.811   6.553  0.5716 -0.2103 -0.1054
  171SAPE    C119326   1.986   1.759   6.645 -0.3025 -0.0297  0.7746
  171SAPE    HA19327   1.928   1.843   6.689  1.3307  2.0406 -0.8176
  171SAPE    HB19328   1.917   1.691   6.591 -0.3440  2.0960 -2.0713
  171SAPE    C219329   2.047   1.680   6.763  0.4008 -0.1554  0.3742
  171SAPE    HS19330   1.966   1.628   6.819  1.8795 -0.8406  1.9553
  171SAPE   O2119331   2.113   1.784   6.843 -0.2614  0.3270 -0.5535
  171SAPE   C2119332   2.104   1.769   6.977  0.2749  0.1759 -0.5376
  171SAPE   O2219333   2.052   1.675   7.034 -0.4061 -0.5530  0.3655
  171SAPE   C2219334   2.134   1.905   7.034  0.4250 -0.1700  0.1160
  171SAPE   H2R19335   2.219   1.953   6.982  0.8684  0.8858  1.7448
  171SAPE   H2S19336   2.053   1.979   7.016  0.7922  0.1162 -0.3779
  171SAPE    C319337   2.147   1.573   6.713  0.0008 -0.3285 -0.1548
  171SAPE    HX19338   2.233   1.625   6.667  0.8596 -1.2261  0.4130
  171SAPE    HY19339   2.107   1.515   6.627 -1.1434 -1.0018  0.8053
  171SAPE   O3119340   2.196   1.484   6.818 -0.6077 -0.0221  0.0476
  171SAPE   C3119341   2.104   1.395   6.853  0.4202  0.1154 -0.0737
  171SAPE   O3219342   1.990   1.387   6.805 -0.2883  0.1326  0.5455
  171SAPE   C3219343   2.159   1.297   6.953 -0.3160  0.6216 -1.0315
  171SAPE   H2X19344   2.180   1.211   6.885  2.4100 -0.6801  1.2503
  171SAPE   H2Y19345   2.076   1.260   7.018  0.5120 -0.1263 -0.3755
  171SAPE   C2319346   2.185   1.899   7.182  0.5926  0.3698 -0.3892
  171SAPE   H3R19347   2.101   1.856   7.241 -0.0528 -0.9295 -2.1500
  171SAPE   H3S19348   2.201   2.006   7.207 -0.7318  0.9182 -1.6825
  171SAPE   C2419349   2.303   1.808   7.191 -0.3034  0.3681 -0.1739
  171SAPE   H4R19350   2.294   1.709   7.142 -0.5181  0.5085 -0.4193
  171SAPE   H4S19351   2.316   1.793   7.301  0.2386 -0.0609 -0.2922
  171SAPE   C2519352   2.420   1.891   7.140  0.4098  0.3729  0.2267
  171SAPE   H5R19353   2.434   1.882   7.031  1.6728 -3.1115  0.5550
  171SAPE   C2619354   2.520   1.945   7.216  0.2569  0.2484 -0.0285
  171SAPE   H6R19355   2.611   1.983   7.168 -1.1256  1.4589 -1.8508
  171SAPE   C2719356   2.531   1.945   7.366  0.0626 -0.0502 -0.0079
  171SAPE   H7R19357   2.633   1.972   7.400 -0.3123  1.3737  0.0791
  171SAPE   H7S19358   2.510   1.843   7.405  0.1964 -0.6576 -1.4766
  171SAPE   C2819359   2.438   2.046   7.412  0.2257 -0.0579  0.2086
  171SAPE   H8R19360   2.433   2.141   7.357  0.3589  0.2149  0.6608
  171SAPE   C2919361   2.351   2.021   7.509  0.1964 -0.8021 -0.1172
  171SAPE   H9R19362   2.290   2.107   7.540  1.0300 -0.2546  0.0397
  171SAPE  C21019363   2.323   1.888   7.581 -0.5938 -0.0924  0.6330
  171SAPE  H10R19364   2.422   1.839   7.592  0.7210  2.5381  1.3012
  171SAPE  H10S19365   2.259   1.824   7.516  0.3343  1.1260 -1.6166
  171SAPE  C21119366   2.261   1.892   7.711 -0.4485 -0.7386 -0.8712
  171SAPE  H11R19367   2.162   1.940   7.707 -0.3232 -0.4223 -0.2314
  171SAPE  C21219368   2.307   1.856   7.829  0.1049  1.0549 -0.2019
  171SAPE  H12R19369   2.252   1.889   7.919  0.5738 -0.9047  0.8694
  171SAPE  C21319370   2.444   1.797   7.863  0.4824  0.5268  0.0715
  171SAPE  H13R19371   2.512   1.815   7.777  0.6284  0.4756  0.1764
  171SAPE  H13S19372   2.422   1.688   7.863  0.2890  0.5431 -1.5940
  171SAPE  C21419373   2.509   1.835   7.996 -0.2020  0.1741  0.4128
  171SAPE  H14R19374   2.496   1.753   8.068 -3.4190 -1.2584 -1.5868
  171SAPE  C21519375   2.579   1.947   8.020  0.9481 -0.1824  0.6624
  171SAPE  H15R19376   2.624   1.962   8.120  1.8156 -1.5716  0.5155
  171SAPE  C21619377   2.604   2.056   7.919 -0.5676 -0.0274  0.3184
  171SAPE  H16R19378   2.540   2.045   7.829  1.0466  2.9493 -1.3346
  171SAPE  H16S19379   2.708   2.049   7.880 -0.0766  1.0751  1.3856
  171SAPE  C21719380   2.580   2.196   7.976 -0.3998  0.0446 -0.1953
  171SAPE  H17R19381   2.599   2.266   7.892  4.5135 -0.7639 -0.0309
  171SAPE  H17S19382   2.660   2.220   8.049 -0.5989 -2.5166  0.9452
  171SAPE  C21819383   2.442   2.218   8.044 -0.2757 -0.3420  0.5043
  171SAPE  H18R19384   2.416   2.154   8.131 -1.9935  0.1880  0.4201
  171SAPE  H18S19385   2.373   2.196   7.960  0.2356 -0.9368  0.2269
  171SAPE  C21919386   2.420   2.369   8.071 -0.3541 -0.2607 -0.0522
  171SAPE  H19R19387   2.315   2.393   8.101  0.0641  0.8947  0.5502
  171SAPE  H19S19388   2.444   2.423   7.977  1.2138  0.4044  0.7024
  171SAPE  C22019389   2.502   2.425   8.188  0.5335  0.0655  0.6053
  171SAPE  H20R19390   2.488   2.357   8.275  3.0704 -1.9571 -0.4512
  171SAPE  H20S19391   2.466   2.527   8.215 -0.2874  0.0147 -0.2532
  171SAPE  H20T19392   2.610   2.427   8.163  0.2707 -1.9732 -0.9208
  171SAPE   C3319393   2.276   1.342   7.038 -0.1990  0.4975  0.0546
  171SAPE   H3X19394   2.253   1.447   7.069  3.0383  0.5101  2.9958
  171SAPE   H3Y19395   2.373   1.340   6.983 -0.1414 -3.5350  0.0226
  171SAPE   C3419396   2.280   1.270   7.170 -0.0667 -0.1187 -0.0584
  171SAPE   H4X19397   2.294   1.161   7.150  2.0748 -0.0454  0.7546
  171SAPE   H4Y19398   2.189   1.282   7.232  0.6819  1.6974  0.7548
  171SAPE   C3519399   2.370   1.339   7.270  0.1608  0.1028  0.2220
  171SAPE   H5X19400   2.341   1.446   7.279 -1.1790 -0.1538 -0.6970
  171SAPE   H5Y19401   2.477   1.337   7.241 -0.2996 -1.0036 -1.5868
  171SAPE   C3619402   2.366   1.265   7.404 -0.4524 -0.0172  0.1908
  171SAPE   H6X19403   2.383   1.157   7.383  1.6403  0.5380 -1.1924
  171SAPE   H6Y19404   2.270   1.288   7.455  0.0178  0.5491  0.8238
  171SAPE   C3719405   2.475   1.313   7.502  0.2762 -0.4056 -0.1876
  171SAPE   H7X19406   2.466   1.423   7.509  1.0664 -0.3278 -0.2975
  171SAPE   H7Y19407   2.568   1.285   7.446 -0.2940  1.9020 -2.4822
  171SAPE   C3819408   2.451   1.238   7.630  0.5579  0.0700  0.2133
  171SAPE   H8X19409   2.474   1.130   7.623 -0.0042 -0.0333 -0.0496
  171SAPE   H8Y19410   2.345   1.245   7.662 -0.1592 -1.3891 -1.6592
  171SAPE   C3919411   2.524   1.320   7.741  0.5983 -0.1856 -0.2791
  171SAPE   H9X19412   2.489   1.425   7.750 -0.9535 -0.6228 -0.8339
  171SAPE   H9Y19413   2.630   1.323   7.709  1.2411 -0.0913  1.7838
  171SAPE  C31019414   2.509   1.242   7.873  0.3603  0.1206 -0.5826
  171SAPE  H10X19415   2.569   1.148   7.868 -1.4295 -1.2803  1.9292
  171SAPE  H10Y19416   2.403   1.215   7.892  0.7001 -0.1776  1.0225
  171SAPE  C31119417   2.559   1.341   7.976  0.0468  0.5255  0.2138
  171SAPE  H11X19418   2.494   1.431   7.979 -0.6181  0.2935 -3.0651
  171SAPE  H11Y19419   2.658   1.386   7.958  0.8598 -0.8310  1.1121
  171SAPE  C31219420   2.558   1.274   8.121 -0.7665 -0.9330  0.1422
  171SAPE  H12X19421   2.583   1.167   8.129 -1.4056 -0.9847  1.8734
  171SAPE  H12Y19422   2.459   1.285   8.168 -0.6071  0.8584  0.1616
  171SAPE  C31319423   2.652   1.353   8.210  0.0465 -0.1095  0.2941
  171SAPE  H13X19424   2.650   1.458   8.174 -1.6325 -0.1330  0.2566
  171SAPE  H13Y19425   2.755   1.319   8.185 -0.1666  0.5417 -1.6300
  171SAPE  C31419426   2.604   1.343   8.352  0.4507  0.8416  0.0541
  171SAPE  H14X19427   2.494   1.359   8.356 -0.0392 -1.2148 -2.4064
  171SAPE  H14Y19428   2.652   1.413   8.423  1.9174  0.1007 -0.1797
  171SAPE  C31519429   2.639   1.208   8.413  0.5135 -0.3483  0.0715
  171SAPE  H15X19430   2.749   1.195   8.402  0.7899  1.9812 -0.3899
  171SAPE  H15Y19431   2.598   1.124   8.353 -1.2564  0.1559  0.5213
  171SAPE  C31619432   2.591   1.193   8.558  0.9128 -0.1586 -0.1320
  171SAPE  H16X19433   2.481   1.174   8.554  1.0935 -1.5002  0.7173
  171SAPE  H16Y19434   2.603   1.291   8.609 -1.1723  0.5604 -0.8958
  171SAPE  C31719435   2.658   1.102   8.659  0.0675 -0.2323 -0.3067
  171SAPE  H17X19436   2.765   1.129   8.674 -0.1774  1.4867 -1.4667
  171SAPE  H17Y19437   2.668   0.995   8.628  0.1764 -0.5110  0.6441
  171SAPE  C31819438   2.598   1.129   8.801 -0.0530 -0.1831  0.4997
  171SAPE  H18X19439   2.589   1.239   8.814  2.1041  0.3128 -1.4412
  171SAPE  H18Y19440   2.660   1.095   8.886  0.5701  0.1231  0.1763
  171SAPE  H18Z19441   2.498   1.080   8.805  0.1802 -0.5896  2.3999
  172SAPE     N19442   4.482   6.364   6.316  0.4943  0.1998 -0.0038
  172SAPE   HN119443   4.463   6.383   6.216 -1.0037 -0.9981  0.0194
  172SAPE   HN219444   4.564   6.300   6.321  0.3832 -0.1061 -1.6965
  172SAPE   HN319445   4.398   6.311   6.346 -0.8466  1.8961 -0.6059
  172SAPE   C1219446   4.522   6.481   6.396 -0.5189 -0.0261  0.5531
  172SAPE  H12A19447   4.573   6.451   6.490  0.7838 -1.2568 -0.4960
  172SAPE  H12B19448   4.429   6.540   6.401 -1.0180 -0.5852 -1.3438
  172SAPE   C1119449   4.625   6.559   6.306 -0.1384 -1.0769  0.0033
  172SAPE  H11A19450   4.702   6.492   6.262  0.5757  0.2589 -0.8538
  172SAPE  H11B19451   4.668   6.639   6.371 -0.7200  0.6234 -1.6007
  172SAPE     P19452   4.612   6.745   6.126 -0.0539  0.5653  0.1599
  172SAPE   O1319453   4.756   6.738   6.107  0.2308 -0.0719  0.4925
  172SAPE   O1419454   4.535   6.760   6.000  0.3781 -0.1363 -0.3330
  172SAPE   O1219455   4.562   6.617   6.200  0.1796 -0.2552 -0.7503
  172SAPE   O1119456   4.578   6.863   6.224  0.1271 -0.2402  0.4389
  172SAPE    C119457   4.448   6.881   6.283  0.0194  0.7445 -0.1192
  172SAPE    HA19458   4.402   6.968   6.233 -0.1389  1.0123  0.4815
  172SAPE    HB19459   4.375   6.800   6.263 -1.3791  1.7847  0.5801
  172SAPE    C219460   4.462   6.893   6.439  0.3784 -0.2906  0.2644
  172SAPE    HS19461   4.540   6.971   6.452  0.0255 -0.1781  1.9496
  172SAPE   O2119462   4.503   6.769   6.503 -0.0972 -0.6721 -0.1143
  172SAPE   C2119463   4.587   6.779   6.612  0.1821  0.2484  0.1115
  172SAPE   O2219464   4.632   6.884   6.656  0.1295 -0.4003 -0.2736
  172SAPE   C2219465   4.607   6.636   6.681 -0.5087 -0.4793 -0.7051
  172SAPE   H2R19466   4.521   6.571   6.654 -0.8910 -0.3919  0.2584
  172SAPE   H2S19467   4.698   6.594   6.633  0.8060 -0.3115  1.4634
  172SAPE    C319468   4.327   6.945   6.502  0.4174 -0.5807  0.0145
  172SAPE    HX19469   4.244   6.872   6.489  0.2893 -0.8239  1.9045
  172SAPE    HY19470   4.302   7.035   6.442 -0.3197 -2.1229 -2.1039
  172SAPE   O3119471   4.344   6.988   6.634 -0.3463 -0.8126 -0.6254
  172SAPE   C3119472   4.287   6.923   6.733  0.3093  0.2172  0.3589
  172SAPE   O3219473   4.253   6.808   6.728 -0.1861 -0.0171  0.1081
  172SAPE   C3219474   4.287   7.014   6.858  0.2433  0.6464 -0.0894
  172SAPE   H2X19475   4.217   7.099   6.842 -0.3321  0.0924 -0.5830
  172SAPE   H2Y19476   4.386   7.063   6.869  0.3026  0.0817  2.4062
  172SAPE   C2319477   4.645   6.656   6.839  0.2201 -0.3203  0.5789
  172SAPE   H3R19478   4.572   6.692   6.914 -0.1352 -3.5749  1.9483
  172SAPE   H3S19479   4.719   6.738   6.825 -1.5640  0.8994 -2.8327
  172SAPE   C2419480   4.713   6.537   6.909  0.1918 -0.6507 -0.3316
  172SAPE   H4R19481   4.757   6.585   7.000  0.1277  0.4243 -0.8493
  172SAPE   H4S19482   4.794   6.494   6.846  2.1409 -1.3720  2.4619
  172SAPE   C2519483   4.608   6.435   6.941 -0.3337  0.1133 -0.4548
  172SAPE   H5R19484   4.549   6.405   6.854  1.1134  1.6516 -2.0622
  172SAPE   C2619485   4.561   6.386   7.055 -0.5340 -0.9953 -0.0487
  172SAPE   H6R19486   4.470   6.323   7.056 -1.9623  0.9718  1.5639
  172SAPE   C2719487   4.614   6.426   7.191 -0.3165 -0.2007  0.7772
  172SAPE   H7R19488   4.664   6.524   7.183  1.4787 -0.9787  1.7537
  172SAPE   H7S19489   4.691   6.355   7.230  0.7560  0.4761 -0.0786
  172SAPE   C2819490   4.500   6.442   7.288 -0.2834  0.2297 -0.6627
  172SAPE   H8R19491   4.405   6.479   7.245  0.1488  0.6327 -1.2931
  172SAPE   C2919492   4.505   6.434   7.424  0.1138 -0.5486  0.0990
  172SAPE   H9R19493   4.415   6.467   7.479  0.0427 -0.4960 -0.0487
  172SAPE  C21019494   4.625   6.398   7.507  0.4443  0.0558  0.1236
  172SAPE  H10R19495   4.659   6.296   7.476 -0.7487  0.2867 -2.2366
  172SAPE  H10S19496   4.585   6.387   7.610  0.3415  2.7217  0.4404
  172SAPE  C21119497   4.740   6.490   7.508  0.1730  0.4467  0.9247
  172SAPE  H11R19498   4.738   6.557   7.420 -0.0380 -1.2735 -0.4306
  172SAPE  C21219499   4.836   6.501   7.600 -0.4630  0.5482 -0.6008
  172SAPE  H12R19500   4.925   6.561   7.577 -1.1366  1.1372 -1.7753
  172SAPE  C21319501   4.841   6.413   7.723  0.0066 -0.0563 -0.0763
  172SAPE  H13R19502   4.746   6.432   7.777  1.1676  1.2317  1.6250
  172SAPE  H13S19503   4.910   6.465   7.793 -1.9642  1.4860  0.8150
  172SAPE  C21419504   4.863   6.260   7.716 -0.3541  0.4453  0.1479
  172SAPE  H14R19505   4.775   6.220   7.663  0.0921  1.3459 -1.3514
  172SAPE  C21519506   4.963   6.187   7.764  0.5402 -0.4476  0.5469
  172SAPE  H15R19507   4.969   6.079   7.742 -0.0130 -0.4954  0.6207
  172SAPE  C21619508   5.067   6.249   7.845 -0.1109 -0.2987 -0.3511
  172SAPE  H16R19509   5.043   6.329   7.919 -1.5439 -1.0297  0.0077
  172SAPE  H16S19510   5.139   6.294   7.774 -0.4185 -0.7602 -0.9553
  172SAPE  C21719511   5.149   6.159   7.943 -0.4260  0.0695 -0.0829
  172SAPE  H17R19512   5.238   6.216   7.977 -1.2179 -0.6127  3.5750
  172SAPE  H17S19513   5.194   6.076   7.886 -0.9469 -0.4890  0.3075
  172SAPE  C21819514   5.067   6.122   8.063 -0.1687  0.0853 -0.4149
  172SAPE  H18R19515   4.985   6.053   8.034 -0.4645  0.1523  0.2513
  172SAPE  H18S19516   5.021   6.210   8.113 -0.3466  0.0167 -0.4601
  172SAPE  C21919517   5.151   6.044   8.170 -0.1938 -0.0670 -0.2766
  172SAPE  H19R19518   5.235   6.107   8.205  0.0771  0.0770 -1.1530
  172SAPE  H19S19519   5.190   5.955   8.115  0.3705  0.5591 -0.9004
  172SAPE  C22019520   5.073   5.993   8.292  0.2686 -0.8412  0.6642
  172SAPE  H20R19521   4.987   5.933   8.255  0.0018 -0.3508  0.4778
  172SAPE  H20S19522   5.051   6.079   8.359  2.3630  0.3993 -0.1386
  172SAPE  H20T19523   5.136   5.920   8.347  0.4848 -0.4510  0.9460
  172SAPE   C3319524   4.249   6.944   6.995  0.3219  0.3604 -0.4057
  172SAPE   H3X19525   4.193   6.854   6.963 -2.3389  1.2943  1.3212
  172SAPE   H3Y19526   4.176   7.004   7.054  0.6749  0.1814  0.2237
  172SAPE   C3419527   4.378   6.916   7.073 -0.4446 -0.6624 -0.3072
  172SAPE   H4X19528   4.434   7.002   7.116 -0.6568 -0.7740  0.1998
  172SAPE   H4Y19529   4.449   6.873   6.998 -0.2148  0.1724 -0.5803
  172SAPE   C3519530   4.364   6.815   7.194 -0.3853 -0.2829 -0.1042
  172SAPE   H5X19531   4.456   6.755   7.205  1.7923  2.0016 -3.7013
  172SAPE   H5Y19532   4.276   6.755   7.165 -0.4463 -0.3165  0.1470
  172SAPE   C3619533   4.331   6.878   7.330 -0.3167  1.0999  0.3268
  172SAPE   H6X19534   4.232   6.928   7.333 -1.2560 -0.6802  0.0185
  172SAPE   H6Y19535   4.397   6.962   7.361 -0.9992  0.9168  2.3742
  172SAPE   C3719536   4.328   6.769   7.441 -0.4505 -0.1139  0.8520
  172SAPE   H7X19537   4.409   6.699   7.409 -0.7886  1.0628 -3.0521
  172SAPE   H7Y19538   4.236   6.708   7.449 -0.8018  0.1451 -0.8008
  172SAPE   C3819539   4.355   6.842   7.578  1.0590 -0.2925 -0.2802
  172SAPE   H8X19540   4.448   6.902   7.568  0.7802  0.4803  1.4638
  172SAPE   H8Y19541   4.367   6.760   7.652  2.6199 -1.8379 -2.1056
  172SAPE   C3919542   4.241   6.936   7.635 -0.3084  0.2839 -0.2368
  172SAPE   H9X19543   4.146   6.880   7.649 -0.1428 -0.1890 -0.9501
  172SAPE   H9Y19544   4.219   7.028   7.576 -1.1547  3.0134  3.9003
  172SAPE  C31019545   4.288   6.984   7.776  0.0629  1.1766  0.7648
  172SAPE  H10X19546   4.374   7.051   7.754 -1.5023  2.3952 -2.0731
  172SAPE  H10Y19547   4.322   6.902   7.843 -0.6545 -1.4097 -1.8330
  172SAPE  C31119548   4.181   7.065   7.848  0.2663 -0.7579 -0.5161
  172SAPE  H11X19549   4.099   6.996   7.877  1.6793 -1.8162  1.1593
  172SAPE  H11Y19550   4.141   7.145   7.783 -0.0745 -0.3192  0.2185
  172SAPE  C31219551   4.229   7.128   7.976  0.3004  0.2746 -0.0711
  172SAPE  H12X19552   4.141   7.188   8.006  0.2684  1.8629 -3.0448
  172SAPE  H12Y19553   4.315   7.197   7.969  1.0159 -0.5438  0.3676
  172SAPE  C31319554   4.245   7.032   8.095 -0.2518  0.0030 -0.3787
  172SAPE  H13X19555   4.338   6.973   8.081  0.2172  0.8158 -0.7659
  172SAPE  H13Y19556   4.165   6.955   8.093  0.8379 -1.2002  0.6683
  172SAPE  C31419557   4.240   7.109   8.229  0.3550  0.1201 -0.8152
  172SAPE  H14X19558   4.143   7.162   8.241 -0.5193 -1.9194  2.0366
  172SAPE  H14Y19559   4.332   7.171   8.232  2.0347 -2.2288 -1.4735
  172SAPE  C31519560   4.242   7.015   8.347  0.2262 -0.2090  0.1704
  172SAPE  H15X19561   4.340   6.965   8.358 -1.4320 -3.8030  0.0776
  172SAPE  H15Y19562   4.158   6.945   8.326  1.7040 -1.4945 -1.8072
  172SAPE  C31619563   4.209   7.089   8.481 -0.6698 -0.0832 -0.4429
  172SAPE  H16X19564   4.100   7.112   8.478 -0.3733  1.3053 -2.1443
  172SAPE  H16Y19565   4.270   7.181   8.498  1.3300 -1.6277  1.1777
  172SAPE  C31719566   4.246   6.996   8.598 -0.2116  0.2479  0.0331
  172SAPE  H17X19567   4.352   6.966   8.585 -0.6133 -0.8120 -0.9260
  172SAPE  H17Y19568   4.186   6.902   8.602  0.9875 -0.5721 -0.6203
  172SAPE  C31819569   4.247   7.071   8.730 -0.4199  0.0968 -0.7889
  172SAPE  H18X19570   4.305   7.018   8.810  1.0936 -2.4866 -3.3944
  172SAPE  H18Y19571   4.145   7.102   8.762 -0.5656 -0.7374 -0.3964
  172SAPE  H18Z19572   4.310   7.161   8.715  0.3059 -0.3744 -0.6470
  173SOPE     N19573   1.887   3.006  11.086  0.1366 -0.0795  0.2621
  173SOPE   HN119574   1.950   2.924  11.076  0.8429  0.0877  2.6721
  173SOPE   HN219575   1.937   3.093  11.114  0.4940 -0.1460 -0.1694
  173SOPE   HN319576   1.823   2.997  11.168 -1.2520  2.2498 -0.4822
  173SOPE   C1219577   1.824   3.016  10.957 -0.7627 -0.1106  0.9124
  173SOPE  H12A19578   1.773   3.114  10.948  0.2787  0.2313 -3.4608
  173SOPE  H12B19579   1.748   2.935  10.953 -0.5220 -0.3639  1.3891
  173SOPE   C1119580   1.927   2.999  10.841  0.1521  0.8622  0.1980
  173SOPE  H11A19581   2.011   3.071  10.849  0.5405  0.4113  0.2637
  173SOPE  H11B19582   1.874   3.002  10.744 -0.1687  0.1970  0.3430
  173SOPE     P19583   1.935   2.732  10.793  0.3439  0.3077 -0.0319
  173SOPE   O1319584   1.816   2.678  10.858  0.2480  0.1250 -0.1731
  173SOPE   O1419585   2.053   2.644  10.792 -0.2634 -0.4640 -0.8214
  173SOPE   O1219586   1.978   2.867  10.866  0.3593 -0.3522  0.0322
  173SOPE   O1119587   1.908   2.775  10.650  0.0087 -0.1713  0.0032
  173SOPE    C119588   2.003   2.827  10.557  0.4548  0.3047 -0.7099
  173SOPE    HA19589   2.100   2.772  10.565 -0.4572 -1.0977  3.7694
  173SOPE    HB19590   2.030   2.929  10.592  0.9415 -0.5933  1.7053
  173SOPE    C219591   1.937   2.839  10.413 -0.4881  0.5253 -0.1209
  173SOPE    HS19592   1.873   2.930  10.412  0.3163  1.1172  0.3393
  173SOPE   O2119593   1.867   2.720  10.382  0.1623 -0.6011 -0.0379
  173SOPE   C2119594   1.759   2.732  10.311  0.5509 -0.2207 -0.2314
  173SOPE   O2219595   1.710   2.836  10.272 -0.0854 -0.2639 -0.1829
  173SOPE   C2219596   1.691   2.604  10.288  0.2162 -0.6513 -0.2573
  173SOPE   H2R19597   1.593   2.609  10.339  1.0468  1.0787  1.3192
  173SOPE   H2S19598   1.752   2.518  10.322 -0.9029 -1.8607 -1.2402
  173SOPE    C319599   2.051   2.853  10.309  0.4281  0.1178 -0.2043
  173SOPE    HX19600   2.127   2.774  10.327  3.0666  2.2047 -1.4173
  173SOPE    HY19601   2.114   2.943  10.327  0.1475 -0.1191  2.2234
  173SOPE   O3119602   2.005   2.839  10.173 -0.2950 -0.9058 -0.4980
  173SOPE   C3119603   1.961   2.958  10.136 -0.0901  0.2259  0.3719
  173SOPE   O3219604   1.955   3.058  10.206  0.3321 -0.1950  0.2055
  173SOPE   C3219605   1.907   2.947   9.994  0.6317  0.1173 -0.7728
  173SOPE   H2X19606   1.881   2.841   9.973  0.0494  0.3357 -1.1631
  173SOPE   H2Y19607   1.984   2.977   9.920  0.9744  1.0539 -0.0489
  173SOPE   C2319608   1.682   2.579  10.134 -0.6950 -0.3353 -0.1237
  173SOPE   H3R19609   1.630   2.665  10.088 -1.5801 -0.4040  0.6947
  173SOPE   H3S19610   1.618   2.488  10.127 -0.7739 -0.1700 -2.1692
  173SOPE   C2419611   1.818   2.551  10.072  0.6711  0.2696 -0.0170
  173SOPE   H4R19612   1.888   2.636  10.085  0.0619  1.1660 -2.1956
  173SOPE   H4S19613   1.866   2.461  10.114  1.3473 -0.0446 -1.4140
  173SOPE   C2519614   1.799   2.507   9.919 -0.1262 -0.4187 -0.0960
  173SOPE   H5R19615   1.748   2.409   9.903 -0.5322 -0.0028 -1.5744
  173SOPE   H5S19616   1.722   2.573   9.873  0.7063 -0.4931 -1.6621
  173SOPE   C2619617   1.925   2.500   9.832 -0.1755  0.1848 -0.2317
  173SOPE   H6R19618   1.972   2.599   9.848  0.8697 -0.6729  2.7495
  173SOPE   H6S19619   2.002   2.431   9.873 -0.8155 -0.2089  0.3420
  173SOPE   C2719620   1.906   2.475   9.681  0.4173 -0.1879  0.4256
  173SOPE   H7R19621   1.888   2.366   9.675 -0.0393 -0.1176  0.4925
  173SOPE   H7S19622   1.826   2.539   9.639  2.1104 -0.8195 -4.4571
  173SOPE   C2819623   2.025   2.520   9.593  0.7256 -0.1425 -0.3083
  173SOPE   H8R19624   2.115   2.462   9.623 -0.5648 -1.9933  0.1469
  173SOPE   H8S19625   1.997   2.485   9.492  3.2431 -0.6353 -0.9198
  173SOPE   C2919626   2.060   2.665   9.599  0.6576 -0.5687 -0.8246
  173SOPE   H9119627   2.107   2.696   9.694  1.2561 -0.9272 -1.0017
  173SOPE  C21019628   2.037   2.760   9.514  0.0658  0.1261 -0.1923
  173SOPE  H10119629   2.086   2.856   9.533 -1.1100  0.6238  0.4174
  173SOPE  C21119630   1.963   2.743   9.384 -0.2347 -0.2744 -0.5159
  173SOPE  H11R19631   1.912   2.648   9.358 -0.9421  0.3386 -1.4376
  173SOPE  H11S19632   2.028   2.765   9.296 -1.2134  1.9220 -0.7592
  173SOPE  C21219633   1.866   2.861   9.403  0.9128  0.2136 -0.3302
  173SOPE  H12R19634   1.917   2.958   9.420 -0.4155  0.9197 -0.2683
  173SOPE  H12S19635   1.801   2.844   9.492  1.4486 -1.3634 -0.2098
  173SOPE  C21319636   1.767   2.877   9.281 -0.1353 -0.3593 -0.1073
  173SOPE  H13R19637   1.687   2.940   9.326  1.8707 -0.0595  3.4615
  173SOPE  H13S19638   1.732   2.777   9.249  1.5177 -0.9459 -0.1936
  173SOPE  C21419639   1.820   2.965   9.165  0.2064 -0.4007  0.2364
  173SOPE  H14R19640   1.906   2.909   9.123 -0.0518 -0.1260 -0.6681
  173SOPE  H14S19641   1.862   3.063   9.199 -3.1236  1.6469 -1.0293
  173SOPE  C21519642   1.720   2.997   9.051  0.3189  0.3415 -1.1284
  173SOPE  H15R19643   1.643   3.063   9.096  1.2617  1.6536 -1.3768
  173SOPE  H15S19644   1.683   2.902   9.008  2.4556 -0.2305 -1.8336
  173SOPE  C21619645   1.781   3.069   8.936  0.1286 -0.2344  0.1835
  173SOPE  H16R19646   1.861   2.998   8.906 -0.5524 -2.2143  2.7438
  173SOPE  H16S19647   1.841   3.158   8.965  0.9549 -0.0300 -1.9078
  173SOPE  C21719648   1.684   3.100   8.825  0.1500  0.6601  0.2376
  173SOPE  H17R19649   1.603   3.164   8.866 -0.1468  0.8130 -0.5603
  173SOPE  H17S19650   1.631   3.007   8.794 -0.5147 -0.5642  4.3991
  173SOPE  C21819651   1.757   3.173   8.719  0.3946  0.3923 -0.5512
  173SOPE  H18R19652   1.820   3.253   8.763 -0.5040  0.3275  0.9111
  173SOPE  H18S19653   1.688   3.218   8.644  1.4671  1.2871 -1.0206
  173SOPE  H18T19654   1.830   3.109   8.664 -0.1477 -1.3735  0.6845
  173SOPE   C3319655   1.775   3.028   9.968 -0.3463 -0.6511 -0.5310
  173SOPE   H3X19656   1.792   3.138   9.975 -1.3875 -0.5009 -0.1971
  173SOPE   H3Y19657   1.714   2.996  10.055  1.4241 -0.3214  0.8989
  173SOPE   C3419658   1.706   2.993   9.839  0.6990  0.0775  0.4874
  173SOPE   H4X19659   1.771   3.023   9.754  0.2883 -0.5473 -0.0498
  173SOPE   H4Y19660   1.620   3.064   9.839  1.0563  0.5186  0.1071
  173SOPE   C3519661   1.656   2.849   9.827 -0.3616  0.4877  0.0534
  173SOPE   H5X19662   1.598   2.818   9.917  0.5805 -2.0880 -0.1370
  173SOPE   H5Y19663   1.739   2.775   9.831 -0.6861  0.1644  2.7051
  173SOPE   C3619664   1.563   2.818   9.710  0.3498 -0.3832  0.3174
  173SOPE   H6X19665   1.538   2.710   9.714  3.3998 -1.1654  0.9034
  173SOPE   H6Y19666   1.619   2.830   9.615  0.6867 -2.1363  0.2583
  173SOPE   C3719667   1.441   2.910   9.681  0.8557  0.2829  0.1225
  173SOPE   H7X19668   1.476   3.015   9.677 -1.0294  1.0186  1.3590
  173SOPE   H7Y19669   1.375   2.895   9.770 -2.6509  1.0453 -2.1438
  173SOPE   C3819670   1.359   2.864   9.557  0.2832 -0.3813  0.0545
  173SOPE   H8X19671   1.273   2.926   9.526  0.8190  1.2277  1.6118
  173SOPE   H8Y19672   1.311   2.767   9.579 -2.1467  0.2194 -2.1111
  173SOPE   C3919673   1.432   2.854   9.428 -0.0019  1.0517  1.2345
  173SOPE   H9X19674   1.508   2.774   9.433 -1.6067 -0.7035 -0.7882
  173SOPE   H9Y19675   1.481   2.951   9.405 -0.9587  1.0934 -0.8763
  173SOPE  C31019676   1.337   2.836   9.306 -0.4317 -1.0535 -0.0072
  173SOPE  H10X19677   1.267   2.921   9.318  0.3329 -0.2709 -0.8570
  173SOPE  H10Y19678   1.275   2.744   9.305 -0.4926 -1.0333 -2.0881
  173SOPE  C31119679   1.409   2.837   9.170 -0.4548 -0.5774 -0.6501
  173SOPE  H11X19680   1.492   2.764   9.178 -0.8261 -0.9007  0.5338
  173SOPE  H11Y19681   1.460   2.936   9.170  3.0316 -2.2272 -0.1586
  173SOPE  C31219682   1.313   2.810   9.055 -0.1301  0.1341 -0.0008
  173SOPE  H12X19683   1.220   2.870   9.065  0.6752  1.2801  0.8867
  173SOPE  H12Y19684   1.280   2.705   9.073 -1.8805  0.7921  0.7929
  173SOPE  C31319685   1.367   2.835   8.911 -0.6758  0.2163 -0.2920
  173SOPE  H13X19686   1.467   2.787   8.906 -1.4130 -1.3220 -0.8508
  173SOPE  H13Y19687   1.376   2.943   8.886  1.7181 -0.1905 -1.4817
  173SOPE  C31419688   1.276   2.782   8.799  0.3822  1.0095 -0.4088
  173SOPE  H14X19689   1.285   2.673   8.777 -2.0027  0.4568  1.0772
  173SOPE  H14Y19690   1.318   2.836   8.711  1.9662  0.2149 -0.1723
  173SOPE  C31519691   1.137   2.846   8.802 -0.3361  0.4506 -0.2912
  173SOPE  H15X19692   1.138   2.957   8.790 -1.6998  0.5415  0.1663
  173SOPE  H15Y19693   1.101   2.833   8.907 -1.2744  0.3220 -0.6227
  173SOPE  C31619694   1.043   2.786   8.696  0.6232 -0.5353  0.4030
  173SOPE  H16X19695   1.025   2.679   8.719 -0.4445 -0.3297  0.5422
  173SOPE  H16Y19696   1.087   2.785   8.593 -0.1077  2.7082 -0.0418
  173SOPE  C31719697   0.905   2.851   8.696 -0.4214 -0.0173  0.2954
  173SOPE  H17X19698   0.835   2.784   8.641  2.0534 -2.0531 -0.5489
  173SOPE  H17Y19699   0.927   2.949   8.649  0.4752  0.0030  0.7397
  173SOPE  C31819700   0.837   2.872   8.832 -0.3974  0.0781  0.2764
  173SOPE  H18X19701   0.839   2.774   8.884  0.3955 -0.4181 -0.6549
  173SOPE  H18Y19702   0.733   2.907   8.814 -1.0211 -1.9134 -0.2072
  173SOPE  H18Z19703   0.904   2.938   8.891  0.2553 -1.9608  1.9453
  174SOPE     N19704   0.465   2.316  11.096 -0.0454  0.1769 -0.6072
  174SOPE   HN119705   0.382   2.287  11.040 -1.6297 -1.9646  2.5249
  174SOPE   HN219706   0.431   2.365  11.181 -0.9718 -1.0819 -0.2242
  174SOPE   HN319707   0.523   2.376  11.034  1.9974 -0.0582  0.9698
  174SOPE   C1219708   0.551   2.199  11.141 -0.3760 -0.3242  0.3604
  174SOPE  H12A19709   0.475   2.123  11.172 -1.8749  0.7985 -0.4741
  174SOPE  H12B19710   0.601   2.239  11.232  0.1908  0.5632 -0.3312
  174SOPE   C1119711   0.661   2.166  11.044  0.2744  0.3086 -0.7253
  174SOPE  H11A19712   0.613   2.091  10.977  2.7041 -0.4066 -1.7958
  174SOPE  H11B19713   0.742   2.110  11.096  0.1532  2.3074  1.8111
  174SOPE     P19714   0.802   2.253  10.844 -0.3675 -0.1922 -0.1244
  174SOPE   O1319715   0.943   2.226  10.899  0.6479  0.1413 -0.1268
  174SOPE   O1419716   0.806   2.359  10.741 -0.1487  0.4007  0.4398
  174SOPE   O1219717   0.706   2.285  10.971 -0.4101  0.8308  0.2071
  174SOPE   O1119718   0.741   2.122  10.773 -0.6934 -0.3608  0.1227
  174SOPE    C119719   0.810   2.064  10.658  0.5478 -0.0694  0.1943
  174SOPE    HA19720   0.775   1.958  10.665 -1.9720  0.6739 -0.1214
  174SOPE    HB19721   0.919   2.075  10.675  0.5888 -1.1563  0.7650
  174SOPE    C219722   0.788   2.123  10.516  0.1032  0.6357  0.3549
  174SOPE    HS19723   0.835   2.224  10.516  1.9742 -0.1903 -0.3292
  174SOPE   O2119724   0.647   2.122  10.492  0.2464 -0.5853 -0.3723
  174SOPE   C2119725   0.604   2.225  10.428  0.9498 -0.6003 -0.4142
  174SOPE   O2219726   0.676   2.318  10.392 -0.2434  0.2771  0.1433
  174SOPE   C2219727   0.452   2.220  10.409  0.8275  0.2601  0.3241
  174SOPE   H2R19728   0.426   2.264  10.508  0.9417  0.4782  0.2570
  174SOPE   H2S19729   0.407   2.119  10.397  0.6752  0.4257 -0.5163
  174SOPE    C319730   0.856   2.041  10.405 -0.6683 -0.3079  0.2903
  174SOPE    HX19731   0.869   1.936  10.438  0.9169 -0.5765 -1.0767
  174SOPE    HY19732   0.963   2.070  10.407 -0.3071 -1.6303  1.6199
  174SOPE   O3119733   0.788   2.047  10.274 -0.1667 -0.3823 -0.1332
  174SOPE   C3119734   0.787   1.941  10.198  0.2127  0.4470  0.1643
  174SOPE   O3219735   0.811   1.826  10.224  0.1762 -0.8501  0.2534
  174SOPE   C3219736   0.747   1.999  10.054 -0.3725 -0.1292 -0.5087
  174SOPE   H2X19737   0.702   2.100  10.066  2.2826  0.9496  1.0905
  174SOPE   H2Y19738   0.678   1.934   9.996  2.4834 -2.2148 -1.8232
  174SOPE   C2319739   0.404   2.322  10.304  0.4808 -0.5334 -0.4358
  174SOPE   H3R19740   0.436   2.428  10.314  0.9796 -0.6142 -1.0838
  174SOPE   H3S19741   0.293   2.324  10.297  0.5697  0.0922 -2.2178
  174SOPE   C2419742   0.453   2.277  10.163 -0.1366  0.4357 -0.0885
  174SOPE   H4R19743   0.563   2.269  10.158 -0.2205 -1.7662  0.4305
  174SOPE   H4S19744   0.425   2.170  10.154  2.0219 -0.3612  1.7379
  174SOPE   C2519745   0.397   2.364  10.047  0.5378 -0.2930 -0.4577
  174SOPE   H5R19746   0.290   2.391  10.063  0.0856  0.5807 -4.1171
  174SOPE   H5S19747   0.455   2.456  10.027 -1.6202  0.9646 -1.2540
  174SOPE   C2619748   0.404   2.284   9.917  0.1508  0.0953  0.0452
  174SOPE   H6R19749   0.490   2.215   9.904 -1.4317 -1.7545 -1.0326
  174SOPE   H6S19750   0.322   2.210   9.915  1.2948 -1.1909 -0.9561
  174SOPE   C2719751   0.386   2.384   9.800  0.0670 -1.2506 -0.2913
  174SOPE   H7R19752   0.288   2.433   9.816  1.1012  0.5309  0.9142
  174SOPE   H7S19753   0.465   2.462   9.791 -0.7383 -0.3200  0.5841
  174SOPE   C2819754   0.374   2.313   9.663  0.5398 -0.2261 -0.1355
  174SOPE   H8R19755   0.283   2.249   9.665  0.5266 -0.2274  2.4217
  174SOPE   H8S19756   0.348   2.389   9.586 -1.2703 -0.8190 -0.1589
  174SOPE   C2919757   0.500   2.247   9.626  0.4151 -0.2703 -0.5113
  174SOPE   H9119758   0.517   2.156   9.686 -0.0150  1.6806  2.8553
  174SOPE  C21019759   0.576   2.267   9.519  0.5720 -0.5006  0.3378
  174SOPE  H10119760   0.663   2.201   9.514 -0.0730 -1.4544  1.2599
  174SOPE  C21119761   0.551   2.369   9.412 -0.2784 -0.3868 -0.1127
  174SOPE  H11R19762   0.634   2.443   9.412  0.1262 -0.7491  2.5153
  174SOPE  H11S19763   0.455   2.423   9.428 -1.1069 -2.2604  1.5915
  174SOPE  C21219764   0.540   2.295   9.269  0.2180 -0.4624 -0.1333
  174SOPE  H12R19765   0.440   2.246   9.263  0.2011 -0.3083 -1.4212
  174SOPE  H12S19766   0.614   2.213   9.263  0.6819  0.0539 -2.5977
  174SOPE  C21319767   0.570   2.388   9.146 -0.1470  0.3121  0.0420
  174SOPE  H13R19768   0.489   2.464   9.141  0.6517  1.1156 -1.1186
  174SOPE  H13S19769   0.553   2.321   9.058 -1.6093  0.5637  0.0994
  174SOPE  C21419770   0.707   2.467   9.142  0.5008  0.3004 -0.2962
  174SOPE  H14R19771   0.705   2.530   9.233  0.1858 -0.8796  0.5465
  174SOPE  H14S19772   0.706   2.525   9.047 -1.5658 -1.7876 -1.6742
  174SOPE  C21519773   0.829   2.374   9.157 -0.1519  0.7528 -0.1879
  174SOPE  H15R19774   0.846   2.297   9.078  1.2917 -1.7241  2.3474
  174SOPE  H15S19775   0.813   2.315   9.250 -1.4351  0.6979 -0.4214
  174SOPE  C21619776   0.971   2.449   9.160 -0.8953  0.7024 -0.5477
  174SOPE  H16R19777   0.963   2.544   9.217 -2.0016  0.3067 -0.0036
  174SOPE  H16S19778   0.993   2.478   9.055  0.8176  0.5313 -0.2693
  174SOPE  C21719779   1.083   2.362   9.218  0.1232 -0.2979 -0.3612
  174SOPE  H17R19780   1.088   2.269   9.157  0.0214 -0.5738  0.0489
  174SOPE  H17S19781   1.055   2.327   9.320 -0.5359 -0.2760 -0.5287
  174SOPE  C21819782   1.221   2.436   9.226  0.0733  0.9743  0.2788
  174SOPE  H18R19783   1.299   2.362   9.254 -0.3602 -0.8930 -2.9696
  174SOPE  H18S19784   1.220   2.514   9.305 -0.6842  1.1512  0.1005
  174SOPE  H18T19785   1.265   2.468   9.129  0.3828 -0.6108 -0.1314
  174SOPE   C3319786   0.869   1.992   9.956  0.2370 -0.3511  0.2994
  174SOPE   H3X19787   0.892   1.890   9.919  0.3481 -0.9128  1.8176
  174SOPE   H3Y19788   0.957   2.018  10.019  0.2318  0.6631 -0.1022
  174SOPE   C3419789   0.882   2.106   9.853  0.3680 -0.8558 -0.3804
  174SOPE   H4X19790   0.983   2.151   9.862 -0.0105 -0.1840  0.6449
  174SOPE   H4Y19791   0.823   2.193   9.887  0.5976 -0.3709 -1.1892
  174SOPE   C3519792   0.839   2.072   9.711  0.1629 -0.4562 -0.1826
  174SOPE   H5X19793   0.840   2.165   9.649  0.4948 -0.5952 -0.3840
  174SOPE   H5Y19794   0.734   2.036   9.717  0.7684 -2.0371  1.3534
  174SOPE   C3619795   0.921   1.961   9.644 -0.2953 -0.3844 -0.2952
  174SOPE   H6X19796   0.884   1.861   9.676 -1.0894  0.0852  0.2849
  174SOPE   H6Y19797   1.019   1.981   9.693 -1.2024  1.4874  0.8593
  174SOPE   C3719798   0.916   1.957   9.493  0.4473  0.0005 -0.3597
  174SOPE   H7X19799   1.002   1.902   9.448  0.1574 -0.4580 -0.3525
  174SOPE   H7Y19800   0.926   2.061   9.454 -1.2376  0.3516  0.0724
  174SOPE   C3819801   0.783   1.890   9.436  0.0858 -0.0655  0.3454
  174SOPE   H8X19802   0.697   1.950   9.472 -1.2392 -1.9302  0.4575
  174SOPE   H8Y19803   0.775   1.797   9.497  1.6958  1.2587  2.7432
  174SOPE   C3919804   0.777   1.880   9.279 -0.3090  0.7179 -0.5465
  174SOPE   H9X19805   0.671   1.853   9.258 -0.2771  1.8318 -2.4418
  174SOPE   H9Y19806   0.833   1.788   9.252 -1.9827 -0.1962 -1.0347
  174SOPE  C31019807   0.820   1.999   9.200  0.2919 -0.1650 -0.0091
  174SOPE  H10X19808   0.921   2.041   9.221  1.0162 -0.9253 -1.7452
  174SOPE  H10Y19809   0.746   2.083   9.199 -1.2551 -1.4385  1.4233
  174SOPE  C31119810   0.831   1.947   9.054 -0.3097  0.4386  0.2337
  174SOPE  H11X19811   0.747   1.884   9.019  1.6578 -1.8778 -0.5834
  174SOPE  H11Y19812   0.913   1.872   9.062 -1.0297 -0.4171 -0.1965
  174SOPE  C31219813   0.879   2.055   8.949  0.0308  0.5249 -0.2386
  174SOPE  H12X19814   0.955   2.113   9.004  0.6207  0.5268 -1.0376
  174SOPE  H12Y19815   0.791   2.121   8.932 -0.1980  0.1375 -0.5931
  174SOPE  C31319816   0.943   1.993   8.821  0.5845  0.2360 -0.3722
  174SOPE  H13X19817   0.873   2.006   8.736 -0.3125  1.9816  0.5765
  174SOPE  H13Y19818   0.946   1.882   8.819 -0.5043  0.2041 -1.4319
  174SOPE  C31419819   1.078   2.058   8.787  0.1483 -0.2677  0.1871
  174SOPE  H14X19820   1.111   1.995   8.702 -3.4452 -0.2956 -1.3562
  174SOPE  H14Y19821   1.140   2.064   8.880 -2.2764  0.7460  1.8515
  174SOPE  C31519822   1.064   2.199   8.736 -0.0901  0.2698 -0.0425
  174SOPE  H15X19823   1.058   2.269   8.822 -0.0062 -0.3305  0.4535
  174SOPE  H15Y19824   0.977   2.218   8.669 -1.7460  2.3838  2.5149
  174SOPE  C31619825   1.191   2.234   8.656 -0.1410  0.4390 -0.1893
  174SOPE  H16X19826   1.183   2.173   8.564  1.1836  2.4944 -1.7610
  174SOPE  H16Y19827   1.283   2.203   8.710  0.5522 -1.1894 -2.2070
  174SOPE  C31719828   1.198   2.380   8.617 -0.1195 -0.1283 -0.1970
  174SOPE  H17X19829   1.289   2.396   8.554  1.2134 -0.6758  1.5137
  174SOPE  H17Y19830   1.216   2.445   8.706 -0.2098 -1.8569  1.1185
  174SOPE  C31819831   1.082   2.439   8.539 -0.1533 -0.0805  0.5653
  174SOPE  H18X19832   1.011   2.488   8.610  0.0084 -0.1715  0.7883
  174SOPE  H18Y19833   1.020   2.365   8.484 -2.3863  1.5371  0.7430
  174SOPE  H18Z19834   1.120   2.502   8.456 -0.2660 -1.2956 -0.4423
  175SOPE     N19835   2.786   0.425  10.440  0.0531 -0.7283  0.3110
  175SOPE   HN119836   2.826   0.513  10.478 -0.2059 -1.4931  2.5043
  175SOPE   HN219837   2.870   0.366  10.422  0.0563 -0.1211 -2.0781
  175SOPE   HN319838   2.742   0.436  10.346  0.7051  1.3449  0.2003
  175SOPE   C1219839   2.699   0.353  10.546 -0.3782  0.4058  0.0969
  175SOPE  H12A19840   2.601   0.405  10.533 -1.1452 -1.3458 -1.8259
  175SOPE  H12B19841   2.725   0.366  10.653 -1.7487  0.4268  0.4497
  175SOPE   C1119842   2.677   0.201  10.506  0.1361 -0.4068  0.1206
  175SOPE  H11A19843   2.668   0.187  10.397 -0.4673 -1.0665  0.2462
  175SOPE  H11B19844   2.582   0.162  10.550 -0.6649  0.3603 -0.8967
  175SOPE     P19845   2.902   0.074  10.479  0.1976  0.2768 -0.0886
  175SOPE   O1319846   3.000   0.005  10.567  0.1868  0.5122  0.1070
  175SOPE   O1419847   2.959   0.191  10.410  0.0862  0.3573 -0.2481
  175SOPE   O1219848   2.778   0.121  10.561  0.4948 -0.1674 -0.1851
  175SOPE   O1119849   2.834  -0.026  10.379 -0.4318  0.0632 -0.1270
  175SOPE    C119850   2.730  -0.120  10.407 -1.1729  0.4957  0.0956
  175SOPE    HA19851   2.633  -0.070  10.387  0.1937  2.7151 -1.4117
  175SOPE    HB19852   2.739  -0.136  10.517  2.0848 -0.4619 -0.2184
  175SOPE    C219853   2.757  -0.255  10.337 -0.0823  0.0224 -0.3391
  175SOPE    HS19854   2.855  -0.290  10.377  1.0475  2.4562 -0.7577
  175SOPE   O2119855   2.750  -0.245  10.191 -0.3545 -0.5179 -0.5884
  175SOPE   C2119856   2.826  -0.330  10.126 -0.2475  0.6610  0.3281
  175SOPE   O2219857   2.890  -0.425  10.170 -0.3206  0.2883 -0.1430
  175SOPE   C2219858   2.821  -0.294   9.977  0.9722  0.1531  0.5990
  175SOPE   H2R19859   2.886  -0.208   9.952  0.3460  0.3155 -0.5690
  175SOPE   H2S19860   2.717  -0.265   9.947  1.1000 -0.1650 -0.1953
  175SOPE    C319861   2.653  -0.361  10.392  0.2036 -0.9370 -0.3988
  175SOPE    HX19862   2.551  -0.319  10.377 -0.0899 -1.9335 -1.3253
  175SOPE    HY19863   2.676  -0.356  10.500  3.5374 -1.7584 -0.9601
  175SOPE   O3119864   2.655  -0.485  10.321 -0.0185  0.2359  0.4140
  175SOPE   C3119865   2.743  -0.575  10.351 -0.5358  0.0496  0.1596
  175SOPE   O3219866   2.813  -0.580  10.452 -0.1508  0.5134 -0.2533
  175SOPE   C3219867   2.755  -0.678  10.236  0.0558 -0.1019 -0.3839
  175SOPE   H2X19868   2.861  -0.680  10.200 -0.1261  2.0877 -1.1720
  175SOPE   H2Y19869   2.694  -0.635  10.154  2.1795  1.0494 -1.4476
  175SOPE   C2319870   2.870  -0.407   9.884  0.0444  0.5950  0.1578
  175SOPE   H3R19871   2.841  -0.506   9.927  3.0409  0.6358  2.5485
  175SOPE   H3S19872   2.980  -0.424   9.879 -0.2193 -1.2395 -0.4160
  175SOPE   C2419873   2.805  -0.403   9.746 -0.0461 -0.5532  0.0197
  175SOPE   H4R19874   2.697  -0.389   9.770  0.4259  1.2909  1.2661
  175SOPE   H4S19875   2.821  -0.313   9.683  0.7707  0.3125  1.4039
  175SOPE   C2519876   2.810  -0.527   9.655 -0.4678 -0.0389 -0.4224
  175SOPE   H5R19877   2.916  -0.553   9.634 -0.6482 -0.0422 -1.3393
  175SOPE   H5S19878   2.765  -0.612   9.711  0.9960 -0.8568 -0.4226
  175SOPE   C2619879   2.724  -0.507   9.523 -0.1941 -0.3618  1.1683
  175SOPE   H6R19880   2.688  -0.609   9.498 -1.5515  0.5857 -1.0119
  175SOPE   H6S19881   2.637  -0.442   9.548 -1.8874 -1.4583 -1.5085
  175SOPE   C2719882   2.797  -0.457   9.400 -0.2255  0.4970 -0.5345
  175SOPE   H7R19883   2.854  -0.364   9.419 -0.1409  0.2598  0.4732
  175SOPE   H7S19884   2.865  -0.542   9.377  0.5684  0.5807  1.2725
  175SOPE   C2819885   2.698  -0.443   9.279 -0.3794  0.2101 -0.6292
  175SOPE   H8R19886   2.652  -0.543   9.263 -0.8980  0.3283  0.0885
  175SOPE   H8S19887   2.626  -0.369   9.320 -2.0512 -1.8814  0.3855
  175SOPE   C2919888   2.786  -0.392   9.173 -0.1878  0.3518  0.6056
  175SOPE   H9119889   2.809  -0.284   9.178  1.0177  0.1065  0.6818
  175SOPE  C21019890   2.835  -0.458   9.058 -0.1391  0.4126 -0.1080
  175SOPE  H10119891   2.906  -0.405   8.993  0.8889  1.6303  1.8938
  175SOPE  C21119892   2.810  -0.608   9.029  0.0477 -0.1160 -0.4480
  175SOPE  H11R19893   2.770  -0.649   9.124 -0.1706  1.1598  0.0294
  175SOPE  H11S19894   2.901  -0.668   9.007 -0.0482 -0.9854  1.3214
  175SOPE  C21219895   2.708  -0.640   8.924  0.2924  0.0225 -0.2383
  175SOPE  H12R19896   2.616  -0.579   8.933 -0.7114 -1.5383  0.4360
  175SOPE  H12S19897   2.686  -0.748   8.930  2.3943 -0.5048 -1.0315
  175SOPE  C21319898   2.783  -0.623   8.794  0.4623 -0.0758 -0.0866
  175SOPE  H13R19899   2.865  -0.697   8.790  2.0980  1.6740 -0.8251
  175SOPE  H13S19900   2.832  -0.523   8.791 -0.2233  0.3035  0.6757
  175SOPE  C21419901   2.688  -0.653   8.677 -0.1494  0.1725 -0.3712
  175SOPE  H14R19902   2.617  -0.567   8.686 -0.2350  0.0241  0.4614
  175SOPE  H14S19903   2.631  -0.746   8.696 -0.3223 -0.0491 -1.8478
  175SOPE  C21519904   2.749  -0.644   8.540 -0.1504 -0.1098  0.2473
  175SOPE  H15R19905   2.806  -0.735   8.510 -0.7168  0.1894 -1.9649
  175SOPE  H15S19906   2.820  -0.558   8.538 -1.8948  1.3848 -0.4071
  175SOPE  C21619907   2.654  -0.598   8.428  0.1622  0.0333 -0.1720
  175SOPE  H16R19908   2.711  -0.567   8.339  4.1257 -3.8043  0.6983
  175SOPE  H16S19909   2.597  -0.510   8.467  0.2306 -0.0430  0.1017
  175SOPE  C21719910   2.564  -0.714   8.386  0.2567  0.2339  0.4561
  175SOPE  H17R19911   2.501  -0.749   8.470 -0.0576 -3.6029 -1.1921
  175SOPE  H17S19912   2.623  -0.802   8.352  0.0770  0.1973  0.2374
  175SOPE  C21819913   2.463  -0.668   8.284  0.2065 -0.0925  0.2128
  175SOPE  H18R19914   2.526  -0.651   8.195  0.3845  0.1526  0.3846
  175SOPE  H18S19915   2.407  -0.574   8.306  1.6832  0.9117 -0.1528
  175SOPE  H18T19916   2.391  -0.750   8.264  0.4816 -0.1118 -0.6952
  175SOPE   C3319917   2.717  -0.823  10.267  0.1808 -0.3480 -0.0478
  175SOPE   H3X19918   2.612  -0.831  10.302  0.6605 -2.6393  1.0473
  175SOPE   H3Y19919   2.775  -0.859  10.354  3.0437  3.6997  0.0043
  175SOPE   C3419920   2.745  -0.913  10.147 -1.0166 -0.4259 -0.4408
  175SOPE   H4X19921   2.829  -0.976  10.183 -0.0047  0.5819 -0.9731
  175SOPE   H4Y19922   2.795  -0.867  10.059 -4.3945 -0.7111 -2.6571
  175SOPE   C3519923   2.618  -0.991  10.101 -0.8577 -0.0501  0.2787
  175SOPE   H5X19924   2.547  -0.913  10.066 -0.9510 -1.0679 -2.0250
  175SOPE   H5Y19925   2.567  -1.044  10.184 -0.0064 -2.3335 -0.5620
  175SOPE   C3619926   2.654  -1.100   9.991  0.4768 -0.1109  0.5185
  175SOPE   H6X19927   2.575  -1.177   9.979 -1.2113  1.1963  2.5170
  175SOPE   H6Y19928   2.733  -1.165  10.034 -0.2375 -0.8886  0.6796
  175SOPE   C3719929   2.694  -1.036   9.857  0.2733  0.5821  1.1185
  175SOPE   H7X19930   2.789  -0.984   9.879  0.2859  1.0999 -0.0649
  175SOPE   H7Y19931   2.609  -0.966   9.841 -0.7064 -0.7547  0.1573
  175SOPE   C3819932   2.703  -1.127   9.734 -0.7838 -0.4900  0.9228
  175SOPE   H8X19933   2.658  -1.228   9.726  0.4230 -0.9967  0.2533
  175SOPE   H8Y19934   2.813  -1.134   9.719 -0.8757  0.0326 -0.0468
  175SOPE   C3919935   2.660  -1.061   9.600  0.3606 -0.4479  0.6564
  175SOPE   H9X19936   2.673  -0.951   9.592 -0.6131 -0.4038 -0.8700
  175SOPE   H9Y19937   2.549  -1.070   9.591  0.5008 -1.4040 -0.2205
  175SOPE  C31019938   2.722  -1.127   9.472  0.3914 -0.0628  0.0072
  175SOPE  H10X19939   2.678  -1.230   9.472 -1.4748  0.6711 -1.0695
  175SOPE  H10Y19940   2.831  -1.133   9.489  0.3540 -0.9375  0.0228
  175SOPE  C31119941   2.689  -1.062   9.341 -0.7669 -0.7050 -0.3633
  175SOPE  H11X19942   2.742  -0.964   9.345 -3.5880  0.9590 -0.6808
  175SOPE  H11Y19943   2.583  -1.031   9.327 -1.2906 -1.4677  1.6713
  175SOPE  C31219944   2.735  -1.136   9.215  0.2284 -0.5103  0.1359
  175SOPE  H12X19945   2.684  -1.235   9.218  0.4045 -0.5856  1.7169
  175SOPE  H12Y19946   2.845  -1.151   9.222  0.3160 -1.1847 -1.8964
  175SOPE  C31319947   2.703  -1.060   9.085  0.2944  0.1466 -0.1099
  175SOPE  H13X19948   2.776  -0.977   9.091  2.9877 -2.1527  1.0372
  175SOPE  H13Y19949   2.598  -1.023   9.081  0.2492  0.0934  0.5296
  175SOPE  C31419950   2.737  -1.145   8.960 -0.3301 -0.3127 -0.1536
  175SOPE  H14X19951   2.659  -1.225   8.958 -0.0482 -0.7024  2.2703
  175SOPE  H14Y19952   2.828  -1.201   8.990 -0.9388 -0.9162  0.6449
  175SOPE  C31519953   2.740  -1.076   8.827 -0.0668  0.3142  0.2860
  175SOPE  H15X19954   2.809  -0.989   8.815  0.6692 -0.5670 -2.6271
  175SOPE  H15Y19955   2.641  -1.030   8.811  0.1611  1.1491  1.1483
  175SOPE  C31619956   2.773  -1.178   8.713  0.0266  0.3959 -0.5938
  175SOPE  H16X19957   2.696  -1.257   8.726  1.2074 -0.6382  0.4128
  175SOPE  H16Y19958   2.882  -1.198   8.720  0.4980  2.5123 -1.2483
  175SOPE  C31719959   2.753  -1.116   8.576  0.2508 -0.0168  0.5366
  175SOPE  H17X19960   2.831  -1.039   8.558  1.0991 -0.7015  1.1828
  175SOPE  H17Y19961   2.656  -1.065   8.559 -2.1424 -4.5023 -0.6377
  175SOPE  C31819962   2.762  -1.222   8.466 -0.7237 -0.2074  0.1144
  175SOPE  H18X19963   2.734  -1.191   8.363 -0.8084 -0.0126  0.1955
  175SOPE  H18Y19964   2.693  -1.305   8.492 -0.3671 -0.3971  0.4568
  175SOPE  H18Z19965   2.865  -1.261   8.449 -0.6186  0.4992 -0.9904
  176SOPE     N19966   2.498   5.278  11.020 -0.4113  0.2296 -0.2472
  176SOPE   HN119967   2.506   5.348  10.944  1.0640 -0.5800 -0.8658
  176SOPE   HN219968   2.400   5.243  11.030 -0.3636 -0.0261 -0.6692
  176SOPE   HN319969   2.530   5.316  11.111 -1.4384  0.4485  0.0360
  176SOPE   C1219970   2.583   5.165  10.988 -0.6507  0.4969 -0.1889
  176SOPE  H12A19971   2.587   5.142  10.879 -0.0731 -0.6583  0.0509
  176SOPE  H12B19972   2.539   5.079  11.043 -3.3091  0.8323 -1.6369
  176SOPE   C1119973   2.728   5.201  11.023 -0.2055 -0.0110 -0.0457
  176SOPE  H11A19974   2.800   5.131  10.976  0.9503  3.2628 -3.6508
  176SOPE  H11B19975   2.749   5.169  11.127 -1.1937 -0.2553  0.0912
  176SOPE     P19976   2.808   5.390  10.867 -0.4136  0.4304 -0.2548
  176SOPE   O1319977   2.890   5.298  10.782 -0.0498 -0.1242 -0.0558
  176SOPE   O1419978   2.863   5.529  10.888  0.4118 -0.0202  0.2877
  176SOPE   O1219979   2.767   5.336  11.011 -0.2039 -0.2253 -0.3467
  176SOPE   O1119980   2.664   5.402  10.808  0.0994  0.1606 -0.0047
  176SOPE    C119981   2.655   5.423  10.668  0.3945  0.6942  0.9133
  176SOPE    HA19982   2.555   5.391  10.634  0.7472  0.5670 -0.0440
  176SOPE    HB19983   2.732   5.368  10.610  0.2192  2.2352 -0.8701
  176SOPE    C219984   2.663   5.573  10.627  0.2521  0.0808 -0.7774
  176SOPE    HS19985   2.754   5.618  10.673  0.2953  1.7301 -2.3633
  176SOPE   O2119986   2.546   5.635  10.681 -0.1706 -0.0631  0.0682
  176SOPE   C2119987   2.532   5.762  10.646 -0.3759  0.5475  0.1295
  176SOPE   O2219988   2.621   5.840  10.614  0.1159  0.5497 -0.7123
  176SOPE   C2219989   2.388   5.802  10.656  0.2152  0.6347  0.3558
  176SOPE   H2R19990   2.361   5.907  10.678 -0.2331  0.4881  0.5182
  176SOPE   H2S19991   2.339   5.744  10.737 -3.1398  0.8761 -1.3347
  176SOPE    C319992   2.686   5.575  10.468 -0.8952 -0.4376 -0.8989
  176SOPE    HX19993   2.698   5.682  10.439  1.7460  0.0888  1.6896
  176SOPE    HY19994   2.592   5.540  10.419  0.2919 -1.2651 -2.6797
  176SOPE   O3119995   2.792   5.485  10.415 -0.3858  0.2710 -0.0382
  176SOPE   C3119996   2.913   5.536  10.439  0.1833  0.8873  0.1977
  176SOPE   O3219997   2.937   5.647  10.491  0.0582 -0.0743 -0.1312
  176SOPE   C3219998   3.025   5.429  10.413  0.0255  1.1546 -0.0390
  176SOPE   H2X19999   2.973   5.331  10.427  2.7544 -0.3749 -0.0048
  176SOPE   H2Y20000   3.100   5.440  10.494 -0.2020 -0.1323  0.3725
  176SOPE   C2320001   2.308   5.754  10.534 -0.2263  0.1129 -0.1175
  176SOPE   H3R20002   2.199   5.762  10.549 -0.5627  0.7625 -2.4649
  176SOPE   H3S20003   2.321   5.644  10.521 -0.8687  0.0802 -0.4921
  176SOPE   C2420004   2.343   5.818  10.408 -0.3414 -0.0957  0.1567
  176SOPE   H4R20005   2.448   5.802  10.375 -0.7734  1.5215 -2.3639
  176SOPE   H4S20006   2.284   5.761  10.333 -2.2724 -0.0499  1.5702
  176SOPE   C2520007   2.306   5.970  10.394  0.8360 -0.3912 -0.0865
  176SOPE   H5R20008   2.199   5.979  10.422  0.9176 -0.4981  0.2572
  176SOPE   H5S20009   2.364   6.017  10.476  1.1899 -0.6801 -0.1655
  176SOPE   C2620010   2.315   6.017  10.247 -0.5796 -0.1405 -0.5823
  176SOPE   H6R20011   2.421   6.025  10.215  0.1534 -1.5664  1.2465
  176SOPE   H6S20012   2.270   5.937  10.184  0.0884 -0.9347 -0.0650
  176SOPE   C2720013   2.245   6.151  10.224  0.4400 -0.2281 -0.2905
  176SOPE   H7R20014   2.145   6.150  10.272  0.6086 -1.4504  0.0729
  176SOPE   H7S20015   2.293   6.221  10.296 -2.7015  0.0941  1.6828
  176SOPE   C2820016   2.253   6.188  10.076  0.3472  0.1254  0.3749
  176SOPE   H8R20017   2.225   6.107  10.005  0.0521  0.7689 -0.2570
  176SOPE   H8S20018   2.184   6.272  10.054 -0.1926 -0.5363 -0.5398
  176SOPE   C2920019   2.388   6.246  10.044  0.6312 -0.4843 -0.0168
  176SOPE   H9120020   2.411   6.330  10.112 -1.1323  0.3393 -0.3796
  176SOPE  C21020021   2.478   6.209   9.951 -0.3464 -0.5034 -0.0141
  176SOPE  H10120022   2.567   6.274   9.944  0.4156 -1.6277 -1.5872
  176SOPE  C21120023   2.460   6.097   9.852 -0.6214  0.3811  0.0149
  176SOPE  H11R20024   2.388   6.019   9.884 -0.3196 -0.7325 -1.8760
  176SOPE  H11S20025   2.558   6.045   9.849 -1.4644 -1.2685 -0.1612
  176SOPE  C21220026   2.415   6.161   9.718  0.7524 -0.1896  0.2272
  176SOPE  H12R20027   2.480   6.247   9.689  1.8703 -0.9604  0.4055
  176SOPE  H12S20028   2.316   6.210   9.730  1.8618  2.6726 -1.2456
  176SOPE  C21320029   2.405   6.070   9.594 -0.0781 -0.0338 -0.4897
  176SOPE  H13R20030   2.321   6.003   9.620  1.1559 -1.1647  0.7896
  176SOPE  H13S20031   2.494   6.007   9.573 -1.2107 -1.1364 -2.2590
  176SOPE  C21420032   2.380   6.142   9.461  0.0213 -0.2861  0.1672
  176SOPE  H14R20033   2.431   6.239   9.450 -2.6443  1.0976 -0.8853
  176SOPE  H14S20034   2.270   6.159   9.454  0.5208  3.3004 -0.7209
  176SOPE  C21520035   2.413   6.048   9.342  0.1915  0.1973 -0.9155
  176SOPE  H15R20036   2.358   5.955   9.366 -0.5691  0.6597 -0.8307
  176SOPE  H15S20037   2.520   6.017   9.349  0.0781 -0.2457 -1.0922
  176SOPE  C21620038   2.372   6.108   9.212 -0.5568  0.7951 -0.3591
  176SOPE  H16R20039   2.442   6.185   9.173  0.6478  0.3559  0.8531
  176SOPE  H16S20040   2.269   6.149   9.212 -0.9825 -0.0782  2.3741
  176SOPE  C21720041   2.375   6.013   9.091 -0.1517 -0.3872  0.2860
  176SOPE  H17R20042   2.325   5.917   9.117  2.0048 -2.0251 -1.2670
  176SOPE  H17S20043   2.479   5.983   9.065 -0.4991 -1.3034 -0.0884
  176SOPE  C21820044   2.315   6.073   8.967  0.9190  0.3790 -0.2540
  176SOPE  H18R20045   2.206   6.090   8.981  0.8924  1.0801 -1.1613
  176SOPE  H18S20046   2.335   6.006   8.880  0.8362 -1.0409  0.7963
  176SOPE  H18T20047   2.368   6.170   8.954 -0.0358  0.9234 -0.2279
  176SOPE   C3320048   3.092   5.447  10.275 -0.3071 -0.5389 -0.3361
  176SOPE   H3X20049   3.174   5.372  10.274 -0.6596 -1.0040 -3.2608
  176SOPE   H3Y20050   3.129   5.551  10.265 -2.2811  0.3219  0.6701
  176SOPE   C3420051   3.008   5.418  10.154 -0.1452  0.3099  0.1285
  176SOPE   H4X20052   2.921   5.486  10.162  0.3388  0.9248  0.3076
  176SOPE   H4Y20053   2.963   5.316  10.156  0.7322 -0.0835  0.5845
  176SOPE   C3520054   3.084   5.441  10.027 -0.9517 -0.2451 -0.0201
  176SOPE   H5X20055   3.182   5.388  10.033  0.3613  2.0393 -0.1905
  176SOPE   H5Y20056   3.125   5.544  10.030 -1.4196  0.0278 -1.9229
  176SOPE   C3620057   3.009   5.419   9.897 -0.4922  0.0474  0.7606
  176SOPE   H6X20058   2.921   5.488   9.901 -0.8571 -0.4569  1.7645
  176SOPE   H6Y20059   2.966   5.317   9.892  2.1983 -1.2389  1.8922
  176SOPE   C3720060   3.079   5.459   9.770 -0.4063  0.3123 -0.3428
  176SOPE   H7X20061   3.177   5.408   9.779 -0.3171  0.6565  0.7560
  176SOPE   H7Y20062   3.092   5.569   9.775 -0.9954  0.3631  0.2261
  176SOPE   C3820063   3.018   5.418   9.631  0.5400 -0.0326 -0.3817
  176SOPE   H8X20064   2.920   5.470   9.624  0.3190  0.0582  2.4818
  176SOPE   H8Y20065   3.004   5.308   9.634  0.1203  0.0277 -0.0448
  176SOPE   C3920066   3.096   5.465   9.509  0.5969 -0.9287 -0.2563
  176SOPE   H9X20067   3.201   5.431   9.522 -0.2260 -2.9241  1.9756
  176SOPE   H9Y20068   3.092   5.576   9.517  1.1202 -0.9643  0.8172
  176SOPE  C31020069   3.035   5.411   9.385  0.2243  1.0640 -0.1530
  176SOPE  H10X20070   2.927   5.432   9.371  0.4907  1.2234 -2.2821
  176SOPE  H10Y20071   3.044   5.302   9.366  0.0964  1.5663 -3.7714
  176SOPE  C31120072   3.108   5.468   9.272 -0.0726 -0.2039  0.3951
  176SOPE  H11X20073   3.214   5.434   9.271 -0.7090 -2.3141 -1.4173
  176SOPE  H11Y20074   3.110   5.579   9.278 -1.1704 -0.1326 -0.2443
  176SOPE  C31220075   3.052   5.415   9.143 -0.7644  0.5162  0.2116
  176SOPE  H12X20076   2.941   5.414   9.145 -0.9432  2.7506 -2.4854
  176SOPE  H12Y20077   3.079   5.308   9.133 -1.4155  0.4370 -0.8733
  176SOPE  C31320078   3.099   5.493   9.015  0.5270 -0.3249  0.1334
  176SOPE  H13X20079   3.209   5.495   9.001  0.3582 -2.9769 -2.9536
  176SOPE  H13Y20080   3.048   5.590   9.030 -2.7955 -2.1613  2.0166
  176SOPE  C31420081   3.060   5.414   8.889  0.1088 -0.6120  0.0522
  176SOPE  H14X20082   2.951   5.423   8.870 -0.4497 -2.1654  2.2200
  176SOPE  H14Y20083   3.086   5.306   8.899  1.0099 -0.2876  1.4265
  176SOPE  C31520084   3.135   5.457   8.766 -0.1425 -0.5575 -0.3353
  176SOPE  H15X20085   3.243   5.439   8.781 -0.4472 -1.4888  0.8670
  176SOPE  H15Y20086   3.125   5.567   8.750  0.9863 -0.6863 -2.2414
  176SOPE  C31620087   3.083   5.392   8.640  0.1816 -0.4654  0.6385
  176SOPE  H16X20088   3.133   5.448   8.557 -0.3429  0.6996  1.0787
  176SOPE  H16Y20089   2.974   5.388   8.616 -0.0691  2.0481  0.9923
  176SOPE  C31720090   3.139   5.251   8.614 -0.3117  0.3692  0.1098
  176SOPE  H17X20091   3.227   5.234   8.679  0.0375  0.4326 -0.3420
  176SOPE  H17Y20092   3.184   5.254   8.513 -0.2863 -0.9049  0.0650
  176SOPE  C31820093   3.045   5.132   8.631  0.4571  0.3073  0.2900
  176SOPE  H18X20094   3.084   5.033   8.601  0.1324 -0.2434  1.5840
  176SOPE  H18Y20095   2.948   5.166   8.588 -0.2855  1.0928  2.4382
  176SOPE  H18Z20096   3.013   5.120   8.737 -0.6824  0.8584  0.0259
  177SOPE     N20097   2.934   3.659  11.114  0.4400  0.3653  0.0027
  177SOPE   HN120098   2.911   3.753  11.077  0.8771  0.1354 -0.9018
  177SOPE   HN220099   2.914   3.653  11.216 -2.1496 -0.0551 -0.4704
  177SOPE   HN320100   3.037   3.650  11.099  0.3285 -0.9714 -0.1067
  177SOPE   C1220101   2.857   3.559  11.034  0.0783  0.3029 -0.3109
  177SOPE  H12A20102   2.772   3.608  10.982  1.7231  1.3675 -2.1666
  177SOPE  H12B20103   2.807   3.485  11.099 -0.4968  1.1061  0.1841
  177SOPE   C1120104   2.951   3.492  10.926  0.0875  0.5331 -0.7202
  177SOPE  H11A20105   3.003   3.580  10.883  0.1367  1.1763  0.6113
  177SOPE  H11B20106   2.872   3.456  10.857  0.1466  1.5755 -1.3518
  177SOPE     P20107   2.998   3.243  11.008 -0.3863  0.8320  0.0650
  177SOPE   O1320108   2.908   3.236  11.125 -0.3224  0.5901 -0.4648
  177SOPE   O1420109   3.114   3.147  11.017  0.4159  0.0038 -0.0601
  177SOPE   O1220110   3.049   3.393  10.976  0.6777  0.0250 -0.1737
  177SOPE   O1120111   2.910   3.203  10.887 -0.0403  0.1950 -0.2910
  177SOPE    C120112   2.900   3.071  10.836 -0.1800  0.2494 -0.4463
  177SOPE    HA20113   2.792   3.049  10.826 -0.0224 -2.3222  2.2030
  177SOPE    HB20114   2.938   2.993  10.906  1.4313  0.0284 -1.5164
  177SOPE    C220115   2.972   3.064  10.698  0.0264  0.4343  0.2511
  177SOPE    HS20116   3.083   3.063  10.705  0.1790 -0.8957 -1.5319
  177SOPE   O2120117   2.915   3.173  10.619 -0.6401 -0.0222  0.7701
  177SOPE   C2120118   2.999   3.270  10.588 -0.0010 -0.4341  0.5451
  177SOPE   O2220119   3.116   3.268  10.615  0.4122 -0.6280 -0.3667
  177SOPE   C2220120   2.921   3.383  10.533 -0.0502  0.2147 -0.1089
  177SOPE   H2R20121   2.937   3.473  10.596 -0.3355 -2.3094  3.9027
  177SOPE   H2S20122   2.810   3.372  10.534 -0.1158  0.0225 -2.7407
  177SOPE    C320123   2.944   2.930  10.623  0.1714  0.7681 -0.3972
  177SOPE    HX20124   2.835   2.907  10.614  0.3531 -1.2025  1.7296
  177SOPE    HY20125   2.987   2.845  10.680 -0.3251  1.6024  1.2871
  177SOPE   O3120126   2.992   2.944  10.487  0.3304 -0.2372 -0.7829
  177SOPE   C3120127   3.116   2.913  10.467  0.2816  0.0998  0.2171
  177SOPE   O3220128   3.203   2.887  10.551 -0.4605 -0.4516  0.3144
  177SOPE   C3220129   3.144   2.916  10.317 -0.2506  0.3619 -0.7279
  177SOPE   H2X20130   3.141   3.020  10.278  0.8730  0.0004 -1.8300
  177SOPE   H2Y20131   3.051   2.881  10.267 -1.2602  0.6379  0.8766
  177SOPE   C2320132   2.954   3.408  10.381 -0.9506  0.1554 -0.2790
  177SOPE   H3R20133   3.051   3.461  10.368  0.8365 -2.7756  0.2084
  177SOPE   H3S20134   2.877   3.479  10.341 -0.4698  0.5856 -0.4524
  177SOPE   C2420135   2.954   3.277  10.296  0.3465  0.7644  0.1226
  177SOPE   H4R20136   3.049   3.224  10.315  0.9037  2.5824  3.2359
  177SOPE   H4S20137   2.873   3.206  10.324 -0.6047  1.0503 -1.7231
  177SOPE   C2520138   2.937   3.305  10.144  0.4352 -0.3350 -0.1587
  177SOPE   H5R20139   2.846   3.368  10.142  0.4620 -0.2274  1.1385
  177SOPE   H5S20140   3.024   3.368  10.117 -0.4475  1.0186  0.0605
  177SOPE   C2620141   2.933   3.169  10.076  0.4339 -0.1922  0.3447
  177SOPE   H6R20142   3.032   3.120  10.084 -0.1552 -1.2395  1.6081
  177SOPE   H6S20143   2.861   3.104  10.130  1.4882 -1.9885 -0.3499
  177SOPE   C2720144   2.869   3.178   9.939 -0.7508 -0.3994  0.2085
  177SOPE   H7R20145   2.865   3.075   9.900 -1.8515 -0.9051  1.5848
  177SOPE   H7S20146   2.765   3.217   9.946 -0.0466  1.3299  2.4895
  177SOPE   C2820147   2.942   3.268   9.831 -0.6365 -0.0311 -0.1281
  177SOPE   H8R20148   2.867   3.281   9.750 -1.8860  0.9983  1.1532
  177SOPE   H8S20149   2.962   3.372   9.865 -1.9814 -0.3272  1.7200
  177SOPE   C2920150   3.072   3.204   9.786  0.5934 -0.5545 -0.5661
  177SOPE   H9120151   3.143   3.193   9.869  0.2312 -1.7114 -0.3780
  177SOPE  C21020152   3.103   3.157   9.660  0.3266  0.2971 -0.6842
  177SOPE  H10120153   3.191   3.092   9.645 -1.2935 -2.4442  0.8457
  177SOPE  C21120154   3.002   3.155   9.543  0.1506 -0.1260  0.7477
  177SOPE  H11R20155   2.899   3.160   9.584 -0.4587 -1.9289 -0.4628
  177SOPE  H11S20156   3.013   3.067   9.477  1.5954 -0.0578  0.8725
  177SOPE  C21220157   3.004   3.270   9.441  0.3815 -0.0683 -0.2908
  177SOPE  H12R20158   3.109   3.296   9.412  0.2292  0.6448 -0.2234
  177SOPE  H12S20159   2.957   3.366   9.470  0.8146 -0.4904  1.9925
  177SOPE  C21320160   2.939   3.229   9.310  0.4485 -0.1715 -0.6251
  177SOPE  H13R20161   2.982   3.135   9.268  0.3614 -0.3341 -0.3526
  177SOPE  H13S20162   2.958   3.318   9.246 -0.5566  1.4006  1.1678
  177SOPE  C21420163   2.784   3.219   9.335  0.1653  0.7230  0.0588
  177SOPE  H14R20164   2.756   3.303   9.402 -3.3165 -1.0897  1.1605
  177SOPE  H14S20165   2.769   3.128   9.397  0.8176  1.5119  1.4056
  177SOPE  C21520166   2.694   3.218   9.208 -0.5414 -0.2796 -0.1722
  177SOPE  H15R20167   2.702   3.318   9.159 -0.9890 -0.4070 -0.5095
  177SOPE  H15S20168   2.592   3.213   9.251  0.7301  0.1771  3.2184
  177SOPE  C21620169   2.723   3.104   9.103 -0.2365 -0.3205  0.1503
  177SOPE  H16R20170   2.754   3.007   9.145 -1.1980 -1.5904 -1.8881
  177SOPE  H16S20171   2.816   3.131   9.050 -2.0826  2.6914 -1.9048
  177SOPE  C21720172   2.604   3.088   9.007  0.1817 -0.0577  0.1219
  177SOPE  H17R20173   2.579   3.187   8.962  0.0370 -0.9376 -1.8238
  177SOPE  H17S20174   2.517   3.050   9.064  0.6797  0.0414  0.9607
  177SOPE  C21820175   2.631   2.989   8.890  0.6918  0.5037  0.2247
  177SOPE  H18R20176   2.697   3.029   8.810 -0.0808 -0.5981 -1.0054
  177SOPE  H18S20177   2.537   2.953   8.844  0.4803 -0.7322  1.5550
  177SOPE  H18T20178   2.683   2.896   8.921 -0.1275 -0.4023 -1.0107
  177SOPE   C3320179   3.267   2.839  10.267 -0.2926 -0.2574  0.1091
  177SOPE   H3X20180   3.235   2.733  10.265  0.8999 -0.6313 -0.7964
  177SOPE   H3Y20181   3.351   2.865  10.334  0.1609 -1.5769  0.0813
  177SOPE   C3420182   3.315   2.879  10.125 -0.1930 -0.4744 -0.7021
  177SOPE   H4X20183   3.424   2.877  10.104 -0.0576  1.2671 -0.2661
  177SOPE   H4Y20184   3.301   2.989  10.119  2.9750 -0.0195 -1.2259
  177SOPE   C3520185   3.248   2.810  10.003  0.2203 -0.2959 -0.4463
  177SOPE   H5X20186   3.163   2.876   9.976 -1.6010 -2.0261  0.7892
  177SOPE   H5Y20187   3.191   2.717  10.025 -0.0493 -0.1489 -0.5126
  177SOPE   C3620188   3.339   2.773   9.891 -0.4397 -0.1823  0.4274
  177SOPE   H6X20189   3.426   2.722   9.936  0.5238  0.6211 -0.4704
  177SOPE   H6Y20190   3.382   2.864   9.843  2.0617 -1.4631  0.0969
  177SOPE   C3720191   3.268   2.681   9.787 -0.4448  0.1811  0.5005
  177SOPE   H7X20192   3.188   2.623   9.837 -1.7193 -0.0152 -1.6157
  177SOPE   H7Y20193   3.345   2.615   9.742 -0.8442  0.5251 -0.7411
  177SOPE   C3820194   3.194   2.772   9.680 -0.4045  0.0014  0.5110
  177SOPE   H8X20195   3.272   2.838   9.636 -0.1526 -1.1543 -0.8314
  177SOPE   H8Y20196   3.116   2.829   9.735  1.3250 -0.2706  3.5103
  177SOPE   C3920197   3.142   2.685   9.559  0.0849 -1.5382  0.0354
  177SOPE   H9X20198   3.076   2.603   9.596  0.4880 -1.6991  0.4132
  177SOPE   H9Y20199   3.235   2.630   9.531  1.0950  0.1618 -0.0649
  177SOPE  C31020200   3.081   2.765   9.445 -0.3349 -0.6521  0.6222
  177SOPE  H10X20201   3.155   2.842   9.416 -2.1853  1.4523  1.2644
  177SOPE  H10Y20202   2.998   2.832   9.475  0.5901  0.7041  0.2058
  177SOPE  C31120203   3.031   2.683   9.326 -0.0308  0.7840  0.0710
  177SOPE  H11X20204   3.006   2.584   9.370  3.3825 -0.4848 -0.5223
  177SOPE  H11Y20205   3.130   2.661   9.280  1.0628 -0.5225  2.8296
  177SOPE  C31220206   2.935   2.751   9.228 -0.0158 -0.6482 -0.8177
  177SOPE  H12X20207   2.996   2.819   9.165 -1.8715  0.9035 -1.0480
  177SOPE  H12Y20208   2.870   2.815   9.292  0.9500 -2.0324  1.6931
  177SOPE  C31320209   2.859   2.662   9.138 -0.3513 -0.1104 -0.3724
  177SOPE  H13X20210   2.779   2.733   9.108 -0.8337 -0.9066 -1.0053
  177SOPE  H13Y20211   2.815   2.585   9.205  1.0929 -0.6822 -0.0374
  177SOPE  C31420212   2.939   2.596   9.021 -0.9786  0.2856 -0.3707
  177SOPE  H14X20213   3.031   2.541   9.052 -1.5211  0.0370  0.8545
  177SOPE  H14Y20214   2.979   2.677   8.956  1.7521  0.3921  1.2828
  177SOPE  C31520215   2.860   2.484   8.959 -0.1462  0.2034 -0.6089
  177SOPE  H15X20216   2.812   2.418   9.034  0.5330 -0.9869 -1.1983
  177SOPE  H15Y20217   2.926   2.416   8.900 -2.9021 -1.6905 -1.7039
  177SOPE  C31620218   2.753   2.553   8.862  0.3257 -0.2043 -0.0545
  177SOPE  H16X20219   2.724   2.649   8.910  1.0520 -0.7704  1.5949
  177SOPE  H16Y20220   2.663   2.491   8.841 -0.8896  2.1278 -2.2105
  177SOPE  C31720221   2.805   2.576   8.714 -0.0917 -0.6162 -0.0638
  177SOPE  H17X20222   2.851   2.477   8.690 -1.3055 -1.3102  0.4156
  177SOPE  H17Y20223   2.896   2.639   8.726  0.7822 -1.8497  0.0249
  177SOPE  C31820224   2.716   2.641   8.611 -0.2247 -0.2773  0.9977
  177SOPE  H18X20225   2.631   2.578   8.578 -0.8546  1.0171  0.0853
  177SOPE  H18Y20226   2.779   2.654   8.521 -0.6511 -2.3747  0.3451
  177SOPE  H18Z20227   2.687   2.739   8.654 -0.2889 -0.5234  1.5201
  178SOPE     N20228   4.616   4.600  10.624  0.2676 -0.2350  0.3065
  178SOPE   HN120229   4.513   4.591  10.617 -0.1472  2.7934  1.4410
  178SOPE   HN220230   4.658   4.540  10.699  0.4574  0.2669  0.6038
  178SOPE   HN320231   4.637   4.699  10.644 -0.6321 -0.1752  1.0420
  178SOPE   C1220232   4.685   4.547  10.497  0.4605  0.4858  0.1572
  178SOPE  H12A20233   4.791   4.576  10.508  0.4172  0.1741  1.7123
  178SOPE  H12B20234   4.636   4.597  10.412  2.9720  1.7479 -0.6274
  178SOPE   C1120235   4.701   4.390  10.494 -0.6979 -0.4289  0.6683
  178SOPE  H11A20236   4.717   4.344  10.393 -2.1573  0.5495 -0.0391
  178SOPE  H11B20237   4.608   4.344  10.532 -0.6999  1.3114  2.9181
  178SOPE     P20238   4.838   4.222  10.629  0.0523 -0.0169  0.3147
  178SOPE   O1320239   4.737   4.178  10.726  0.5984 -0.0280  0.4948
  178SOPE   O1420240   4.975   4.213  10.674 -0.6848  0.4553  0.0356
  178SOPE   O1220241   4.809   4.365  10.574 -0.1411 -0.4126  0.3121
  178SOPE   O1120242   4.820   4.124  10.503 -0.5272 -0.7317 -0.4028
  178SOPE    C120243   4.914   4.111  10.402  0.3477 -0.2906 -0.1176
  178SOPE    HA20244   5.001   4.053  10.438  0.2712 -0.9026 -0.9028
  178SOPE    HB20245   4.951   4.213  10.380  1.2853  0.0086  2.4379
  178SOPE    C220246   4.857   4.030  10.282 -0.2014 -0.5650 -0.4113
  178SOPE    HS20247   4.826   3.934  10.328 -3.5491  1.6562  2.4155
  178SOPE   O2120248   4.957   4.011  10.180  0.1748 -0.3449  0.8821
  178SOPE   C2120249   5.062   3.936  10.211 -0.0359  0.0415  0.1875
  178SOPE   O2220250   5.074   3.856  10.298  0.1150  0.3819 -0.0574
  178SOPE   C2220251   5.173   3.977  10.109  0.4587  0.3621 -0.3175
  178SOPE   H2R20252   5.246   4.035  10.168  0.5284 -0.2009  0.1589
  178SOPE   H2S20253   5.137   4.042  10.026 -0.9236 -0.0939 -0.0979
  178SOPE    C320254   4.718   4.096  10.220 -0.7075  0.1370  0.0503
  178SOPE    HX20255   4.734   4.204  10.198  0.7174 -0.0957 -0.1273
  178SOPE    HY20256   4.642   4.092  10.301 -1.9984 -0.4993 -1.1513
  178SOPE   O3120257   4.678   4.033  10.096  0.0939  0.3344  0.0571
  178SOPE   C3120258   4.651   3.905  10.099 -0.1887  0.1136 -0.7910
  178SOPE   O3220259   4.643   3.835  10.199 -0.2617 -0.1350  0.5457
  178SOPE   C3220260   4.642   3.845   9.956 -0.4303 -0.4899 -0.2945
  178SOPE   H2X20261   4.643   3.735   9.966  2.7695 -0.4486  0.7667
  178SOPE   H2Y20262   4.732   3.872   9.898 -0.0459  0.1005  0.5571
  178SOPE   C2320263   5.230   3.850  10.038 -0.1100  0.0913 -0.3367
  178SOPE   H3R20264   5.295   3.782  10.097  2.4342  0.7949 -2.1237
  178SOPE   H3S20265   5.308   3.879   9.965 -0.8088  0.3334 -1.0017
  178SOPE   C2420266   5.119   3.768   9.965  0.3917  0.8513  0.0667
  178SOPE   H4R20267   5.159   3.674   9.922 -0.7225  0.1061  0.6153
  178SOPE   H4S20268   5.043   3.730  10.036 -0.3973  0.0309 -1.1587
  178SOPE   C2520269   5.053   3.841   9.842  0.0878  0.1298 -0.4578
  178SOPE   H5R20270   4.996   3.931   9.874  0.6041  0.3035 -0.0119
  178SOPE   H5S20271   5.144   3.870   9.785 -0.2240 -0.8023 -1.4688
  178SOPE   C2620272   4.964   3.749   9.761 -0.2133 -0.6625 -0.0689
  178SOPE   H6R20273   5.025   3.666   9.719  0.9673  1.0830 -1.9867
  178SOPE   H6S20274   4.879   3.714   9.823 -1.9164 -1.2928 -2.5667
  178SOPE   C2720275   4.892   3.817   9.636 -0.3025 -0.2405 -0.5025
  178SOPE   H7R20276   4.855   3.911   9.682 -2.2451 -1.2939  0.2151
  178SOPE   H7S20277   4.975   3.848   9.570  0.3243 -0.3057  0.2481
  178SOPE   C2820278   4.786   3.721   9.564 -0.4782  0.5061 -0.8766
  178SOPE   H8R20279   4.827   3.618   9.567 -0.6660  0.4385  1.1845
  178SOPE   H8S20280   4.690   3.722   9.620  0.0830  0.7396  0.1047
  178SOPE   C2920281   4.786   3.779   9.422  0.2453 -0.2628 -0.4835
  178SOPE   H9120282   4.710   3.856   9.404  0.1242 -0.5050 -1.0004
  178SOPE  C21020283   4.870   3.751   9.318 -0.4020  0.1109  0.0360
  178SOPE  H10120284   4.858   3.809   9.225 -1.3169  0.9602  0.6637
  178SOPE  C21120285   4.989   3.668   9.321 -0.2405 -0.3915  0.5650
  178SOPE  H11R20286   4.980   3.591   9.401 -0.9866 -0.3108  0.5656
  178SOPE  H11S20287   5.069   3.739   9.350  0.5223 -1.7271  1.8328
  178SOPE  C21220288   5.010   3.594   9.191  0.3966  0.1702 -0.6902
  178SOPE  H12R20289   5.114   3.557   9.203 -0.8537 -2.8489  2.7683
  178SOPE  H12S20290   5.014   3.668   9.108  0.1115  2.0615  0.9062
  178SOPE  C21320291   4.930   3.463   9.172  0.1960 -0.0417  0.0334
  178SOPE  H13R20292   4.824   3.476   9.144 -0.7911 -2.2727  2.3993
  178SOPE  H13S20293   4.916   3.410   9.268 -0.1148 -2.0517 -1.0806
  178SOPE  C21420294   4.999   3.360   9.073  0.2382  1.0357  0.4950
  178SOPE  H14R20295   4.927   3.276   9.086 -1.0462  2.1581  0.8225
  178SOPE  H14S20296   5.093   3.324   9.120  0.9601  0.3023 -1.3785
  178SOPE  C21520297   5.020   3.402   8.926 -0.3819 -0.1214  0.7701
  178SOPE  H15R20298   5.075   3.498   8.928 -0.8904  0.1611  1.5235
  178SOPE  H15S20299   4.922   3.431   8.884 -2.2630 -2.2971  3.2828
  178SOPE  C21620300   5.093   3.303   8.839  0.2560  0.0070  0.0819
  178SOPE  H16R20301   5.149   3.226   8.898 -2.2639 -0.8924  1.4488
  178SOPE  H16S20302   5.173   3.345   8.774  1.3356 -2.9861 -0.6766
  178SOPE  C21720303   4.990   3.223   8.753  0.1639 -0.5793  0.0998
  178SOPE  H17R20304   4.911   3.189   8.824 -0.4305  1.5439  0.5264
  178SOPE  H17S20305   5.046   3.132   8.724  1.2932 -0.4186  1.6198
  178SOPE  C21820306   4.939   3.303   8.640  0.0096 -0.1868 -0.0235
  178SOPE  H18R20307   5.024   3.324   8.571 -0.8856  1.9179 -0.5727
  178SOPE  H18S20308   4.897   3.402   8.670 -1.9035 -0.6352 -1.0829
  178SOPE  H18T20309   4.850   3.265   8.585 -1.7856  0.3879  2.3339
  178SOPE   C3320310   4.514   3.895   9.892 -0.5558 -0.7177  0.2348
  178SOPE   H3X20311   4.432   3.924   9.961  1.3047  1.0833  1.8236
  178SOPE   H3Y20312   4.471   3.809   9.836  1.5681 -2.1515  0.6635
  178SOPE   C3420313   4.545   3.992   9.778 -0.0330  0.2460  0.4166
  178SOPE   H4X20314   4.639   3.951   9.736 -0.2901  1.8252 -1.9272
  178SOPE   H4Y20315   4.580   4.092   9.813  2.2168 -0.1742 -0.4521
  178SOPE   C3520316   4.437   3.995   9.667 -0.3276 -0.4748  0.5635
  178SOPE   H5X20317   4.338   4.039   9.688 -0.8438 -1.7202  0.7875
  178SOPE   H5Y20318   4.408   3.891   9.641 -1.5956  0.6216 -2.9685
  178SOPE   C3620319   4.492   4.060   9.542  0.2191  1.5330 -0.1809
  178SOPE   H6X20320   4.592   4.021   9.515  1.1065  3.0243  0.8153
  178SOPE   H6Y20321   4.500   4.167   9.569  0.1935  1.8721 -1.4676
  178SOPE   C3720322   4.387   4.043   9.428 -0.4386 -0.5367  0.3938
  178SOPE   H7X20323   4.289   4.074   9.471  0.1781 -0.2980  1.6576
  178SOPE   H7Y20324   4.369   3.934   9.411  1.8909 -0.4955 -3.1803
  178SOPE   C3820325   4.426   4.103   9.288  0.0038  0.1147  0.1419
  178SOPE   H8X20326   4.516   4.048   9.253 -0.7118 -1.1082  0.1805
  178SOPE   H8Y20327   4.461   4.208   9.301  0.9424  0.0732 -1.7602
  178SOPE   C3920328   4.332   4.081   9.166  1.0463  0.7661 -0.0061
  178SOPE   H9X20329   4.236   4.133   9.187 -0.8210 -2.2899 -0.3005
  178SOPE   H9Y20330   4.308   3.973   9.162 -1.6689  1.3392 -2.1232
  178SOPE  C31020331   4.377   4.138   9.032 -0.2399  0.5401 -0.2550
  178SOPE  H10X20332   4.471   4.086   9.003  0.3597  1.3467  0.2091
  178SOPE  H10Y20333   4.391   4.248   9.042 -0.1201  0.4920  0.1315
  178SOPE  C31120334   4.275   4.131   8.921  0.8424 -0.2801  0.3442
  178SOPE  H11X20335   4.190   4.065   8.948 -0.4401  0.6335 -1.3112
  178SOPE  H11Y20336   4.324   4.084   8.833  0.4457 -1.3100  0.6622
  178SOPE  C31220337   4.211   4.263   8.879  0.4360 -0.0156  0.5814
  178SOPE  H12X20338   4.291   4.334   8.848  0.4549 -0.7872 -1.2489
  178SOPE  H12Y20339   4.165   4.308   8.970  0.0942 -0.1147  0.4596
  178SOPE  C31320340   4.105   4.243   8.767  0.1834 -0.3745  0.7281
  178SOPE  H13X20341   4.146   4.165   8.700  1.8035 -1.0108  2.3513
  178SOPE  H13Y20342   4.091   4.340   8.715  0.3274 -0.5904  0.2825
  178SOPE  C31420343   3.975   4.203   8.823  0.7088  0.3987  0.0752
  178SOPE  H14X20344   3.954   4.262   8.915 -1.5207  0.5120 -0.4423
  178SOPE  H14Y20345   3.993   4.096   8.847 -1.5808 -0.8738 -3.2251
  178SOPE  C31520346   3.851   4.209   8.737  0.4602 -0.2249 -0.4646
  178SOPE  H15X20347   3.827   4.309   8.697  0.6676 -0.9551 -2.5474
  178SOPE  H15Y20348   3.763   4.182   8.799 -0.1551  0.4046 -1.0562
  178SOPE  C31620349   3.848   4.104   8.613 -0.3422  0.5873 -0.0767
  178SOPE  H16X20350   3.954   4.074   8.595  0.2685  1.9371  1.0660
  178SOPE  H16Y20351   3.816   4.157   8.520 -1.8961  1.5266  0.9495
  178SOPE  C31720352   3.742   3.988   8.637 -0.3126  0.6327 -1.0109
  178SOPE  H17X20353   3.647   4.032   8.676 -0.0948  0.8071 -0.6787
  178SOPE  H17Y20354   3.788   3.933   8.721  1.6319  1.8366 -1.2303
  178SOPE  C31820355   3.705   3.888   8.522 -0.4887 -0.2670  0.5884
  178SOPE  H18X20356   3.670   3.941   8.431 -0.4787 -2.9078 -1.0719
  178SOPE  H18Y20357   3.629   3.816   8.561 -0.4870 -0.5012  0.1641
  178SOPE  H18Z20358   3.796   3.827   8.502 -2.8757 -3.2713 -2.3692
  179SOPE     N20359   5.351   4.541   6.685  0.0496  0.4349 -1.0162
  179SOPE   HN120360   5.273   4.504   6.627  0.9130  2.2370 -3.5082
  179SOPE   HN220361   5.318   4.637   6.708 -0.0900  0.0369  0.5500
  179SOPE   HN320362   5.442   4.541   6.633  0.3560 -0.6018 -0.5103
  179SOPE   C1220363   5.365   4.474   6.821 -0.1373  0.4593 -0.3379
  179SOPE  H12A20364   5.266   4.467   6.873  0.6084  0.5791  1.1586
  179SOPE  H12B20365   5.425   4.545   6.883 -1.9492  1.6377  0.1761
  179SOPE   C1120366   5.420   4.332   6.807 -0.4817  0.1636  1.0170
  179SOPE  H11A20367   5.355   4.268   6.744  2.2810 -0.8656 -1.0018
  179SOPE  H11B20368   5.421   4.278   6.904  1.5939 -1.0465  0.3741
  179SOPE     P20369   5.640   4.207   6.716  0.0739 -0.2428 -0.1171
  179SOPE   O1320370   5.779   4.259   6.708  0.1063 -0.1224  0.8841
  179SOPE   O1420371   5.585   4.148   6.594  0.2081  0.4348 -0.2648
  179SOPE   O1220372   5.553   4.334   6.755  0.3493  0.4900 -0.1982
  179SOPE   O1120373   5.628   4.111   6.834 -0.4465  0.2632  0.3883
  179SOPE    C120374   5.522   4.014   6.852 -0.0727  0.1218  0.9886
  179SOPE    HA20375   5.522   3.947   6.764 -1.2964  1.0001  0.2957
  179SOPE    HB20376   5.422   4.062   6.844 -0.5903 -0.8389  1.4360
  179SOPE    C220377   5.538   3.935   6.980  0.9623 -0.2417 -0.2613
  179SOPE    HS20378   5.596   3.845   6.954 -0.5179 -1.7887  1.4898
  179SOPE   O2120379   5.400   3.902   7.020 -0.1230 -0.4251 -0.2203
  179SOPE   C2120380   5.397   3.789   7.092 -0.4744 -0.1526  0.2045
  179SOPE   O2220381   5.495   3.733   7.129 -0.2677 -0.1531 -0.1160
  179SOPE   C2220382   5.256   3.749   7.127  0.7663 -0.1150 -1.1308
  179SOPE   H2R20383   5.210   3.673   7.061  0.4383 -0.2015 -0.8040
  179SOPE   H2S20384   5.195   3.842   7.128  0.0979 -0.5443 -1.3891
  179SOPE    C320385   5.607   4.022   7.093 -0.0161 -0.5819  0.0983
  179SOPE    HX20386   5.534   4.095   7.134  0.7940 -1.2417  2.9294
  179SOPE    HY20387   5.696   4.076   7.053  0.5838 -1.9298 -0.4320
  179SOPE   O3120388   5.641   3.938   7.206  0.1950 -0.2972  0.1591
  179SOPE   C3120389   5.753   3.866   7.185  0.2008  0.0013 -0.5821
  179SOPE   O3220390   5.824   3.860   7.089 -0.3590 -0.0697  0.1356
  179SOPE   C3220391   5.795   3.797   7.318 -0.0000  0.0011  1.0458
  179SOPE   H2X20392   5.899   3.763   7.301 -0.3097 -0.2835 -0.3809
  179SOPE   H2Y20393   5.720   3.716   7.334  1.1102 -1.1149  0.7066
  179SOPE   C2320394   5.258   3.692   7.273 -0.1590  0.1109 -0.4924
  179SOPE   H3R20395   5.315   3.597   7.284 -3.3270 -2.0441 -1.3524
  179SOPE   H3S20396   5.152   3.665   7.291 -0.9641  2.4292 -1.4014
  179SOPE   C2420397   5.293   3.794   7.386  0.4419  0.7522 -0.8450
  179SOPE   H4R20398   5.397   3.830   7.376  0.7936  0.0763  0.2825
  179SOPE   H4S20399   5.223   3.880   7.377 -0.1242  0.5406  1.1020
  179SOPE   C2520400   5.280   3.721   7.523 -0.6688  0.6017 -0.2193
  179SOPE   H5R20401   5.170   3.717   7.542 -0.9077 -1.0266 -1.7429
  179SOPE   H5S20402   5.319   3.617   7.520  0.0950  0.9044 -1.8257
  179SOPE   C2620403   5.339   3.803   7.635 -0.6655 -0.0210  0.2563
  179SOPE   H6R20404   5.447   3.823   7.618 -1.1261  0.2803 -2.9174
  179SOPE   H6S20405   5.291   3.900   7.660 -1.9391 -0.7836  0.9210
  179SOPE   C2720406   5.337   3.732   7.772  0.6440 -0.8727  0.6934
  179SOPE   H7R20407   5.231   3.705   7.795  0.4381 -0.7251 -0.0647
  179SOPE   H7S20408   5.392   3.636   7.762  2.8802  0.5096 -1.5402
  179SOPE   C2820409   5.414   3.803   7.879  0.0271  0.2642 -0.6855
  179SOPE   H8R20410   5.416   3.731   7.964 -4.2468 -0.6817 -1.1390
  179SOPE   H8S20411   5.521   3.821   7.858 -0.2933  3.1166 -0.3384
  179SOPE   C2920412   5.364   3.939   7.915  0.3822  0.3271 -0.1113
  179SOPE   H9120413   5.367   4.007   7.829  3.8031  0.1389 -0.2576
  179SOPE  C21020414   5.312   3.989   8.027 -0.5660 -0.3331  0.6601
  179SOPE  H10120415   5.278   4.094   8.029  1.6954  0.4646  0.0310
  179SOPE  C21120416   5.300   3.915   8.155  0.2484  0.4240 -0.2686
  179SOPE  H11R20417   5.334   3.809   8.145  0.2296  0.3484  0.3955
  179SOPE  H11S20418   5.197   3.902   8.196  0.3653 -0.0399 -0.1191
  179SOPE  C21220419   5.385   3.983   8.256 -0.0956  0.6602  0.0842
  179SOPE  H12R20420   5.486   4.002   8.213 -0.0632 -0.1403 -0.2101
  179SOPE  H12S20421   5.409   3.909   8.335 -0.0704  0.8723  0.2766
  179SOPE  C21320422   5.326   4.114   8.307  0.7270  0.3994 -0.5391
  179SOPE  H13R20423   5.220   4.093   8.336  1.4538 -4.1108 -0.4652
  179SOPE  H13S20424   5.322   4.191   8.226 -0.0424 -1.1753 -2.0758
  179SOPE  C21420425   5.403   4.158   8.425 -0.2155 -0.1793  0.0412
  179SOPE  H14R20426   5.501   4.203   8.397 -0.8187  0.5879 -0.9346
  179SOPE  H14S20427   5.420   4.082   8.504  2.0534 -0.1652 -0.3792
  179SOPE  C21520428   5.333   4.278   8.507  0.1934  0.2699  0.6960
  179SOPE  H15R20429   5.225   4.253   8.512 -0.9581  3.5115 -3.0258
  179SOPE  H15S20430   5.325   4.363   8.435 -0.7411 -0.7118 -0.3794
  179SOPE  C21620431   5.396   4.307   8.644  0.4239  0.0868  0.9083
  179SOPE  H16R20432   5.435   4.206   8.672  0.6417 -0.1328 -0.1737
  179SOPE  H16S20433   5.313   4.332   8.714 -0.1436  1.8898 -0.3411
  179SOPE  C21720434   5.500   4.421   8.658 -0.2794  0.2127 -0.4889
  179SOPE  H17R20435   5.582   4.373   8.601 -1.0855  0.2235 -1.6841
  179SOPE  H17S20436   5.536   4.424   8.763 -3.2423  1.9537  0.5942
  179SOPE  C21820437   5.469   4.558   8.612  0.6187 -0.5188  0.2732
  179SOPE  H18R20438   5.408   4.616   8.685  1.4583  0.7894 -0.0274
  179SOPE  H18S20439   5.422   4.564   8.512 -2.6289 -0.6584  1.6528
  179SOPE  H18T20440   5.560   4.621   8.599 -0.9958  2.6183  2.6066
  179SOPE   C3320441   5.786   3.898   7.439  0.7644 -0.1435  0.1514
  179SOPE   H3X20442   5.757   3.835   7.526  0.6931  0.1750  0.3605
  179SOPE   H3Y20443   5.696   3.962   7.424  1.0261  0.0137 -0.7960
  179SOPE   C3420444   5.911   3.976   7.453  0.0529 -0.3606  0.2940
  179SOPE   H4X20445   5.935   4.028   7.358  0.6617  0.4783  0.8880
  179SOPE   H4Y20446   5.983   3.899   7.488 -2.7680 -2.3916  2.1677
  179SOPE   C3520447   5.917   4.090   7.557 -0.2299 -0.3284  0.5916
  179SOPE   H5X20448   5.855   4.174   7.519  0.7891  0.5216  0.7687
  179SOPE   H5Y20449   6.020   4.131   7.547  0.2645 -1.7747 -0.5554
  179SOPE   C3620450   5.869   4.051   7.693  0.5996  0.6511 -0.1501
  179SOPE   H6X20451   5.913   3.952   7.716  2.4166  0.8908 -2.2555
  179SOPE   H6Y20452   5.761   4.040   7.716  0.2451  1.7241 -1.2308
  179SOPE   C3720453   5.921   4.140   7.804 -0.0009 -0.3134 -0.0450
  179SOPE   H7X20454   5.909   4.247   7.774  2.0637 -0.0230 -0.0205
  179SOPE   H7Y20455   6.031   4.135   7.817 -0.3151 -1.3111  3.2962
  179SOPE   C3820456   5.859   4.114   7.940 -1.0550  0.0736 -0.7420
  179SOPE   H8X20457   5.750   4.130   7.934 -1.0490 -0.0088 -1.0986
  179SOPE   H8Y20458   5.887   4.199   8.006 -1.1652 -0.1878 -0.3550
  179SOPE   C3920459   5.886   3.977   8.002 -0.0849 -0.1727 -0.3463
  179SOPE   H9X20460   5.996   3.966   8.002 -0.1389 -0.7783 -0.6844
  179SOPE   H9Y20461   5.849   3.903   7.928 -0.7423  1.0591 -1.2885
  179SOPE  C31020462   5.824   3.964   8.141  0.1157 -0.0099 -0.1662
  179SOPE  H10X20463   5.714   3.976   8.152 -0.2113 -4.2873  5.1277
  179SOPE  H10Y20464   5.877   4.029   8.213  1.3894 -1.0147 -0.1575
  179SOPE  C31120465   5.837   3.827   8.196  0.1582  0.3908 -0.1286
  179SOPE  H11X20466   5.826   3.831   8.307  2.3242  1.0529  0.1067
  179SOPE  H11Y20467   5.937   3.787   8.172  0.8328  1.0781  1.3772
  179SOPE  C31220468   5.732   3.728   8.134  0.2432 -0.1281 -1.2472
  179SOPE  H12X20469   5.735   3.733   8.023  0.2212 -3.0112 -1.4510
  179SOPE  H12Y20470   5.638   3.770   8.177  0.7360 -0.5876  0.3212
  179SOPE  C31320471   5.736   3.575   8.178 -0.3006 -0.3220  0.6090
  179SOPE  H13X20472   5.634   3.544   8.147 -0.8034 -0.7528  2.5438
  179SOPE  H13Y20473   5.747   3.577   8.289 -1.2186  0.1546  0.6918
  179SOPE  C31420474   5.848   3.498   8.106 -0.0121  0.2636  0.0774
  179SOPE  H14X20475   5.936   3.548   8.152  0.3301  0.3347 -0.6456
  179SOPE  H14Y20476   5.840   3.506   7.996  1.4569 -0.3916 -0.1063
  179SOPE  C31520477   5.859   3.346   8.134 -0.3895  0.1965  0.6864
  179SOPE  H15X20478   5.780   3.296   8.074 -0.8903  1.0571  0.6028
  179SOPE  H15Y20479   5.838   3.323   8.241  0.7620  1.9790  1.3381
  179SOPE  C31620480   6.003   3.296   8.115 -0.1517 -0.0012  0.8282
  179SOPE  H16X20481   6.083   3.373   8.116  0.7991 -0.9143 -1.0233
  179SOPE  H16Y20482   6.005   3.260   8.010  0.7189  1.6473  0.2543
  179SOPE  C31720483   6.048   3.184   8.201  0.4799 -0.0360 -0.0557
  179SOPE  H17X20484   5.979   3.097   8.196  0.2347  0.2085 -0.9681
  179SOPE  H17Y20485   6.033   3.225   8.303 -0.4041  1.0999 -0.6275
  179SOPE  C31820486   6.190   3.133   8.175  0.5490 -1.0563 -0.0245
  179SOPE  H18X20487   6.263   3.216   8.168 -1.3188  0.5552 -1.2341
  179SOPE  H18Y20488   6.194   3.085   8.075 -0.8260  2.0335 -1.6800
  179SOPE  H18Z20489   6.210   3.053   8.250 -2.2290 -0.8503  1.0439
  180SOPE     N20490   5.185   2.050   6.156  0.1211 -0.4261 -0.5698
  180SOPE   HN120491   5.140   1.993   6.230  0.9888 -1.7739 -1.0299
  180SOPE   HN220492   5.128   2.134   6.135 -0.6476 -0.4471  1.2940
  180SOPE   HN320493   5.175   1.986   6.074  2.0099  1.1454 -2.1412
  180SOPE   C1220494   5.327   2.070   6.196  0.1650 -0.5097  0.0962
  180SOPE  H12A20495   5.318   2.143   6.279 -0.8913  0.3290 -0.7247
  180SOPE  H12B20496   5.364   2.122   6.105 -0.6877 -0.5322 -0.2724
  180SOPE   C1120497   5.403   1.946   6.230  0.8093  0.5745 -0.6373
  180SOPE  H11A20498   5.492   1.999   6.272  1.2324  1.3300 -2.4114
  180SOPE  H11B20499   5.425   1.879   6.144 -3.0293  0.6093 -1.8053
  180SOPE     P20500   5.412   1.775   6.414 -0.0615  0.0297  0.0979
  180SOPE   O1320501   5.509   1.701   6.330 -0.4078 -0.1156  0.4665
  180SOPE   O1420502   5.334   1.689   6.508 -0.1636 -0.2043 -0.0698
  180SOPE   O1220503   5.318   1.863   6.316 -1.3461  0.1606 -0.0427
  180SOPE   O1120504   5.500   1.880   6.486  0.5384 -0.3549 -0.0132
  180SOPE    C120505   5.441   1.981   6.573 -0.8797  0.4553 -0.0255
  180SOPE    HA20506   5.330   1.971   6.570 -0.6877 -3.1787  0.2462
  180SOPE    HB20507   5.458   2.082   6.531  0.3839 -0.6791 -2.5124
  180SOPE    C220508   5.484   1.968   6.720 -0.8278 -0.0285 -0.1863
  180SOPE    HS20509   5.437   2.058   6.765  0.3056 -0.1367  1.2621
  180SOPE   O2120510   5.624   1.962   6.735 -0.0321 -0.0627 -0.9642
  180SOPE   C2120511   5.691   2.075   6.715 -0.0968 -0.0018 -0.6775
  180SOPE   O2220512   5.634   2.180   6.702 -0.4670 -0.2826 -0.0562
  180SOPE   C2220513   5.839   2.059   6.726 -0.7840 -0.2173  0.3946
  180SOPE   H2R20514   5.875   2.023   6.627  0.0423 -3.2632  1.6659
  180SOPE   H2S20515   5.863   1.976   6.795  1.5550 -0.1071 -0.2074
  180SOPE    C320516   5.431   1.842   6.802 -0.3593 -0.3715 -0.3373
  180SOPE    HX20517   5.459   1.753   6.740  2.1026 -0.6637  1.0867
  180SOPE    HY20518   5.320   1.840   6.800 -0.3502 -0.6951 -0.7900
  180SOPE   O3120519   5.493   1.828   6.935  0.0399  0.0198 -0.0785
  180SOPE   C3120520   5.432   1.893   7.029 -0.0285  0.2189 -1.0276
  180SOPE   O3220521   5.330   1.960   7.014 -0.4456 -0.1554 -0.2098
  180SOPE   C3220522   5.522   1.887   7.156  0.7349  0.2890 -0.1258
  180SOPE   H2X20523   5.626   1.913   7.131  0.4207  1.6909 -0.0432
  180SOPE   H2Y20524   5.510   1.777   7.173 -1.8944  0.2940 -1.3728
  180SOPE   C2320525   5.906   2.191   6.767 -0.0165 -0.1452  0.0128
  180SOPE   H3R20526   5.869   2.217   6.868  0.2237  0.0720  0.0459
  180SOPE   H3S20527   5.874   2.277   6.705 -2.5173  0.2147  1.6412
  180SOPE   C2420528   6.061   2.203   6.762  0.2389  0.5366  0.1961
  180SOPE   H4R20529   6.094   2.238   6.662 -2.9152  1.4676 -0.6483
  180SOPE   H4S20530   6.086   2.286   6.831  1.1766  0.5993 -0.2078
  180SOPE   C2520531   6.125   2.077   6.808  0.1818 -0.4293 -0.3962
  180SOPE   H5R20532   6.077   1.988   6.762 -0.3681 -0.7365  0.7222
  180SOPE   H5S20533   6.233   2.084   6.785  0.0355  2.1640 -0.6182
  180SOPE   C2620534   6.112   2.048   6.961  0.1710  0.2414  0.1857
  180SOPE   H6R20535   6.122   2.139   7.024 -0.6512 -0.6194  1.6217
  180SOPE   H6S20536   6.006   2.016   6.973  0.0841 -0.0514 -1.1983
  180SOPE   C2720537   6.200   1.935   7.002 -0.4319 -0.8834 -0.1682
  180SOPE   H7R20538   6.165   1.849   6.942 -0.7313 -1.5553  0.9267
  180SOPE   H7S20539   6.308   1.958   6.989 -0.8811  1.6476  0.0376
  180SOPE   C2820540   6.161   1.906   7.147 -0.2024  0.3992  0.4789
  180SOPE   H8R20541   6.190   1.989   7.215  2.3566 -0.4869  0.5672
  180SOPE   H8S20542   6.051   1.889   7.152 -0.8156  3.5083  0.0275
  180SOPE   C2920543   6.249   1.792   7.182  0.0140  0.1778 -0.2041
  180SOPE   H9120544   6.356   1.817   7.179  0.6042 -2.2709 -1.8797
  180SOPE  C21020545   6.218   1.681   7.245  0.5855  0.4263  0.2292
  180SOPE  H10120546   6.290   1.613   7.292  1.8753  2.4000  1.2426
  180SOPE  C21120547   6.076   1.653   7.289 -0.7658  0.1849 -0.1011
  180SOPE  H11R20548   6.006   1.639   7.204 -0.4501  1.3854 -0.5828
  180SOPE  H11S20549   6.026   1.734   7.347  1.5246  1.9701 -0.5035
  180SOPE  C21220550   6.063   1.527   7.381  0.6650  0.1477 -0.5541
  180SOPE  H12R20551   6.100   1.446   7.315 -0.6789  0.1151 -1.2984
  180SOPE  H12S20552   5.955   1.509   7.399  0.8937 -1.6451 -0.8521
  180SOPE  C21320553   6.120   1.530   7.522 -0.0012  0.0960  0.1187
  180SOPE  H13R20554   6.230   1.546   7.521  0.4920 -2.4596  2.6178
  180SOPE  H13S20555   6.123   1.430   7.569 -0.0410 -0.2653 -0.6481
  180SOPE  C21420556   6.034   1.619   7.611  0.3183  0.3799 -0.1061
  180SOPE  H14R20557   5.926   1.597   7.602  0.1602  1.8997 -2.9170
  180SOPE  H14S20558   6.057   1.726   7.595 -2.5779  1.4154  1.9127
  180SOPE  C21520559   6.062   1.591   7.767  0.9539 -0.0488  1.0947
  180SOPE  H15R20560   6.173   1.593   7.773  1.2076  0.2330 -1.9276
  180SOPE  H15S20561   6.030   1.486   7.783  0.2626  0.1934  1.3334
  180SOPE  C21620562   5.994   1.703   7.850 -0.2130  0.8317 -0.8043
  180SOPE  H16R20563   5.893   1.710   7.805 -0.6049 -0.3348 -0.1521
  180SOPE  H16S20564   6.047   1.801   7.854 -2.0472  1.8091  1.4757
  180SOPE  C21720565   5.974   1.663   7.991 -0.0546  0.3319  0.1996
  180SOPE  H17R20566   5.927   1.562   7.987  1.3778 -0.4116  1.1099
  180SOPE  H17S20567   5.901   1.730   8.041 -1.5270  0.1927 -1.6844
  180SOPE  C21820568   6.102   1.653   8.076  0.5579  0.9563  0.0577
  180SOPE  H18R20569   6.171   1.734   8.048  0.6044  0.6109 -0.8593
  180SOPE  H18S20570   6.135   1.549   8.053 -2.9345 -0.1679 -0.6388
  180SOPE  H18T20571   6.071   1.661   8.182 -1.0110 -1.5173 -0.1152
  180SOPE   C3320572   5.474   1.978   7.273  0.1027  0.5859  0.0557
  180SOPE   H3X20573   5.370   1.955   7.305 -0.4937  2.1922 -0.6375
  180SOPE   H3Y20574   5.461   2.084   7.242  0.9659  0.6708 -0.0615
  180SOPE   C3420575   5.570   1.973   7.394  0.0537  0.5760 -0.7014
  180SOPE   H4X20576   5.541   2.061   7.457 -0.6610  0.5073 -0.9188
  180SOPE   H4Y20577   5.676   1.994   7.370  0.4069  1.4884  1.4203
  180SOPE   C3520578   5.551   1.833   7.460 -0.3386 -0.8634 -0.0746
  180SOPE   H5X20579   5.579   1.753   7.389  1.0320  0.3403 -0.9508
  180SOPE   H5Y20580   5.443   1.814   7.477 -0.4083  0.4533  1.1402
  180SOPE   C3620581   5.629   1.816   7.585 -0.1662 -0.3558 -0.0275
  180SOPE   H6X20582   5.717   1.884   7.593 -1.8654  1.7857  1.8723
  180SOPE   H6Y20583   5.659   1.712   7.609  1.8501 -0.2662 -1.7974
  180SOPE   C3720584   5.546   1.886   7.699 -0.1817  0.2985  0.4350
  180SOPE   H7X20585   5.482   1.810   7.748  1.9918 -1.1343  1.2143
  180SOPE   H7Y20586   5.484   1.963   7.648 -1.0822 -2.5493 -3.1993
  180SOPE   C3820587   5.643   1.948   7.803 -0.0096 -0.0460 -1.0584
  180SOPE   H8X20588   5.688   2.041   7.762 -0.4258  0.3156 -0.6958
  180SOPE   H8Y20589   5.723   1.876   7.833 -0.1807 -0.0071 -0.4983
  180SOPE   C3920590   5.583   2.003   7.932  0.4214  0.1567  0.3553
  180SOPE   H9X20591   5.562   1.908   7.987  0.6988 -0.4916 -0.6273
  180SOPE   H9Y20592   5.489   2.059   7.913 -0.1516 -0.4626  1.3032
  180SOPE  C31020593   5.670   2.101   8.004 -1.0907  0.2481  0.0014
  180SOPE  H10X20594   5.620   2.128   8.100 -1.0009 -0.4287  0.2428
  180SOPE  H10Y20595   5.685   2.195   7.946 -2.1478 -0.6287 -1.7955
  180SOPE  C31120596   5.811   2.043   8.047  0.4404 -0.0588 -0.0102
  180SOPE  H11X20597   5.869   2.029   7.953 -0.3805  1.2911 -0.7477
  180SOPE  H11Y20598   5.808   1.940   8.089  0.7086 -1.2231 -2.6039
  180SOPE  C31220599   5.878   2.137   8.133  0.1313  0.1836  0.6823
  180SOPE  H12X20600   5.812   2.186   8.208  0.6542  1.3942  0.3765
  180SOPE  H12Y20601   5.919   2.217   8.067 -0.3376 -0.0897  0.0541
  180SOPE  C31320602   5.988   2.066   8.213  0.4902  1.1778  0.2477
  180SOPE  H13X20603   6.075   2.131   8.233  1.6713  0.0442 -0.9742
  180SOPE  H13Y20604   6.034   1.981   8.158 -0.2924 -1.9011  3.9275
  180SOPE  C31420605   5.939   2.016   8.346 -0.3360  0.8777  0.5212
  180SOPE  H14X20606   5.840   1.969   8.327 -0.7618  1.4949  1.1346
  180SOPE  H14Y20607   5.934   2.091   8.428  1.8129 -0.3204  1.8175
  180SOPE  C31520608   6.043   1.917   8.401 -0.4698 -0.5507  0.5462
  180SOPE  H15X20609   6.127   1.984   8.429 -1.0230 -0.1957  1.3951
  180SOPE  H15Y20610   6.083   1.846   8.326  0.9621 -1.4791  2.1288
  180SOPE  C31620611   5.991   1.864   8.537 -0.3673  0.4050 -0.1017
  180SOPE  H16X20612   5.888   1.829   8.515 -1.1325  2.3376  0.2396
  180SOPE  H16Y20613   5.983   1.951   8.605  0.2184  0.4036 -0.0270
  180SOPE  C31720614   6.070   1.752   8.603 -0.4143  0.7357 -0.0143
  180SOPE  H17X20615   6.167   1.794   8.638  0.5746 -2.5223  1.5452
  180SOPE  H17Y20616   6.088   1.671   8.529 -0.8307  1.1729 -0.6068
  180SOPE  C31820617   5.999   1.698   8.727 -1.0566 -0.1136  0.9232
  180SOPE  H18X20618   5.989   1.777   8.804  1.0145 -1.3605  2.6037
  180SOPE  H18Y20619   6.055   1.612   8.770  1.5986  1.1689  0.2898
  180SOPE  H18Z20620   5.900   1.659   8.694 -0.0012 -0.0693 -2.8361
  181SOPE     N20621   5.188   6.271   6.129 -0.7935  0.1426 -0.0076
  181SOPE   HN120622   5.254   6.245   6.053  1.1679 -2.4818  2.3646
  181SOPE   HN220623   5.249   6.314   6.202  0.1711 -0.5426 -0.3891
  181SOPE   HN320624   5.151   6.183   6.171 -1.0763  0.9619  1.5338
  181SOPE   C1220625   5.071   6.353   6.077 -0.0985  0.0919 -0.3259
  181SOPE  H12A20626   5.031   6.309   5.983  0.0823 -2.1538  0.5945
  181SOPE  H12B20627   5.112   6.452   6.048  2.2423 -1.1636 -1.6203
  181SOPE   C1120628   4.974   6.354   6.189  0.5410  0.2568 -1.0302
  181SOPE  H11A20629   4.877   6.398   6.157 -0.9479 -1.4792  0.8673
  181SOPE  H11B20630   5.002   6.414   6.278  0.1723 -1.2853  0.1496
  181SOPE     P20631   4.844   6.193   6.369 -0.4440 -0.0958 -0.2014
  181SOPE   O1320632   4.890   6.067   6.421  0.2417  0.3895  0.5751
  181SOPE   O1420633   4.697   6.206   6.343  0.0464  0.0696 -0.4719
  181SOPE   O1220634   4.938   6.226   6.241  0.1556  0.2210 -0.2889
  181SOPE   O1120635   4.895   6.305   6.464  0.0104 -0.6595  0.1485
  181SOPE    C120636   5.029   6.305   6.517  0.4700 -0.4359  0.2848
  181SOPE    HA20637   5.087   6.386   6.468 -1.1313 -0.6178 -2.0694
  181SOPE    HB20638   5.084   6.210   6.500 -0.1472 -0.8875  0.7354
  181SOPE    C220639   5.041   6.339   6.668  0.0952  0.3109 -0.3121
  181SOPE    HS20640   5.141   6.312   6.708 -0.7643 -1.4848  0.7225
  181SOPE   O2120641   4.948   6.273   6.744 -0.1133  0.1442 -0.1688
  181SOPE   C2120642   4.957   6.142   6.742 -0.0715  0.1575 -0.3913
  181SOPE   O2220643   5.055   6.076   6.704 -0.0356 -0.1565  0.1587
  181SOPE   C2220644   4.836   6.078   6.813 -0.3951 -0.2815 -0.1570
  181SOPE   H2R20645   4.846   5.969   6.795  1.6614  0.2124 -2.5502
  181SOPE   H2S20646   4.751   6.113   6.751 -1.3344 -0.4937  0.9664
  181SOPE    C320647   5.015   6.491   6.684 -0.0479 -0.1637 -0.4284
  181SOPE    HX20648   4.911   6.497   6.645 -0.9397 -4.3630  0.8152
  181SOPE    HY20649   5.071   6.551   6.609  0.3967 -0.1256 -0.0687
  181SOPE   O3120650   5.029   6.541   6.822  0.4089 -0.6509 -0.3340
  181SOPE   C3120651   5.154   6.558   6.868 -0.5294  0.0436 -0.7793
  181SOPE   O3220652   5.251   6.529   6.797 -0.0363  0.2043 -0.2945
  181SOPE   C3220653   5.160   6.626   7.005  0.2500 -0.1655 -0.4019
  181SOPE   H2X20654   5.071   6.692   7.003 -1.1171 -1.9097  0.6183
  181SOPE   H2Y20655   5.254   6.685   7.017  0.6037 -0.7967 -0.0325
  181SOPE   C2320656   4.833   6.120   6.963  0.5058 -0.1802  0.1717
  181SOPE   H3R20657   4.732   6.091   7.001  1.0174 -3.0185 -0.4517
  181SOPE   H3S20658   4.838   6.231   6.970 -1.7680 -0.0729  0.8984
  181SOPE   C2420659   4.945   6.063   7.059  0.0050 -0.6647  0.3837
  181SOPE   H4R20660   4.927   5.954   7.070  0.2260 -0.6809  0.6016
  181SOPE   H4S20661   5.042   6.061   7.005  0.0194 -2.7632  0.4125
  181SOPE   C2520662   4.927   6.126   7.200 -0.1112 -0.4254 -0.0597
  181SOPE   H5R20663   4.988   6.219   7.204  1.8342 -1.6846  1.1762
  181SOPE   H5S20664   4.823   6.163   7.208  0.0454  0.1096 -0.3902
  181SOPE   C2620665   4.971   6.025   7.314 -0.7647 -0.1533 -0.0182
  181SOPE   H6R20666   5.060   5.974   7.273 -1.1442 -0.6979 -0.1755
  181SOPE   H6S20667   5.008   6.079   7.404 -0.2373 -0.4794 -0.0359
  181SOPE   C2720668   4.867   5.920   7.347  0.0651  0.0939 -0.4914
  181SOPE   H7R20669   4.820   5.868   7.261  1.3046 -2.0401  0.0360
  181SOPE   H7S20670   4.921   5.842   7.405 -1.3326  0.7986  1.9170
  181SOPE   C2820671   4.764   5.980   7.449 -0.4785 -1.0090 -0.4831
  181SOPE   H8R20672   4.827   6.032   7.523  0.6595 -1.3401 -1.1897
  181SOPE   H8S20673   4.717   6.067   7.398 -0.2686 -0.5617  0.0762
  181SOPE   C2920674   4.668   5.893   7.510  1.1511  0.3663  0.2871
  181SOPE   H9120675   4.575   5.885   7.451  0.7224 -1.0780  1.0828
  181SOPE  C21020676   4.682   5.823   7.623  0.0946 -0.5698  1.2321
  181SOPE  H10120677   4.621   5.737   7.655  0.2862 -2.2229 -2.3247
  181SOPE  C21120678   4.805   5.831   7.719 -0.1243 -0.5291  0.4289
  181SOPE  H11R20679   4.893   5.877   7.668 -1.7761  2.3743 -0.0416
  181SOPE  H11S20680   4.844   5.728   7.734  1.4612  0.0665  0.6726
  181SOPE  C21220681   4.776   5.897   7.850  0.1355 -0.1808  0.1099
  181SOPE  H12R20682   4.718   5.989   7.832  1.7142  0.6951 -0.6811
  181SOPE  H12S20683   4.867   5.932   7.902 -1.8301  1.5791  2.5916
  181SOPE  C21320684   4.683   5.801   7.934 -0.4475  0.0403  0.0102
  181SOPE  H13R20685   4.732   5.702   7.943 -0.3404  0.2302  1.8473
  181SOPE  H13S20686   4.580   5.787   7.894 -0.0241  1.6305 -1.7834
  181SOPE  C21420687   4.660   5.863   8.074  0.2256 -0.6362 -0.2065
  181SOPE  H14R20688   4.558   5.908   8.082  1.0413  1.0052  1.6429
  181SOPE  H14S20689   4.730   5.948   8.082 -0.6754  0.1489 -0.4224
  181SOPE  C21520690   4.677   5.762   8.191  0.6096 -0.6815 -0.4394
  181SOPE  H15R20691   4.680   5.813   8.290  1.1624 -0.1049 -0.7481
  181SOPE  H15S20692   4.776   5.712   8.192  1.0292  0.1189 -1.4287
  181SOPE  C21620693   4.577   5.651   8.180 -0.5381 -0.0098  0.1082
  181SOPE  H16R20694   4.604   5.581   8.098 -0.8891  2.0034 -1.8369
  181SOPE  H16S20695   4.477   5.696   8.161 -0.2254  1.3073  1.4402
  181SOPE  C21720696   4.561   5.568   8.307 -0.7814  0.2561 -0.5724
  181SOPE  H17R20697   4.542   5.641   8.388 -1.4164  1.2977 -1.6325
  181SOPE  H17S20698   4.658   5.518   8.325 -0.9602  0.2824  0.5464
  181SOPE  C21820699   4.450   5.468   8.302 -0.4235 -0.3494  0.0330
  181SOPE  H18R20700   4.359   5.526   8.278 -1.2653 -2.4061 -2.1386
  181SOPE  H18S20701   4.442   5.429   8.405 -3.3596 -1.1971 -0.4209
  181SOPE  H18T20702   4.461   5.387   8.226  2.4490  1.6923 -1.9560
  181SOPE   C3320703   5.154   6.545   7.137  0.2028 -0.6704 -0.2193
  181SOPE   H3X20704   5.243   6.480   7.150  0.0424 -0.8694 -0.1054
  181SOPE   H3Y20705   5.065   6.478   7.135 -1.5241  1.5202 -0.9670
  181SOPE   C3420706   5.152   6.633   7.270  0.0639 -0.2201  0.3211
  181SOPE   H4X20707   5.052   6.682   7.275 -0.9585 -2.3380  2.6025
  181SOPE   H4Y20708   5.235   6.706   7.262 -0.4794  0.3374 -0.4494
  181SOPE   C3520709   5.169   6.545   7.395  0.4125  0.1555 -0.2837
  181SOPE   H5X20710   5.233   6.458   7.370 -0.5521 -0.3806 -0.9888
  181SOPE   H5Y20711   5.077   6.491   7.426  1.4328 -1.3957  0.1506
  181SOPE   C3620712   5.231   6.629   7.503  0.1853  0.7343  0.3861
  181SOPE   H6X20713   5.183   6.727   7.525 -0.5186  0.3185  0.7664
  181SOPE   H6Y20714   5.336   6.649   7.476  0.7254 -0.3776  1.5281
  181SOPE   C3720715   5.237   6.548   7.639  0.4514 -0.5534  0.5819
  181SOPE   H7X20716   5.299   6.456   7.632 -1.0878 -1.5579 -0.7421
  181SOPE   H7Y20717   5.133   6.515   7.662  0.5238  0.7942  3.3023
  181SOPE   C3820718   5.279   6.643   7.761 -1.0725 -0.4130  0.2415
  181SOPE   H8X20719   5.217   6.734   7.746 -1.0265 -0.3531  0.4045
  181SOPE   H8Y20720   5.389   6.660   7.757 -0.7595 -1.3081  2.7102
  181SOPE   C3920721   5.234   6.583   7.893  0.6673  0.2257  0.5213
  181SOPE   H9X20722   5.277   6.481   7.899  0.5453  0.1312 -0.1852
  181SOPE   H9Y20723   5.125   6.571   7.874  1.4172 -2.0711 -3.3507
  181SOPE  C31020724   5.243   6.677   8.013  0.5480 -0.5971 -0.4225
  181SOPE  H10X20725   5.267   6.780   7.978 -0.2413 -0.4776 -0.6103
  181SOPE  H10Y20726   5.337   6.658   8.071  1.1073  0.9096 -0.7721
  181SOPE  C31120727   5.124   6.687   8.111 -0.3530 -0.1461  0.0697
  181SOPE  H11X20728   5.038   6.729   8.053  0.5417  0.8850 -0.5442
  181SOPE  H11Y20729   5.141   6.766   8.187 -0.5133  1.3842 -1.4100
  181SOPE  C31220730   5.072   6.561   8.180 -0.3477  0.6598  0.3810
  181SOPE  H12X20731   5.160   6.505   8.218 -0.1774 -0.2350 -1.2409
  181SOPE  H12Y20732   5.019   6.505   8.100  0.9665  0.1851 -0.1817
  181SOPE  C31320733   4.965   6.595   8.286  0.6741  0.4275  0.0685
  181SOPE  H13X20734   4.891   6.655   8.229 -1.6316 -0.1987  2.2386
  181SOPE  H13Y20735   5.008   6.650   8.372 -2.1195  1.0159  1.1782
  181SOPE  C31420736   4.916   6.467   8.352  0.1834 -0.0716 -0.3092
  181SOPE  H14X20737   4.997   6.409   8.403 -1.1292 -2.4784 -0.8196
  181SOPE  H14Y20738   4.880   6.397   8.274  0.9418 -0.0707 -0.6730
  181SOPE  C31520739   4.810   6.494   8.464 -0.1450 -0.3835 -0.0462
  181SOPE  H15X20740   4.851   6.564   8.541 -1.2693  1.8064 -1.3298
  181SOPE  H15Y20741   4.783   6.391   8.494  0.5477 -0.4744  0.2799
  181SOPE  C31620742   4.695   6.572   8.407 -0.3872  0.1852  0.3281
  181SOPE  H16X20743   4.670   6.537   8.304 -0.0539  1.8625 -0.3564
  181SOPE  H16Y20744   4.729   6.677   8.399  4.5255 -1.0037  2.2676
  181SOPE  C31720745   4.564   6.573   8.478 -0.0554 -0.0164  0.1306
  181SOPE  H17X20746   4.522   6.472   8.461  0.5711 -0.3496  0.5147
  181SOPE  H17Y20747   4.493   6.652   8.444  0.0977 -0.1536 -0.5097
  181SOPE  C31820748   4.564   6.604   8.628 -0.0455 -0.1743 -0.3429
  181SOPE  H18X20749   4.580   6.712   8.648  1.7221 -0.5510  0.4331
  181SOPE  H18Y20750   4.640   6.552   8.690  1.3062  3.7106  1.6107
  181SOPE  H18Z20751   4.459   6.593   8.663 -0.9041  0.0614 -2.6952
  182SOPE     N20752   1.891   2.865   6.003 -0.9182 -1.0674 -0.4496
  182SOPE   HN120753   1.950   2.950   6.017  2.7210 -3.2704 -1.0335
  182SOPE   HN220754   1.937   2.777   6.033 -0.8845 -1.4818 -1.6842
  182SOPE   HN320755   1.879   2.846   5.902  2.1889 -1.4931 -0.8511
  182SOPE   C1220756   1.756   2.882   6.073  0.2762 -0.0492  0.3778
  182SOPE  H12A20757   1.784   2.904   6.178  0.1838 -4.1290  1.4415
  182SOPE  H12B20758   1.709   2.782   6.072 -4.3731  1.8984 -1.4403
  182SOPE   C1120759   1.666   2.984   5.996 -0.4297 -0.4366 -0.1972
  182SOPE  H11A20760   1.568   2.974   6.047 -0.9972  3.2954 -0.2738
  182SOPE  H11B20761   1.661   2.959   5.888 -2.7605  0.6131 -0.3809
  182SOPE     P20762   1.600   3.233   6.042 -0.5284 -0.0027  0.2903
  182SOPE   O1320763   1.472   3.199   5.979  0.3447 -0.7360  0.2600
  182SOPE   O1420764   1.662   3.361   6.011  0.2934 -0.1732  0.2327
  182SOPE   O1220765   1.707   3.121   6.007  0.2907  0.4427 -0.4004
  182SOPE   O1120766   1.588   3.211   6.200 -0.0058 -0.5418 -0.5980
  182SOPE    C120767   1.708   3.232   6.280  0.2791  0.5119 -1.2765
  182SOPE    HA20768   1.710   3.335   6.321  0.7994 -0.9932  2.8649
  182SOPE    HB20769   1.800   3.229   6.218 -0.1843  3.4406 -2.2773
  182SOPE    C220770   1.731   3.126   6.396  0.7376 -0.6179 -1.0532
  182SOPE    HS20771   1.736   3.023   6.355  0.0174 -1.3986  0.7111
  182SOPE   O2120772   1.617   3.144   6.483 -0.0783  0.7237 -0.5763
  182SOPE   C2120773   1.581   3.033   6.547 -0.5185  0.1071  0.7642
  182SOPE   O2220774   1.619   2.920   6.525 -0.1147  0.3118 -0.3612
  182SOPE   C2220775   1.492   3.076   6.659 -0.7839  0.2957 -0.1523
  182SOPE   H2R20776   1.386   3.060   6.629 -0.5045 -1.2069 -0.4549
  182SOPE   H2S20777   1.504   3.185   6.672  2.2951  0.0036  0.0756
  182SOPE    C320778   1.855   3.164   6.487  0.8209 -0.4817 -0.1955
  182SOPE    HX20779   1.826   3.262   6.529 -0.8264 -0.3414 -1.5909
  182SOPE    HY20780   1.944   3.181   6.422  1.5897 -1.8101  0.4511
  182SOPE   O3120781   1.878   3.074   6.597  0.5638 -0.5535  0.1520
  182SOPE   C3120782   1.992   3.089   6.654  0.0595  0.0429  0.0223
  182SOPE   O3220783   2.074   3.173   6.629  0.1444 -0.1015  0.0328
  182SOPE   C3220784   1.993   2.988   6.771 -0.7113 -0.2935 -0.7721
  182SOPE   H2X20785   2.080   2.920   6.755  0.9607  2.0636 -2.1765
  182SOPE   H2Y20786   1.902   2.924   6.771 -0.9131 -0.0219  0.1648
  182SOPE   C2320787   1.527   2.992   6.787 -0.6954 -0.1586  0.2203
  182SOPE   H3R20788   1.637   3.001   6.805 -0.2672 -1.1685 -1.5729
  182SOPE   H3S20789   1.501   2.885   6.772 -0.5423  0.1159 -2.6057
  182SOPE   C2420790   1.467   3.045   6.907  0.1031 -0.0993 -0.1488
  182SOPE   H4R20791   1.492   3.152   6.925  0.9415 -0.4589  0.9887
  182SOPE   H4S20792   1.357   3.058   6.900  0.2057  0.2956 -1.0892
  182SOPE   C2520793   1.500   2.952   7.030  0.3176 -0.6262 -0.3288
  182SOPE   H5R20794   1.449   2.855   7.012  3.0098 -2.0230 -0.9060
  182SOPE   H5S20795   1.608   2.926   7.037  0.1727 -1.5545 -1.3867
  182SOPE   C2620796   1.468   3.013   7.167 -0.4480 -0.0343 -0.6915
  182SOPE   H6R20797   1.511   3.115   7.175 -2.5767  0.7804  1.5443
  182SOPE   H6S20798   1.361   3.027   7.190  0.0478  2.2754  0.4622
  182SOPE   C2720799   1.519   2.923   7.289  0.6516  0.1342 -1.1963
  182SOPE   H7R20800   1.477   2.820   7.283 -0.0650  0.3674 -0.3102
  182SOPE   H7S20801   1.629   2.917   7.276  0.7225 -0.2679 -0.4567
  182SOPE   C2820802   1.479   2.978   7.424  0.3807 -0.2747  0.7898
  182SOPE   H8R20803   1.371   3.002   7.418  0.2396 -1.1698 -1.2342
  182SOPE   H8S20804   1.489   2.899   7.501  1.0352 -0.0662  0.9290
  182SOPE   C2920805   1.543   3.110   7.455 -0.1753  0.7379  1.0413
  182SOPE   H9120806   1.512   3.193   7.390 -0.4918  0.6756  1.1104
  182SOPE  C21020807   1.610   3.138   7.569 -0.2422  0.1308 -0.6818
  182SOPE  H10120808   1.652   3.239   7.583  3.1167 -1.0963 -0.8005
  182SOPE  C21120809   1.621   3.046   7.691 -0.0679  0.3071 -0.0540
  182SOPE  H11R20810   1.727   3.020   7.715  0.4769  1.6257 -0.8777
  182SOPE  H11S20811   1.563   2.954   7.671 -0.5441  0.7586 -0.8188
  182SOPE  C21220812   1.570   3.122   7.811 -0.2072  0.5331  0.0142
  182SOPE  H12R20813   1.463   3.144   7.788 -0.4876  1.2766  1.8971
  182SOPE  H12S20814   1.633   3.211   7.830  0.0923 -0.2363  3.0315
  182SOPE  C21320815   1.582   3.039   7.937  0.1065  0.1756 -0.5240
  182SOPE  H13R20816   1.690   3.021   7.951 -0.4313 -1.0766  2.6997
  182SOPE  H13S20817   1.522   2.950   7.911  2.0520 -0.8417 -1.7571
  182SOPE  C21420818   1.516   3.118   8.055 -0.3974  0.8156  0.3869
  182SOPE  H14R20819   1.421   3.161   8.015 -0.0505 -0.9276 -2.5892
  182SOPE  H14S20820   1.586   3.203   8.068 -0.8088  1.1829  0.2361
  182SOPE  C21520821   1.507   3.039   8.186 -0.6170  0.3889 -0.2483
  182SOPE  H15R20822   1.606   2.990   8.203 -0.5493  0.4517 -0.4656
  182SOPE  H15S20823   1.432   2.958   8.173  1.0181 -0.9776 -1.7844
  182SOPE  C21620824   1.469   3.132   8.300 -0.0521 -0.0161 -0.3603
  182SOPE  H16R20825   1.419   3.225   8.267 -1.3977  0.3620  2.4271
  182SOPE  H16S20826   1.560   3.176   8.346  0.3511  0.4025 -1.5431
  182SOPE  C21720827   1.358   3.070   8.390 -0.4815  0.1861 -0.5657
  182SOPE  H17R20828   1.381   2.965   8.418 -1.5489 -0.1065 -0.7303
  182SOPE  H17S20829   1.267   3.056   8.327 -0.4930  1.1864 -0.7918
  182SOPE  C21820830   1.316   3.150   8.521  0.6214  0.0336 -1.0227
  182SOPE  H18R20831   1.287   3.255   8.501 -2.7546 -0.7192 -0.8167
  182SOPE  H18S20832   1.389   3.139   8.604 -1.4298 -0.4816  0.8301
  182SOPE  H18T20833   1.221   3.111   8.563  0.9949  0.8490  0.6409
  182SOPE   C3320834   1.995   3.066   6.904  0.6210  0.1059 -1.1015
  182SOPE   H3X20835   1.902   3.124   6.920  0.2225 -0.6846 -0.4487
  182SOPE   H3Y20836   2.083   3.135   6.901  0.7301 -0.0197 -0.8013
  182SOPE   C3420837   2.003   2.962   7.018 -0.2278 -0.3431  0.0286
  182SOPE   H4X20838   2.103   2.915   7.006 -0.2901 -0.5491  0.3153
  182SOPE   H4Y20839   1.933   2.880   6.995  0.4198 -1.0178  0.4111
  182SOPE   C3520840   2.013   3.008   7.159  0.3181  0.1133 -0.3775
  182SOPE   H5X20841   1.921   3.065   7.180  0.0539 -0.5294  0.2590
  182SOPE   H5Y20842   2.105   3.068   7.175 -0.8298  2.1119 -0.9853
  182SOPE   C3620843   2.001   2.895   7.260 -0.0880 -0.4300 -0.1519
  182SOPE   H6X20844   2.093   2.833   7.249 -0.3949 -1.2187  1.3935
  182SOPE   H6Y20845   1.917   2.825   7.241 -0.4422  0.2621 -1.1782
  182SOPE   C3720846   1.993   2.949   7.403 -0.7340 -0.0716 -0.0218
  182SOPE   H7X20847   1.897   3.004   7.407 -1.3573 -1.0161 -1.3312
  182SOPE   H7Y20848   2.070   3.029   7.396  1.3385 -2.0543 -1.3310
  182SOPE   C3820849   2.033   2.847   7.516 -0.4463 -0.5158  0.0332
  182SOPE   H8X20850   2.138   2.811   7.504 -0.1858 -0.1129  1.0330
  182SOPE   H8Y20851   1.966   2.760   7.502 -0.9098 -0.0205 -0.9099
  182SOPE   C3920852   2.029   2.910   7.655  0.1293 -0.1121  0.2358
  182SOPE   H9X20853   1.930   2.959   7.663  0.7265  0.8618  2.2880
  182SOPE   H9Y20854   2.108   2.988   7.657 -0.3223  0.3829 -0.7761
  182SOPE  C31020855   2.061   2.809   7.757 -0.3516  0.2426 -0.8958
  182SOPE  H10X20856   2.114   2.727   7.705 -1.6405 -0.2458 -1.4798
  182SOPE  H10Y20857   1.969   2.758   7.793  0.2999 -0.7143 -0.5329
  182SOPE  C31120858   2.153   2.862   7.871 -0.7307  0.5728  0.1563
  182SOPE  H11X20859   2.115   2.951   7.925  0.3974  0.5926  0.9626
  182SOPE  H11Y20860   2.243   2.895   7.816 -1.4304  0.7527 -0.9167
  182SOPE  C31220861   2.202   2.757   7.973  0.1322  0.6328  0.1103
  182SOPE  H12X20862   2.272   2.811   8.039  1.8042  0.5993 -1.5530
  182SOPE  H12Y20863   2.245   2.677   7.908 -1.3320  1.5633 -2.1361
  182SOPE  C31320864   2.084   2.692   8.052 -0.2249  0.2167 -0.0776
  182SOPE  H13X20865   2.035   2.613   7.992  0.8409 -0.1938 -0.4360
  182SOPE  H13Y20866   2.008   2.763   8.090  0.3263  0.5814  0.3614
  182SOPE  C31420867   2.136   2.621   8.181  0.2407 -0.2810 -0.0982
  182SOPE  H14X20868   2.176   2.709   8.236 -1.9264  0.0367  1.0874
  182SOPE  H14Y20869   2.218   2.549   8.159  0.9363  0.7527 -0.9486
  182SOPE  C31520870   2.034   2.552   8.266 -0.0801  0.0112  0.8503
  182SOPE  H15X20871   1.982   2.482   8.198  0.1842  3.0825 -2.8681
  182SOPE  H15Y20872   1.949   2.620   8.290 -1.2564 -0.0924 -2.4917
  182SOPE  C31620873   2.094   2.468   8.380  0.0531  0.8531  0.4589
  182SOPE  H16X20874   2.165   2.403   8.323 -1.8718 -0.5927 -0.4348
  182SOPE  H16Y20875   2.014   2.404   8.421 -0.6208  1.4070  0.0320
  182SOPE  C31720876   2.154   2.539   8.499 -0.5027 -0.7982  0.1500
  182SOPE  H17X20877   2.143   2.475   8.589 -0.1764 -1.8536 -0.5542
  182SOPE  H17Y20878   2.092   2.628   8.523  0.7224  0.5035 -1.2627
  182SOPE  C31820879   2.298   2.593   8.474 -0.2761  0.5570  0.1280
  182SOPE  H18X20880   2.313   2.658   8.386  0.0397  0.6906  0.2772
  182SOPE  H18Y20881   2.365   2.504   8.472 -0.8530 -0.0621  3.1240
  182SOPE  H18Z20882   2.339   2.644   8.564  2.8414 -1.9970  0.3265
  183SOPE     N20883   1.566   6.332   6.193  0.7276  0.2054 -0.2128
  183SOPE   HN120884   1.479   6.278   6.175  1.1162 -0.5320  0.1184
  183SOPE   HN220885   1.635   6.295   6.125  0.1436 -0.7414 -0.2967
  183SOPE   HN320886   1.592   6.309   6.291 -1.6420 -0.6496  0.2809
  183SOPE   C1220887   1.547   6.485   6.188 -1.0162  0.1509 -0.4429
  183SOPE  H12A20888   1.540   6.515   6.081  1.4269 -0.7886 -0.9415
  183SOPE  H12B20889   1.643   6.530   6.221 -0.8447  1.1823 -2.1996
  183SOPE   C1120890   1.421   6.527   6.267 -0.1895  0.6199  0.0140
  183SOPE  H11A20891   1.426   6.638   6.278 -3.0203  0.7617  0.4079
  183SOPE  H11B20892   1.431   6.489   6.372  1.4458  2.6203  0.6605
  183SOPE     P20893   1.208   6.371   6.241 -0.1294 -0.0903 -0.3654
  183SOPE   O1320894   1.289   6.249   6.254  0.3254 -0.5814  0.2748
  183SOPE   O1420895   1.097   6.367   6.141 -0.0576 -0.5582 -0.1168
  183SOPE   O1220896   1.302   6.495   6.194  0.6011 -0.0940  0.3641
  183SOPE   O1120897   1.161   6.420   6.384 -0.3224  0.0326 -0.2907
  183SOPE    C120898   1.065   6.526   6.404 -0.1688  0.0999 -0.0168
  183SOPE    HA20899   0.971   6.479   6.441  1.0757 -2.1610  0.4525
  183SOPE    HB20900   1.039   6.581   6.311 -2.7682 -0.1929  0.4471
  183SOPE    C220901   1.121   6.626   6.508  0.1989 -0.4260  0.1851
  183SOPE    HS20902   1.228   6.624   6.478  1.1207  0.8262  3.0535
  183SOPE   O2120903   1.099   6.566   6.638  0.4130  0.0829  0.3602
  183SOPE   C2120904   1.203   6.572   6.723 -0.0555  1.0731  0.4881
  183SOPE   O2220905   1.313   6.617   6.696 -0.3300 -0.1705  0.8866
  183SOPE   C2220906   1.176   6.498   6.855 -0.0509 -0.0953 -0.1171
  183SOPE   H2R20907   1.246   6.411   6.858  0.0765  0.0283  0.6002
  183SOPE   H2S20908   1.069   6.468   6.855 -0.6441  1.9186  0.8026
  183SOPE    C320909   1.045   6.763   6.489 -0.5542  0.1289 -0.3799
  183SOPE    HX20910   0.941   6.728   6.507 -0.3953 -0.0722  0.1483
  183SOPE    HY20911   1.071   6.789   6.384  1.4493 -0.8045 -0.1641
  183SOPE   O3120912   1.081   6.866   6.579 -0.3486 -0.6734 -0.7216
  183SOPE   C3120913   1.187   6.938   6.547 -0.1048  0.2157 -0.0981
  183SOPE   O3220914   1.259   6.925   6.450 -0.6762  0.1142  0.1722
  183SOPE   C3220915   1.194   7.052   6.652  0.2166  0.3647 -0.1011
  183SOPE   H2X20916   1.108   7.041   6.720  0.5302  0.2808  0.2832
  183SOPE   H2Y20917   1.171   7.152   6.608  0.5078  0.8662  0.8654
  183SOPE   C2320918   1.202   6.595   6.980  0.8542  0.2292 -0.4658
  183SOPE   H3R20919   1.161   6.694   6.951  0.2507 -0.4822 -2.1669
  183SOPE   H3S20920   1.309   6.622   6.995  1.0149 -0.4351 -0.3728
  183SOPE   C2420921   1.151   6.530   7.102 -0.3710  0.2174 -0.2898
  183SOPE   H4R20922   1.045   6.505   7.080 -1.1308  3.8394 -1.2739
  183SOPE   H4S20923   1.201   6.439   7.144  2.2487  1.1154 -1.2964
  183SOPE   C2520924   1.149   6.623   7.227 -0.4684 -0.0019  0.1216
  183SOPE   H5R20925   1.249   6.648   7.268  0.3449 -0.4256 -1.4949
  183SOPE   H5S20926   1.101   6.720   7.202 -1.0430 -0.1660  0.5566
  183SOPE   C2620927   1.060   6.573   7.342  0.1443  0.7362  0.1349
  183SOPE   H6R20928   0.954   6.577   7.309 -0.0685  1.9510  0.8877
  183SOPE   H6S20929   1.086   6.469   7.370  1.2890  1.2672  1.1354
  183SOPE   C2720930   1.085   6.661   7.465  0.4157  0.4729 -0.0074
  183SOPE   H7R20931   1.195   6.676   7.474  0.4972 -0.4664  0.7852
  183SOPE   H7S20932   1.030   6.757   7.464  1.3118  1.1210 -4.0532
  183SOPE   C2820933   1.040   6.591   7.596 -0.0364  0.4838  0.3584
  183SOPE   H8R20934   0.931   6.572   7.594 -0.0499  0.5950 -0.5058
  183SOPE   H8S20935   1.098   6.497   7.607 -2.2565 -1.0388 -0.1781
  183SOPE   C2920936   1.073   6.678   7.717 -0.6278 -0.1464 -0.9462
  183SOPE   H9120937   1.021   6.775   7.724 -0.3940  0.0312 -1.5561
  183SOPE  C21020938   1.154   6.648   7.818  0.0552  0.2187  0.0813
  183SOPE  H10120939   1.156   6.714   7.906 -0.5087 -0.2031  0.4189
  183SOPE  C21120940   1.246   6.527   7.843  0.2964  0.0260  0.2142
  183SOPE  H11R20941   1.351   6.537   7.807  0.7265 -0.1877  1.3548
  183SOPE  H11S20942   1.197   6.437   7.801 -1.7579  0.8609  0.7040
  183SOPE  C21220943   1.253   6.501   7.998 -0.2441  0.3716  0.0557
  183SOPE  H12R20944   1.224   6.591   8.057 -1.1754 -1.1056  1.9757
  183SOPE  H12S20945   1.360   6.487   8.024 -0.8096 -1.1473  1.8164
  183SOPE  C21320946   1.178   6.375   8.044  0.9139 -0.4184 -0.3138
  183SOPE  H13R20947   1.242   6.288   8.020  1.6883  0.6456 -2.4054
  183SOPE  H13S20948   1.083   6.363   7.988  1.3760  0.7119 -1.3916
  183SOPE  C21420949   1.136   6.386   8.198 -0.1203 -0.0416 -0.0135
  183SOPE  H14R20950   1.081   6.293   8.225  0.8086 -0.5529  0.1668
  183SOPE  H14S20951   1.072   6.476   8.197  2.6026  2.0367 -1.2146
  183SOPE  C21520952   1.260   6.408   8.288  0.4878 -0.4381  0.9403
  183SOPE  H15R20953   1.306   6.509   8.283 -3.3546  1.4288  0.2199
  183SOPE  H15S20954   1.347   6.348   8.252 -0.4553 -1.9100  1.0179
  183SOPE  C21620955   1.234   6.365   8.430 -0.7456 -0.1546 -0.5213
  183SOPE  H16R20956   1.206   6.258   8.421 -1.2004 -0.0502 -0.3803
  183SOPE  H16S20957   1.145   6.417   8.470 -0.1510  1.5052 -1.2317
  183SOPE  C21720958   1.357   6.382   8.514 -0.2432 -0.6412  0.0391
  183SOPE  H17R20959   1.376   6.489   8.540 -0.7104 -0.0808 -1.8025
  183SOPE  H17S20960   1.443   6.332   8.465  0.3972 -0.0106  0.4879
  183SOPE  C21820961   1.338   6.320   8.650  0.2756  0.1344 -0.8241
  183SOPE  H18R20962   1.294   6.219   8.636 -1.8235  0.8600  0.1291
  183SOPE  H18S20963   1.265   6.374   8.713  1.6118 -0.2194  1.0977
  183SOPE  H18T20964   1.437   6.329   8.699 -0.9844  4.0876  1.4539
  183SOPE   C3320965   1.322   7.057   6.741  0.4990 -0.3074 -0.1035
  183SOPE   H3X20966   1.341   7.165   6.758  4.3034 -0.6532 -1.0486
  183SOPE   H3Y20967   1.409   7.022   6.681 -0.0693 -0.0373 -1.1123
  183SOPE   C3420968   1.311   6.983   6.868 -0.0562 -1.0898  0.8776
  183SOPE   H4X20969   1.411   6.972   6.915  0.4262 -1.1878 -0.1530
  183SOPE   H4Y20970   1.261   6.884   6.856  1.3961 -1.6018 -1.5671
  183SOPE   C3520971   1.237   7.072   6.975 -0.1531  0.1153  0.0525
  183SOPE   H5X20972   1.141   7.110   6.935  0.6466  0.9317 -1.1448
  183SOPE   H5Y20973   1.300   7.158   7.006 -1.2110  0.6668  0.7066
  183SOPE   C3620974   1.202   6.988   7.096  0.4202 -0.0926 -0.5807
  183SOPE   H6X20975   1.291   6.932   7.132  0.1551 -0.6916 -0.8470
  183SOPE   H6Y20976   1.125   6.911   7.075  0.8188 -1.3373  2.0600
  183SOPE   C3720977   1.163   7.083   7.212  0.4590  0.5528 -0.4847
  183SOPE   H7X20978   1.075   7.147   7.187  1.6143  2.3125 -0.1387
  183SOPE   H7Y20979   1.244   7.157   7.226  0.6399 -0.0043  1.6557
  183SOPE   C3820980   1.148   7.013   7.346  0.2030  0.0658 -0.3781
  183SOPE   H8X20981   1.241   6.964   7.381 -1.1549 -3.0138 -0.7011
  183SOPE   H8Y20982   1.078   6.927   7.341 -2.1015  1.8796 -1.1537
  183SOPE   C3920983   1.113   7.117   7.456 -0.0200  0.1815 -0.1296
  183SOPE   H9X20984   1.014   7.158   7.427  0.1104 -0.7072 -1.9915
  183SOPE   H9Y20985   1.188   7.199   7.459 -1.1386  1.3104 -1.6858
  183SOPE  C31020986   1.087   7.051   7.591  0.2224 -1.1317  0.3307
  183SOPE  H10X20987   1.188   7.017   7.620  0.5620 -1.3013 -0.9860
  183SOPE  H10Y20988   1.009   6.972   7.579 -3.9530  1.9611  3.7879
  183SOPE  C31120989   1.023   7.142   7.701  0.2963  0.2040 -0.7832
  183SOPE  H11X20990   0.918   7.168   7.676 -0.7793 -1.1952  1.8954
  183SOPE  H11Y20991   1.079   7.238   7.699  0.3336  0.1796 -0.9845
  183SOPE  C31220992   1.030   7.075   7.849  0.2910  0.2802  0.1679
  183SOPE  H12X20993   1.136   7.077   7.883  0.3231 -0.5036  0.1519
  183SOPE  H12Y20994   0.993   6.971   7.864 -1.0796  0.6753 -0.3735
  183SOPE  C31320995   0.942   7.166   7.934  0.1409  0.8889  0.2593
  183SOPE  H13X20996   0.841   7.177   7.888  0.6589  2.7458 -0.5343
  183SOPE  H13Y20997   0.993   7.265   7.930 -1.1306  1.7090  2.3931
  183SOPE  C31420998   0.947   7.105   8.066  0.0244 -0.6908 -0.1732
  183SOPE  H14X20999   1.045   7.116   8.118 -0.6076  0.5773  0.7998
  183SOPE  H14Y21000   0.915   6.999   8.057 -1.0218 -0.2958 -1.2777
  183SOPE  C31521001   0.859   7.170   8.174 -0.1933 -0.3907 -0.0789
  183SOPE  H15X21002   0.863   7.110   8.267 -1.0372 -0.5116 -0.1100
  183SOPE  H15Y21003   0.752   7.163   8.142 -0.6956 -1.4782  1.6910
  183SOPE  C31621004   0.896   7.312   8.212  0.0120  0.3023 -0.2396
  183SOPE  H16X21005   0.900   7.382   8.126 -0.4440  1.2265  0.4674
  183SOPE  H16Y21006   0.990   7.313   8.271 -0.7981  1.2101  1.1024
  183SOPE  C31721007   0.790   7.363   8.319  0.1928  0.0498  0.5652
  183SOPE  H17X21008   0.809   7.324   8.422 -1.0911 -1.6327  0.2026
  183SOPE  H17Y21009   0.698   7.308   8.291  1.0856 -0.5804 -1.2682
  183SOPE  C31821010   0.777   7.521   8.327 -0.3043 -0.2236  0.7636
  183SOPE  H18X21011   0.756   7.566   8.228  0.2469 -0.5506  0.4910
  183SOPE  H18Y21012   0.881   7.553   8.350  0.5771 -2.9739  1.0231
  183SOPE  H18Z21013   0.698   7.558   8.395 -1.1703  1.9362 -1.2558
  184SOPE     N21014   0.147   0.921   6.192  0.0273  1.0273 -0.1302
  184SOPE   HN121015   0.160   0.975   6.104  0.0651  0.2164 -0.6285
  184SOPE   HN221016   0.107   0.826   6.178 -1.0547  1.5034 -0.3392
  184SOPE   HN321017   0.096   0.975   6.264  1.0511  2.5344 -0.4843
  184SOPE   C1221018   0.290   0.888   6.241 -0.6482 -0.5789  0.2762
  184SOPE  H12A21019   0.281   0.840   6.340  1.4930  0.7177  1.1565
  184SOPE  H12B21020   0.337   0.988   6.248  0.9302 -1.0460 -2.3001
  184SOPE   C1121021   0.362   0.796   6.136  0.6654 -0.1235  0.3744
  184SOPE  H11A21022   0.362   0.851   6.040  0.4896 -0.4477  0.1836
  184SOPE  H11B21023   0.296   0.712   6.105  1.6683 -0.5774 -0.5841
  184SOPE     P21024   0.599   0.847   6.238  0.0408  0.3703  0.1735
  184SOPE   O1321025   0.575   0.984   6.200 -0.4882 -0.3390 -0.0103
  184SOPE   O1421026   0.740   0.802   6.244  0.2397 -0.0613 -0.2480
  184SOPE   O1221027   0.501   0.746   6.163 -0.2969 -0.4848 -0.4003
  184SOPE   O1121028   0.541   0.829   6.385 -0.2977 -0.2916  0.3652
  184SOPE    C121029   0.527   0.939   6.475  0.3216  0.8863 -0.4186
  184SOPE    HA21030   0.435   0.997   6.450 -0.7167  1.2308  3.5470
  184SOPE    HB21031   0.619   1.000   6.482  1.6610 -1.0523 -0.4807
  184SOPE    C221032   0.506   0.874   6.611  0.1055  0.0414  0.2176
  184SOPE    HS21033   0.413   0.815   6.599  0.3459 -0.2145 -0.3859
  184SOPE   O2121034   0.505   0.980   6.707  0.0450  0.0959 -0.2821
  184SOPE   C2121035   0.392   0.993   6.775  0.5138 -0.4078 -0.4474
  184SOPE   O2221036   0.298   0.913   6.771 -0.3043 -0.5140 -0.0663
  184SOPE   C2221037   0.391   1.112   6.866 -0.0502 -0.3292 -0.5802
  184SOPE   H2R21038   0.300   1.119   6.929  1.1557  0.9409  1.1100
  184SOPE   H2S21039   0.413   1.210   6.819 -0.3664 -0.6738 -1.4656
  184SOPE    C321040   0.608   0.771   6.659 -0.1494  0.0196 -0.3559
  184SOPE    HX21041   0.701   0.830   6.675 -0.8122  0.8092  0.6407
  184SOPE    HY21042   0.629   0.693   6.582  1.1137  0.1069 -0.1236
  184SOPE   O3121043   0.558   0.704   6.780  0.9270 -0.4761 -0.0093
  184SOPE   C3121044   0.627   0.604   6.821 -0.1029  0.1602  0.7227
  184SOPE   O3221045   0.727   0.560   6.760 -0.2477  0.7049  0.2486
  184SOPE   C3221046   0.580   0.566   6.959 -0.9028  0.2726  0.4386
  184SOPE   H2X21047   0.487   0.507   6.952  0.0876 -1.0808 -3.2038
  184SOPE   H2Y21048   0.574   0.662   7.015  0.1510  0.0125  1.0402
  184SOPE   C2321049   0.509   1.090   6.969 -0.1353 -0.3430  0.1777
  184SOPE   H3R21050   0.503   1.183   7.029  1.1578  1.0697 -1.7538
  184SOPE   H3S21051   0.609   1.088   6.921 -0.3334 -2.5833 -0.2752
  184SOPE   C2421052   0.490   0.959   7.049 -0.9456  0.1737  0.5778
  184SOPE   H4R21053   0.385   0.954   7.083 -2.0333  3.6586 -1.7153
  184SOPE   H4S21054   0.501   0.873   6.979  3.1952  0.9214  0.0316
  184SOPE   C2521055   0.603   0.940   7.152  0.0510 -0.4591 -0.8571
  184SOPE   H5R21056   0.591   0.842   7.204  1.8508  0.1231  0.7571
  184SOPE   H5S21057   0.699   0.939   7.096  1.6747 -0.2814  1.7528
  184SOPE   C2621058   0.616   1.049   7.255  0.3889  0.8457  0.1393
  184SOPE   H6R21059   0.707   1.038   7.317  0.2766 -0.2543  0.1182
  184SOPE   H6S21060   0.621   1.147   7.202 -0.5963 -0.8416 -3.3764
  184SOPE   C2721061   0.500   1.030   7.360 -0.2252  0.0381 -0.2894
  184SOPE   H7R21062   0.400   1.029   7.311  0.5878 -0.0305 -2.0093
  184SOPE   H7S21063   0.506   0.931   7.411  0.8890  0.2758  0.0726
  184SOPE   C2821064   0.497   1.152   7.456 -0.4334 -1.0430 -0.1821
  184SOPE   H8R21065   0.556   1.222   7.394 -0.5983  0.6334  1.4617
  184SOPE   H8S21066   0.396   1.197   7.469  0.5525  0.7381  1.7514
  184SOPE   C2921067   0.569   1.141   7.593 -0.8459 -0.0865 -0.3683
  184SOPE   H9121068   0.638   1.056   7.603  1.2762  1.3908 -1.7031
  184SOPE  C21021069   0.558   1.226   7.693  0.5987 -0.3012  1.0883
  184SOPE  H10121070   0.600   1.191   7.789  0.7928 -1.5136  0.5862
  184SOPE  C21121071   0.465   1.344   7.701 -0.1136  0.2059  0.3752
  184SOPE  H11R21072   0.437   1.380   7.600 -0.5452 -0.5437  0.2127
  184SOPE  H11S21073   0.529   1.424   7.745  1.0290 -1.0539  1.1034
  184SOPE  C21221074   0.344   1.320   7.790 -0.3146  0.1716 -0.5182
  184SOPE  H12R21075   0.264   1.252   7.754 -0.6983  0.4605 -0.2250
  184SOPE  H12S21076   0.292   1.419   7.792  1.2653  1.0294  1.4980
  184SOPE  C21321077   0.380   1.302   7.941  0.6965  0.6416 -0.1896
  184SOPE  H13R21078   0.416   1.198   7.956 -0.4231  0.5537  2.2883
  184SOPE  H13S21079   0.288   1.297   8.003  1.2967 -2.6796  0.6697
  184SOPE  C21421080   0.480   1.396   8.007 -0.2858 -0.6794 -0.4467
  184SOPE  H14R21081   0.467   1.505   7.989  1.9848 -0.4027 -0.6553
  184SOPE  H14S21082   0.575   1.372   7.956 -1.6282 -1.0238 -2.9298
  184SOPE  C21521083   0.508   1.362   8.160 -0.1363  0.2343  0.2080
  184SOPE  H15R21084   0.412   1.348   8.214 -1.2256 -0.8859 -1.8663
  184SOPE  H15S21085   0.553   1.453   8.205 -2.0502  1.1747  0.3265
  184SOPE  C21621086   0.607   1.244   8.190  0.5903  0.0690 -0.3560
  184SOPE  H16R21087   0.696   1.264   8.127  0.8992  1.0010  0.3608
  184SOPE  H16S21088   0.563   1.148   8.157 -0.0189  0.2870 -0.1816
  184SOPE  C21721089   0.624   1.215   8.338 -0.0432 -0.0803  0.0251
  184SOPE  H17R21090   0.524   1.225   8.383 -0.8516  0.1788 -1.7290
  184SOPE  H17S21091   0.680   1.299   8.383  0.8621 -0.7106  0.1132
  184SOPE  C21821092   0.683   1.073   8.375 -0.0258  0.5543 -0.2170
  184SOPE  H18R21093   0.639   0.995   8.309  2.9780  0.3709 -2.1933
  184SOPE  H18S21094   0.662   1.052   8.482 -1.0357 -1.4167 -0.7491
  184SOPE  H18T21095   0.792   1.072   8.356 -0.2292 -0.2958 -1.4824
  184SOPE   C3321096   0.681   0.471   7.027  0.4219 -0.6124 -0.2881
  184SOPE   H3X21097   0.785   0.511   7.019 -0.0145  0.4461 -0.8329
  184SOPE   H3Y21098   0.674   0.375   6.972  0.5387 -1.1248  0.5748
  184SOPE   C3421099   0.647   0.438   7.169  0.5631  0.0948 -0.2967
  184SOPE   H4X21100   0.573   0.355   7.167  0.3860  0.2491 -0.2361
  184SOPE   H4Y21101   0.589   0.520   7.216  0.3182 -0.0498 -0.3443
  184SOPE   C3521102   0.742   0.368   7.267 -0.1607 -0.4265  0.3279
  184SOPE   H5X21103   0.831   0.435   7.269 -1.3945  1.3004  0.3279
  184SOPE   H5Y21104   0.775   0.276   7.215 -0.3429  0.5898 -1.6939
  184SOPE   C3621105   0.694   0.360   7.410 -0.1547 -0.4398  0.0978
  184SOPE   H6X21106   0.751   0.287   7.471  3.6728  0.8096 -1.6565
  184SOPE   H6Y21107   0.592   0.318   7.417  0.4018 -2.2643 -1.8063
  184SOPE   C3721108   0.703   0.488   7.484 -0.0180  0.8565 -0.0977
  184SOPE   H7X21109   0.675   0.570   7.414 -0.4289 -0.9514 -2.1683
  184SOPE   H7Y21110   0.809   0.510   7.508  0.2459  0.7387 -1.0944
  184SOPE   C3821111   0.618   0.475   7.612 -1.2784 -0.0750  0.1792
  184SOPE   H8X21112   0.657   0.383   7.659 -0.2091  0.2189 -0.1150
  184SOPE   H8Y21113   0.512   0.455   7.585 -0.7112 -0.6906 -1.7164
  184SOPE   C3921114   0.629   0.591   7.713  0.3190 -0.5854 -0.2063
  184SOPE   H9X21115   0.579   0.682   7.673  1.7845 -0.3311 -1.5618
  184SOPE   H9Y21116   0.739   0.607   7.712  0.6110 -2.3927 -0.2275
  184SOPE  C31021117   0.580   0.541   7.855 -0.0412  0.2398 -0.3086
  184SOPE  H10X21118   0.606   0.433   7.853 -0.7016  0.0132  1.3119
  184SOPE  H10Y21119   0.469   0.544   7.860 -0.0554  1.8102 -0.9176
  184SOPE  C31121120   0.644   0.612   7.968 -0.2185  0.3925  0.1958
  184SOPE  H11X21121   0.746   0.636   7.930  0.1284 -1.0126  0.1709
  184SOPE  H11Y21122   0.673   0.559   8.061  0.0133  1.0166  0.4869
  184SOPE  C31221123   0.583   0.742   8.013 -0.3852 -0.1581 -0.4076
  184SOPE  H12X21124   0.531   0.791   7.928  1.1250  0.9353 -0.7378
  184SOPE  H12Y21125   0.652   0.821   8.050 -0.3956 -0.8638  1.1567
  184SOPE  C31321126   0.468   0.717   8.106 -0.3014 -0.1145 -0.7279
  184SOPE  H13X21127   0.511   0.673   8.199 -1.7635  0.2461  0.1633
  184SOPE  H13Y21128   0.396   0.641   8.068 -0.2278 -1.3207  1.3775
  184SOPE  C31421129   0.389   0.845   8.150 -0.4833 -0.3480  0.0515
  184SOPE  H14X21130   0.327   0.878   8.063  1.4852  1.8764 -0.5845
  184SOPE  H14Y21131   0.451   0.931   8.180  1.0276 -1.1462 -0.6572
  184SOPE  C31521132   0.299   0.820   8.272  0.3124  0.1790  0.5406
  184SOPE  H15X21133   0.367   0.803   8.358  2.1912 -1.0561 -1.1082
  184SOPE  H15Y21134   0.228   0.736   8.259  1.5040 -1.0096  1.5542
  184SOPE  C31621135   0.233   0.955   8.302  0.0696 -0.4843  0.7361
  184SOPE  H16X21136   0.158   0.983   8.226 -1.2547 -0.3230  2.0435
  184SOPE  H16Y21137   0.304   1.040   8.293  2.3293 -2.0545  2.4467
  184SOPE  C31721138   0.163   0.975   8.438  0.4050  0.6051 -0.3964
  184SOPE  H17X21139   0.240   0.959   8.516 -0.3771 -2.0144 -0.0513
  184SOPE  H17Y21140   0.077   0.905   8.449 -0.8705  2.3639  1.7025
  184SOPE  C31821141   0.101   1.113   8.456 -0.0397 -0.1449  0.4224
  184SOPE  H18X21142   0.047   1.122   8.552  1.2939  1.9438  1.0524
  184SOPE  H18Y21143   0.045   1.140   8.364 -0.9689 -2.0909  0.3745
  184SOPE  H18Z21144   0.185   1.186   8.463 -1.5629  2.0356 -1.9264
  185SAPI   C1221145   3.363   2.055  10.795  0.1514  0.0637 -0.2916
  185SAPI    H221146   3.275   2.111  10.758 -0.1875  0.1613  0.6340
  185SAPI    O221147   3.315   1.978  10.906  0.4851 -0.3665 -0.0451
  185SAPI   HO221148   3.236   2.019  10.942 -0.1683 -0.6924 -1.0467
  185SAPI   C1321149   3.404   1.974  10.675  0.6273  0.4006 -0.1572
  185SAPI    H321150   3.428   2.052  10.599 -0.3457  1.8832  1.0043
  185SAPI    O321151   3.308   1.882  10.629  0.2309 -0.4398  0.2593
  185SAPI   HO321152   3.343   1.857  10.543  1.3254 -0.4499  0.6850
  185SAPI   C1421153   3.537   1.908  10.705  0.6954  0.1922  0.5598
  185SAPI    H421154   3.527   1.832  10.785 -0.5827 -2.2005 -1.7388
  185SAPI    O421155   3.582   1.828  10.599 -0.1439 -0.4258  0.0325
  185SAPI   HO421156   3.542   1.741  10.613  0.5524 -0.7987 -0.2219
  185SAPI   C1521157   3.636   2.009  10.756  0.7074 -0.7597 -0.0939
  185SAPI    H521158   3.655   2.071  10.666 -2.0808 -1.3214 -1.1711
  185SAPI    O521159   3.757   1.944  10.789 -0.0311  0.8505 -1.0290
  185SAPI   HO521160   3.809   1.940  10.708 -0.1749  1.0212 -1.1330
  185SAPI   C1621161   3.587   2.101  10.871  0.3285 -0.4077  0.1515
  185SAPI    H621162   3.575   2.033  10.958 -1.4425  0.8301  0.9412
  185SAPI    O621163   3.691   2.203  10.900  0.1184  0.8967 -0.2828
  185SAPI   HO621164   3.744   2.167  10.972 -0.7539  1.9245  0.9283
  185SAPI   C1121165   3.456   2.169  10.838 -0.1042  0.1388  0.1663
  185SAPI    H121166   3.478   2.229  10.747  0.4386 -0.7821 -0.3190
  185SAPI     P21167   3.331   2.386  10.934  0.4832  0.1136 -0.2002
  185SAPI   O1321168   3.250   2.396  11.060  0.0708  0.0858  0.1040
  185SAPI   O1421169   3.254   2.370  10.811  0.3700 -0.2743  0.1942
  185SAPI   O1221170   3.423   2.249  10.949  0.4840 -0.8238  0.5595
  185SAPI   O1121171   3.437   2.490  10.918 -0.1886  0.7062 -0.1997
  185SAPI    C121172   3.429   2.581  10.807 -1.0229 -0.1645  0.1104
  185SAPI    HA21173   3.327   2.624  10.803 -2.2875 -2.5943  2.6297
  185SAPI    HB21174   3.494   2.668  10.828  0.0679 -0.4397 -1.8621
  185SAPI    C221175   3.473   2.532  10.662  1.0149 -0.7193  0.3255
  185SAPI    HS21176   3.410   2.445  10.630 -2.9683  2.8252 -2.6410
  185SAPI   O2121177   3.619   2.500  10.665  0.6397 -0.2907 -1.0013
  185SAPI   C2121178   3.664   2.392  10.591 -0.1863  0.4573 -0.4821
  185SAPI   O2221179   3.594   2.327  10.513  0.0213 -0.3981  0.8011
  185SAPI   C2221180   3.809   2.364  10.634 -0.7265 -0.3134 -0.3530
  185SAPI   H2R21181   3.856   2.464  10.618 -2.6060  0.5342 -0.8326
  185SAPI   H2S21182   3.806   2.343  10.743  1.2293 -1.1013 -0.4067
  185SAPI    C321183   3.444   2.647  10.559  0.0930  0.2808  0.1347
  185SAPI    HX21184   3.516   2.730  10.576  1.5663 -1.3085  2.0681
  185SAPI    HY21185   3.345   2.690  10.586  0.6879  0.6817  1.8108
  185SAPI   O3121186   3.443   2.599  10.422 -0.0009 -0.5288 -0.3798
  185SAPI   C3121187   3.540   2.628  10.343  0.2972 -0.0554 -0.7008
  185SAPI   O3221188   3.638   2.703  10.363 -0.3497  0.5574 -0.7160
  185SAPI   C3221189   3.524   2.549  10.217 -0.0303 -0.1014  0.2987
  185SAPI   H2X21190   3.418   2.556  10.183  0.4317 -1.0777 -1.4606
  185SAPI   H2Y21191   3.540   2.440  10.226  0.4135  0.0123  0.9595
  185SAPI   C2321192   3.894   2.253  10.565 -0.6307  0.2142 -0.1952
  185SAPI   H3R21193   3.833   2.170  10.525 -2.1336  0.3964  1.5731
  185SAPI   H3S21194   3.960   2.220  10.648 -3.2710 -2.4907  1.0103
  185SAPI   C2421195   3.982   2.306  10.457  0.6927 -0.9256  0.7973
  185SAPI   H4R21196   4.032   2.221  10.407  2.0050  0.6966 -0.7540
  185SAPI   H4S21197   4.056   2.382  10.489  0.1150 -0.3530  0.7986
  185SAPI   C2521198   3.903   2.375  10.347 -0.1816  0.1468 -0.1193
  185SAPI   H5R21199   3.880   2.481  10.364  0.3656  0.6714 -2.3333
  185SAPI   C2621200   3.849   2.316  10.236 -0.5312  1.3217  0.5187
  185SAPI   H6R21201   3.788   2.379  10.169 -1.1233  0.6458  0.3991
  185SAPI   C2721202   3.875   2.174  10.184  0.0478  0.3168 -0.0691
  185SAPI   H7R21203   3.897   2.115  10.275  1.6280  0.2095 -0.4909
  185SAPI   H7S21204   3.959   2.179  10.112 -0.1509  0.9307 -0.2629
  185SAPI   C2821205   3.749   2.114  10.134 -0.0685  0.7151 -0.4255
  185SAPI   H8R21206   3.661   2.100  10.199  0.7140 -0.0556  0.5029
  185SAPI   C2921207   3.734   2.081  10.004  0.3707 -0.0050  0.3350
  185SAPI   H9R21208   3.644   2.028   9.969  1.8214 -2.0780 -0.5349
  185SAPI  C21021209   3.839   2.110   9.896  0.4411 -0.2139 -1.3568
  185SAPI  H10R21210   3.932   2.058   9.928  0.9870 -0.2040 -2.8619
  185SAPI  H10S21211   3.861   2.219   9.895  0.8012 -0.2329  0.5769
  185SAPI  C21121212   3.797   2.057   9.762 -0.0860  0.5658  0.0744
  185SAPI  H11R21213   3.694   2.024   9.743 -0.2443 -0.0354  1.8144
  185SAPI  C21221214   3.884   2.053   9.659 -0.3335  0.2477 -0.7573
  185SAPI  H12R21215   3.848   2.028   9.559  0.3797 -0.0403 -0.9547
  185SAPI  C21321216   4.032   2.083   9.673  0.3554  0.4582 -0.3667
  185SAPI  H13R21217   4.060   2.086   9.781 -2.3189  0.5316  0.4035
  185SAPI  H13S21218   4.057   2.185   9.636  1.8874  0.9930  1.8899
  185SAPI  C21421219   4.115   1.976   9.610 -0.3207 -0.0731 -0.0557
  185SAPI  H14R21220   4.142   1.891   9.674 -0.5873 -0.8649 -0.9746
  185SAPI  C21521221   4.171   1.976   9.487 -0.6694  0.8258 -0.2882
  185SAPI  H15R21222   4.219   1.885   9.449 -2.5514 -1.1701  1.8369
  185SAPI  C21621223   4.168   2.085   9.381  0.1418 -0.2738  0.2119
  185SAPI  H16R21224   4.156   2.183   9.433  1.4925  0.4336 -0.7528
  185SAPI  H16S21225   4.086   2.064   9.310  1.9036 -1.1899 -1.6359
  185SAPI  C21721226   4.297   2.098   9.301  0.4242  0.3315 -0.3827
  185SAPI  H17R21227   4.326   2.004   9.250 -0.0643  0.4794 -0.9368
  185SAPI  H17S21228   4.376   2.128   9.374  1.0050  0.8785 -1.2191
  185SAPI  C21821229   4.298   2.201   9.188  0.5521 -0.6364 -0.2219
  185SAPI  H18R21230   4.296   2.307   9.220  1.8854 -0.4820 -0.5883
  185SAPI  H18S21231   4.210   2.177   9.124  0.8483 -2.4142 -0.0335
  185SAPI  C21921232   4.423   2.172   9.102 -0.9304 -0.5999 -0.7086
  185SAPI  H19R21233   4.408   2.073   9.054 -0.2381 -1.1220  0.1183
  185SAPI  H19S21234   4.500   2.165   9.182 -1.5077 -2.0245 -0.2381
  185SAPI  C22021235   4.458   2.291   8.999 -0.1366  0.8008 -0.0634
  185SAPI  H20R21236   4.406   2.278   8.902  1.3159 -0.5087 -0.7216
  185SAPI  H20S21237   4.568   2.276   8.989  0.1428 -0.1737  3.1006
  185SAPI  H20T21238   4.448   2.387   9.053  0.4196  1.0964 -0.4816
  185SAPI   C3321239   3.633   2.595  10.112  0.0149  0.9896 -0.4347
  185SAPI   H3X21240   3.732   2.576  10.158 -1.2244 -1.7997  1.3523
  185SAPI   H3Y21241   3.621   2.695  10.067 -1.2136  0.7902 -0.5945
  185SAPI   C3421242   3.612   2.507   9.987  0.2790 -0.2902  0.0488
  185SAPI   H4X21243   3.519   2.534   9.934  0.5501 -2.1516 -1.5001
  185SAPI   H4Y21244   3.604   2.402  10.022 -1.3517 -0.7416 -1.5438
  185SAPI   C3521245   3.730   2.506   9.886 -0.3324  0.1942 -0.7720
  185SAPI   H5X21246   3.811   2.444   9.929  0.5045  1.5541 -0.3374
  185SAPI   H5Y21247   3.769   2.609   9.871 -0.2032 -0.0920 -2.7956
  185SAPI   C3621248   3.714   2.444   9.749 -0.3575  0.6648  0.4889
  185SAPI   H6X21249   3.644   2.508   9.691 -1.5111  0.1149  1.2421
  185SAPI   H6Y21250   3.659   2.347   9.752  2.7610 -1.2329  1.9540
  185SAPI   C3721251   3.845   2.424   9.665  0.1378 -0.9835 -0.4871
  185SAPI   H7X21252   3.909   2.344   9.709  0.3191 -1.1675 -1.0776
  185SAPI   H7Y21253   3.899   2.521   9.658 -1.5722  0.1079  0.4879
  185SAPI   C3821254   3.824   2.379   9.519 -0.0461 -0.0253 -0.6650
  185SAPI   H8X21255   3.764   2.286   9.523 -1.2456  0.7399  0.2164
  185SAPI   H8Y21256   3.923   2.359   9.473 -0.2545 -2.3327 -0.2202
  185SAPI   C3921257   3.757   2.479   9.425 -0.3564 -0.5066  0.2100
  185SAPI   H9X21258   3.810   2.576   9.437 -1.6837  0.1415  1.0311
  185SAPI   H9Y21259   3.653   2.479   9.463 -0.3848  0.7360  0.1964
  185SAPI  C31021260   3.773   2.444   9.273  0.2216 -0.5274 -0.6343
  185SAPI  H10X21261   3.882   2.440   9.254  0.6681 -0.1906  1.6793
  185SAPI  H10Y21262   3.722   2.527   9.220  1.0020  1.3491  1.4380
  185SAPI  C31121263   3.712   2.308   9.246  0.2509  0.0986 -0.3571
  185SAPI  H11X21264   3.639   2.323   9.164  0.3716  0.5402 -0.3827
  185SAPI  H11Y21265   3.656   2.275   9.336  0.7549 -1.1733 -0.4880
  185SAPI  C31221266   3.813   2.192   9.219  0.7959 -1.2235  0.6617
  185SAPI  H12X21267   3.747   2.103   9.228  1.1284 -1.5961 -0.4194
  185SAPI  H12Y21268   3.895   2.203   9.294  1.4115  1.0178 -0.2664
  185SAPI  C31321269   3.858   2.205   9.070 -0.1278  0.3853  0.6078
  185SAPI  H13X21270   3.914   2.299   9.051 -1.5345  1.1830  0.2260
  185SAPI  H13Y21271   3.774   2.227   9.001  0.2521 -0.5114 -0.1691
  185SAPI  C31421272   3.930   2.084   9.018 -1.1248 -0.5398  0.8576
  185SAPI  H14X21273   3.851   2.009   8.998 -0.3649 -1.1817  0.1947
  185SAPI  H14Y21274   3.999   2.051   9.098  0.9712  0.7390 -0.3139
  185SAPI  C31521275   4.004   2.091   8.885 -0.0566 -0.4443  0.0499
  185SAPI  H15X21276   4.088   2.164   8.881  1.3244 -1.9604  0.2868
  185SAPI  H15Y21277   3.930   2.130   8.812  0.4238  0.7118  0.1632
  185SAPI  C31621278   4.052   1.951   8.848  0.2314 -0.0770  0.0334
  185SAPI  H16X21279   3.971   1.875   8.856 -0.2048  0.5718  2.1404
  185SAPI  H16Y21280   4.131   1.911   8.915 -0.3612 -0.8781  0.2684
  185SAPI  C31721281   4.119   1.943   8.705  0.5121  0.1061 -0.6503
  185SAPI  H17X21282   4.175   2.039   8.703 -0.8126  0.9916  1.7148
  185SAPI  H17Y21283   4.039   1.944   8.628  0.7912 -3.2433 -1.1588
  185SAPI  C31821284   4.219   1.828   8.695  0.3032 -0.4680  0.0664
  185SAPI  H18X21285   4.187   1.728   8.731  0.3675 -0.1046  1.1668
  185SAPI  H18Y21286   4.301   1.858   8.763  0.0859 -0.7559  0.4601
  185SAPI  H18Z21287   4.258   1.813   8.592  0.3481 -0.7813  0.1274
  186SAPI   C1221288   4.059   0.714  10.730  0.1433  0.1967 -0.5856
  186SAPI    H221289   4.145   0.652  10.763  0.5253  0.7211 -0.5720
  186SAPI    O221290   3.991   0.642  10.625  0.1300 -0.1580 -0.9314
  186SAPI   HO221291   4.049   0.642  10.549  1.5674 -3.4012 -0.0122
  186SAPI   C1321292   3.967   0.727  10.852 -1.0770 -0.3061  0.6513
  186SAPI    H321293   4.029   0.768  10.935 -0.5281 -1.0622  0.6206
  186SAPI    O321294   3.930   0.604  10.899 -0.2818  0.1824  0.5625
  186SAPI   HO321295   3.909   0.552  10.821  0.8588  1.1655 -0.4284
  186SAPI   C1421296   3.844   0.819  10.806  0.0684  0.0378 -0.0951
  186SAPI    H421297   3.800   0.764  10.721  0.0607 -1.0106  0.5656
  186SAPI    O421298   3.751   0.823  10.917 -0.4640  0.1913 -0.1666
  186SAPI   HO421299   3.699   0.900  10.895  0.6144  1.4229  1.4135
  186SAPI   C1521300   3.899   0.955  10.763 -1.0939 -1.5840 -0.9703
  186SAPI    H521301   3.947   0.992  10.857 -3.5454 -0.2545 -0.1570
  186SAPI    O521302   3.793   1.049  10.734  0.7986  0.2684  0.0750
  186SAPI   HO521303   3.833   1.131  10.702 -0.7221  1.0722  0.1162
  186SAPI   C1621304   4.005   0.945  10.651  0.2133  0.4373 -0.1945
  186SAPI    H621305   3.949   0.901  10.565 -1.0121  0.4350  0.5834
  186SAPI    O621306   4.058   1.070  10.621 -0.1018 -0.3093  0.2913
  186SAPI   HO621307   4.105   1.066  10.538  2.3019 -1.3120  1.5881
  186SAPI   C1121308   4.114   0.847  10.691  0.1100  0.3852 -0.2073
  186SAPI    H121309   4.158   0.879  10.788 -0.7296 -0.9458  0.6438
  186SAPI     P21310   4.362   0.800  10.633  0.4683  0.5012  0.4296
  186SAPI   O1321311   4.393   0.877  10.754 -0.3873 -0.0156  0.2926
  186SAPI   O1421312   4.456   0.822  10.526  0.0084  0.2689  0.0196
  186SAPI   O1221313   4.213   0.830  10.587 -0.1320  0.2759 -0.3265
  186SAPI   O1121314   4.364   0.641  10.671 -0.0174  0.6498  0.2188
  186SAPI    C121315   4.438   0.548  10.590  0.2691  0.0517  0.1348
  186SAPI    HA21316   4.534   0.596  10.562  0.3474 -0.8853 -1.3185
  186SAPI    HB21317   4.462   0.455  10.646  1.4982 -0.0741 -0.5624
  186SAPI    C221318   4.353   0.509  10.466  0.7406  0.4007  0.1578
  186SAPI    HS21319   4.310   0.602  10.421 -0.3516 -0.6432 -1.0411
  186SAPI   O2121320   4.258   0.408  10.493  0.4010  0.4935 -0.0807
  186SAPI   C2121321   4.138   0.420  10.445  0.2022  0.0061  0.1791
  186SAPI   O2221322   4.086   0.518  10.395 -0.6637  0.1660 -0.0459
  186SAPI   C2221323   4.067   0.280  10.436 -0.3485 -0.7817 -0.3016
  186SAPI   H2R21324   4.069   0.222  10.530 -1.1826 -2.1986 -1.1155
  186SAPI   H2S21325   3.958   0.295  10.422 -0.0200 -0.3196 -2.8305
  186SAPI    C321326   4.442   0.438  10.354 -0.1762  1.4034 -0.0499
  186SAPI    HX21327   4.382   0.385  10.277  0.1538  0.3909  0.3746
  186SAPI    HY21328   4.484   0.348  10.403  1.3097  1.8742 -0.4345
  186SAPI   O3121329   4.538   0.518  10.286 -0.2412  0.1298  0.0538
  186SAPI   C3121330   4.484   0.607  10.207 -0.1990  0.3746 -0.5363
  186SAPI   O3221331   4.369   0.628  10.182  0.1801  0.2389  0.6651
  186SAPI   C3221332   4.598   0.684  10.149  0.5678 -0.1328 -0.0172
  186SAPI   H2X21333   4.691   0.622  10.145  0.4361 -0.4123  1.0031
  186SAPI   H2Y21334   4.626   0.764  10.220  0.5231 -1.4086  1.4878
  186SAPI   C2321335   4.112   0.196  10.317  0.4139  0.5407  0.4284
  186SAPI   H3R21336   4.125   0.090  10.349  0.6551  0.6013  0.5273
  186SAPI   H3S21337   4.213   0.234  10.290  0.2770  0.2012 -0.6211
  186SAPI   C2421338   4.041   0.201  10.177 -0.1186 -0.4458  0.6564
  186SAPI   H4R21339   4.125   0.172  10.109 -0.1483 -1.6109  1.0850
  186SAPI   H4S21340   4.020   0.306  10.150 -1.6289 -1.2604 -1.5606
  186SAPI   C2521341   3.916   0.123  10.174  0.4024  0.0347  0.1111
  186SAPI   H5R21342   3.861   0.116  10.269 -1.3812 -0.7098 -0.9275
  186SAPI   C2621343   3.868   0.054  10.067  0.1724 -0.1420  0.7879
  186SAPI   H6R21344   3.767   0.012  10.079 -0.3921  1.3034  1.3675
  186SAPI   C2721345   3.941   0.058   9.932  0.0192 -0.2792 -0.5967
  186SAPI   H7R21346   3.929  -0.044   9.888  0.2918 -0.6541  0.1819
  186SAPI   H7S21347   4.051   0.065   9.925  0.2411 -0.0229  2.1498
  186SAPI   C2821348   3.868   0.163   9.844 -0.5023  0.3624 -0.2409
  186SAPI   H8R21349   3.880   0.269   9.871  0.0063  0.2226  0.1124
  186SAPI   C2921350   3.771   0.127   9.754  0.1771  0.6370 -0.7774
  186SAPI   H9R21351   3.711   0.205   9.705 -0.5491  0.0038 -0.9130
  186SAPI  C21021352   3.728  -0.016   9.724  0.1434 -0.5764  0.0053
  186SAPI  H10R21353   3.707  -0.082   9.810 -2.0306 -0.2002 -0.1728
  186SAPI  H10S21354   3.821  -0.061   9.683  1.6276  2.4517 -0.2253
  186SAPI  C21121355   3.609  -0.032   9.628  0.1535 -0.2033 -0.1634
  186SAPI  H11R21356   3.504  -0.037   9.661 -0.3755 -2.7178 -1.9664
  186SAPI  C21221357   3.618  -0.025   9.493 -0.0115 -0.4284  0.3838
  186SAPI  H12R21358   3.526  -0.032   9.434 -0.2531  1.3632  0.5098
  186SAPI  C21321359   3.746   0.004   9.413  0.5049  0.5207 -0.8096
  186SAPI  H13R21360   3.751  -0.075   9.336  1.5663 -0.1560 -0.0823
  186SAPI  H13S21361   3.836  -0.026   9.472 -1.0880 -1.8207  0.6036
  186SAPI  C21421362   3.752   0.142   9.352 -0.2828 -0.1531  0.3808
  186SAPI  H14R21363   3.654   0.187   9.331  0.1670 -0.0267 -1.5664
  186SAPI  C21521364   3.860   0.207   9.305 -0.4101 -0.2647  0.7258
  186SAPI  H15R21365   3.848   0.299   9.246 -1.3543 -0.6605  0.2779
  186SAPI  C21621366   4.007   0.170   9.313  0.5158 -0.0494  0.2751
  186SAPI  H16R21367   4.047   0.181   9.210  3.2377 -1.0468  1.1290
  186SAPI  H16S21368   4.016   0.061   9.333 -0.3109 -0.2286 -0.2802
  186SAPI  C21721369   4.114   0.234   9.389  0.2675  0.4755  0.0423
  186SAPI  H17R21370   4.207   0.177   9.368 -1.8921 -2.6417 -1.6781
  186SAPI  H17S21371   4.089   0.224   9.497 -1.0968 -1.8703 -0.4322
  186SAPI  C21821372   4.126   0.385   9.370  0.4364  0.0840  0.2660
  186SAPI  H18R21373   4.109   0.436   9.468 -2.3228  1.0667 -0.6193
  186SAPI  H18S21374   4.042   0.420   9.306  0.1537  0.7168  0.9615
  186SAPI  C21921375   4.254   0.425   9.297 -0.3028 -0.2145 -0.0481
  186SAPI  H19R21376   4.341   0.408   9.365 -1.2923 -2.8251  0.6762
  186SAPI  H19S21377   4.249   0.535   9.286 -1.0318 -0.3076 -0.6579
  186SAPI  C22021378   4.278   0.361   9.161  0.1734  0.0313  0.3540
  186SAPI  H20R21379   4.178   0.358   9.112  0.1982  0.3452  0.2818
  186SAPI  H20S21380   4.308   0.254   9.169 -2.2783 -0.9854 -2.2042
  186SAPI  H20T21381   4.347   0.424   9.101 -1.0301  1.4769  0.4214
  186SAPI   C3321382   4.565   0.727  10.004  0.4666  0.2600 -0.4381
  186SAPI   H3X21383   4.627   0.813   9.971 -0.4083  1.2865  0.4967
  186SAPI   H3Y21384   4.458   0.757   9.997 -0.0840 -0.9856  1.5796
  186SAPI   C3421385   4.581   0.623   9.894 -0.3688 -0.1407  0.1960
  186SAPI   H4X21386   4.529   0.528   9.919 -2.1483  0.9027  0.6355
  186SAPI   H4Y21387   4.689   0.602   9.905 -0.6068 -2.1917 -0.8502
  186SAPI   C3521388   4.546   0.674   9.744 -0.3300  0.1009  0.5768
  186SAPI   H5X21389   4.589   0.774   9.723 -0.3143 -0.1959 -0.8546
  186SAPI   H5Y21390   4.438   0.697   9.749 -0.3789  0.0993 -0.3696
  186SAPI   C3621391   4.565   0.563   9.636  0.0692 -0.1318  0.1016
  186SAPI   H6X21392   4.501   0.475   9.659 -0.0564  0.0645  0.5068
  186SAPI   H6Y21393   4.671   0.531   9.624  1.0837  2.7344  0.7320
  186SAPI   C3721394   4.520   0.609   9.496  0.4671  0.1712  0.3198
  186SAPI   H7X21395   4.422   0.661   9.502 -0.7857 -2.1533  1.2901
  186SAPI   H7Y21396   4.509   0.515   9.438  0.9849 -0.8640  1.8338
  186SAPI   C3821397   4.627   0.695   9.426  0.7120 -0.2646  0.3604
  186SAPI   H8X21398   4.728   0.652   9.442  1.5889  1.1365 -1.0525
  186SAPI   H8Y21399   4.625   0.797   9.471 -0.1078 -0.3878  0.6106
  186SAPI   C3921400   4.607   0.688   9.274  0.0233 -0.1340  0.0182
  186SAPI   H9X21401   4.504   0.696   9.234  0.4477 -0.7351 -1.2370
  186SAPI   H9Y21402   4.656   0.596   9.236  1.7201  0.4640  0.6785
  186SAPI  C31021403   4.683   0.803   9.198 -0.0971 -0.2029 -0.2152
  186SAPI  H10X21404   4.770   0.833   9.261 -0.2776 -1.5180  0.6960
  186SAPI  H10Y21405   4.615   0.889   9.182  1.9437  1.3656 -0.9900
  186SAPI  C31121406   4.720   0.763   9.060  0.5750 -0.5151 -0.2176
  186SAPI  H11X21407   4.713   0.844   8.985  0.3079 -0.4160 -0.0891
  186SAPI  H11Y21408   4.644   0.686   9.034  0.6104 -0.9391  0.8488
  186SAPI  C31221409   4.848   0.688   9.043 -0.2789 -0.4487 -0.0148
  186SAPI  H12X21410   4.846   0.660   8.935 -0.5466  1.0669 -0.4163
  186SAPI  H12Y21411   4.870   0.591   9.093  1.0468 -0.3980 -0.4526
  186SAPI  C31321412   4.958   0.782   9.063 -0.0500  0.0198 -0.3407
  186SAPI  H13X21413   4.963   0.809   9.171 -0.9868 -1.3228  0.0632
  186SAPI  H13Y21414   4.956   0.879   9.009  1.4692  0.0281 -0.4298
  186SAPI  C31421415   5.106   0.732   9.036 -0.3135 -0.4652 -0.2340
  186SAPI  H14X21416   5.112   0.715   8.926  0.9593  1.4117 -0.5077
  186SAPI  H14Y21417   5.123   0.629   9.075  2.9235  0.1842  0.3369
  186SAPI  C31521418   5.215   0.819   9.107  0.6390 -0.2594 -0.1942
  186SAPI  H15X21419   5.212   0.801   9.216  2.2262  1.0390  0.1024
  186SAPI  H15Y21420   5.188   0.927   9.109  1.9477  0.0783  1.1329
  186SAPI  C31621421   5.347   0.811   9.039  0.5617  1.0236 -0.4867
  186SAPI  H16X21422   5.384   0.706   9.039 -4.3238 -0.9891  1.2223
  186SAPI  H16Y21423   5.420   0.868   9.100 -0.6139  2.1248 -0.0676
  186SAPI  C31721424   5.353   0.864   8.900 -0.7734  0.6299  0.7189
  186SAPI  H17X21425   5.309   0.965   8.889 -1.4079  0.0518 -3.6780
  186SAPI  H17Y21426   5.282   0.799   8.844 -1.6541  1.9896  0.2054
  186SAPI  C31821427   5.488   0.855   8.834 -0.6905 -0.5359 -0.3474
  186SAPI  H18X21428   5.522   0.756   8.799 -1.5068 -0.7314 -0.6020
  186SAPI  H18Y21429   5.570   0.884   8.904 -0.3013 -1.8368 -0.2468
  186SAPI  H18Z21430   5.497   0.927   8.750  2.0455  1.3040  1.3222
  187SAPI   C1221431   0.958   2.905   6.505  0.4947 -0.4658 -0.1203
  187SAPI    H221432   0.970   2.799   6.536 -0.0370 -0.3040  0.6726
  187SAPI    O221433   0.877   2.966   6.608  0.0363  0.5300 -0.1744
  187SAPI   HO221434   0.787   2.944   6.587  0.6627 -0.9959 -1.4401
  187SAPI   C1321435   1.101   2.957   6.490  0.3080 -0.3341  0.0682
  187SAPI    H321436   1.151   2.908   6.404  2.7157  2.1200 -0.0735
  187SAPI    O321437   1.183   2.933   6.608  0.9681 -0.1309  0.8295
  187SAPI   HO321438   1.143   2.982   6.680 -0.1750 -0.7704  0.6451
  187SAPI   C1421439   1.100   3.106   6.452  0.7299  0.6185  0.6791
  187SAPI    H421440   1.044   3.153   6.536  1.3384 -1.0254  2.0566
  187SAPI    O421441   1.231   3.161   6.441  0.1541 -0.1095  0.7060
  187SAPI   HO421442   1.276   3.114   6.371 -1.7105  0.2318 -0.8126
  187SAPI   C1521443   1.032   3.120   6.316 -0.5908 -0.0872 -0.0215
  187SAPI    H521444   1.089   3.062   6.240  1.7435 -0.4250  1.8559
  187SAPI    O521445   1.027   3.256   6.265  0.1245  0.1421 -0.0138
  187SAPI   HO521446   1.097   3.272   6.202  0.7191 -0.3755  0.5072
  187SAPI   C1621447   0.892   3.056   6.315 -0.1974  0.0169  1.1445
  187SAPI    H621448   0.825   3.124   6.372 -0.6847  0.3297  0.2181
  187SAPI    O621449   0.837   3.046   6.182  0.3240 -0.1570  0.1404
  187SAPI   HO621450   0.778   2.970   6.185  0.4228 -0.1987  2.7420
  187SAPI   C1121451   0.890   2.911   6.369 -0.1228  0.1771 -0.6787
  187SAPI    H121452   0.959   2.851   6.306  0.6226  1.2993 -0.9653
  187SAPI     P21453   0.724   2.709   6.429  0.0853  0.2275 -0.1346
  187SAPI   O1321454   0.836   2.615   6.410  0.5753 -0.4919  0.1838
  187SAPI   O1421455   0.602   2.648   6.366 -0.1245 -0.6297  0.8157
  187SAPI   O1221456   0.765   2.854   6.354 -0.0763 -0.2468 -0.4602
  187SAPI   O1121457   0.700   2.742   6.574  0.1895  0.0559 -0.2207
  187SAPI    C121458   0.573   2.744   6.642  0.3071 -0.3956 -0.3229
  187SAPI    HA21459   0.512   2.654   6.620 -0.8623  0.7807 -2.2841
  187SAPI    HB21460   0.603   2.751   6.748 -1.7238  0.3066  0.2551
  187SAPI    C221461   0.494   2.869   6.606  0.0356  0.3958  0.0098
  187SAPI    HS21462   0.464   2.862   6.499 -1.2594  3.7991  0.0372
  187SAPI   O2121463   0.584   2.987   6.618  0.4615  0.5922  0.4547
  187SAPI   C2121464   0.553   3.097   6.565 -0.2843  0.4539 -0.2638
  187SAPI   O2221465   0.472   3.114   6.475 -0.2997 -0.4081  0.0512
  187SAPI   C2221466   0.643   3.212   6.613 -0.2642 -0.2741 -0.3703
  187SAPI   H2R21467   0.695   3.181   6.705  0.8145 -1.7828 -1.4411
  187SAPI   H2S21468   0.727   3.238   6.545  1.3661  0.8886  1.9933
  187SAPI    C321469   0.367   2.897   6.685 -0.6984 -0.4149  0.0878
  187SAPI    HX21470   0.287   2.822   6.670 -0.1429 -1.0187  0.1182
  187SAPI    HY21471   0.316   2.990   6.650 -0.8255 -0.1801  0.8783
  187SAPI   O3121472   0.405   2.890   6.825  0.0284  0.1869  0.4169
  187SAPI   C3121473   0.404   3.004   6.884  0.8414 -0.0610 -0.0583
  187SAPI   O3221474   0.335   3.101   6.855  0.0645  0.7334  0.0558
  187SAPI   C3221475   0.512   2.997   6.995 -0.4555  0.5245 -0.3221
  187SAPI   H2X21476   0.606   2.978   6.938 -1.0359 -1.1663 -0.7817
  187SAPI   H2Y21477   0.484   2.910   7.059 -1.0327  0.9367 -0.0081
  187SAPI   C2321478   0.556   3.340   6.634 -0.0958 -0.1884  0.2390
  187SAPI   H3R21479   0.506   3.314   6.730  0.7698 -4.0678 -0.1945
  187SAPI   H3S21480   0.479   3.343   6.553  1.1333 -0.5220 -0.9822
  187SAPI   C2421481   0.638   3.469   6.635 -0.3794  0.7865 -0.2598
  187SAPI   H4R21482   0.573   3.559   6.640 -0.0903  0.9972 -0.3279
  187SAPI   H4S21483   0.708   3.477   6.550  0.4196 -1.4588  0.1068
  187SAPI   C2521484   0.730   3.476   6.755  0.8357  0.0931  0.0894
  187SAPI   H5R21485   0.831   3.447   6.720  2.1726  1.3416  2.6149
  187SAPI   C2621486   0.694   3.502   6.886  0.0857  0.1781  0.3765
  187SAPI   H6R21487   0.776   3.491   6.959 -0.2060 -0.2341  0.6444
  187SAPI   C2721488   0.557   3.531   6.941  0.0049  0.0273 -0.2622
  187SAPI   H7R21489   0.526   3.449   7.010  0.0259 -0.3583 -0.7100
  187SAPI   H7S21490   0.488   3.544   6.856 -1.2002 -2.6623  0.1893
  187SAPI   C2821491   0.563   3.656   7.029 -0.0268 -0.1511  0.1188
  187SAPI   H8R21492   0.584   3.745   6.968 -1.0284 -0.0732 -0.1287
  187SAPI   C2921493   0.547   3.672   7.162  0.0868  0.1999  0.5124
  187SAPI   H9R21494   0.544   3.775   7.200  0.3996 -0.0708  1.2738
  187SAPI  C21021495   0.528   3.568   7.274  0.0633 -0.0722 -0.3252
  187SAPI  H10R21496   0.628   3.552   7.321  0.1141  0.7784 -0.1267
  187SAPI  H10S21497   0.501   3.467   7.237  1.5193 -1.5186  2.2756
  187SAPI  C21121498   0.426   3.634   7.367  0.0824 -0.0724 -0.3103
  187SAPI  H11R21499   0.340   3.685   7.321 -1.9638 -1.6586  1.5347
  187SAPI  C21221500   0.428   3.619   7.505 -0.9010 -0.7419  0.8238
  187SAPI  H12R21501   0.356   3.678   7.564 -1.2238  0.2975 -0.5549
  187SAPI  C21321502   0.522   3.545   7.590  0.4971  0.1549  0.5332
  187SAPI  H13R21503   0.570   3.625   7.650 -0.0955 -0.0157  1.2461
  187SAPI  H13S21504   0.615   3.507   7.542  0.3528  0.5056 -0.0410
  187SAPI  C21421505   0.470   3.434   7.682  0.4209  0.1907  0.1145
  187SAPI  H14R21506   0.506   3.337   7.645  2.2147  1.1961 -0.9111
  187SAPI  C21521507   0.384   3.452   7.782  0.4330 -0.9837  0.6793
  187SAPI  H15R21508   0.366   3.361   7.841  0.9507 -0.4633  1.6483
  187SAPI  C21621509   0.311   3.575   7.830  0.5763  0.1885 -0.2184
  187SAPI  H16R21510   0.207   3.548   7.858  0.0172  0.9574 -1.4881
  187SAPI  H16S21511   0.312   3.661   7.759 -3.1796  1.3265  0.8729
  187SAPI  C21721512   0.369   3.608   7.969 -0.1256 -0.4738 -0.4716
  187SAPI  H17R21513   0.472   3.650   7.961  0.2857 -1.3100  0.2391
  187SAPI  H17S21514   0.380   3.521   8.036  4.0652  0.7366  0.7429
  187SAPI  C21821515   0.271   3.706   8.054  0.2501 -0.1692 -0.8066
  187SAPI  H18R21516   0.165   3.674   8.042 -0.8410  2.1698  1.5850
  187SAPI  H18S21517   0.281   3.802   7.999  0.2861 -0.9798 -2.2781
  187SAPI  C21921518   0.320   3.725   8.196  1.1334 -0.1206 -0.2848
  187SAPI  H19R21519   0.277   3.822   8.230 -0.6624 -0.7288 -0.7233
  187SAPI  H19S21520   0.431   3.736   8.201  1.1487  0.2912 -1.2197
  187SAPI  C22021521   0.267   3.622   8.295 -0.3457  0.6151  0.4442
  187SAPI  H20R21522   0.313   3.524   8.272  1.1964  1.3074  0.5049
  187SAPI  H20S21523   0.157   3.628   8.280 -0.2179  0.9797 -0.3908
  187SAPI  H20T21524   0.279   3.648   8.403  0.2577 -0.6465  0.6986
  187SAPI   C3321525   0.521   3.132   7.082 -0.8486  0.1822 -0.3585
  187SAPI   H3X21526   0.420   3.156   7.120 -0.5378  1.1905 -0.1447
  187SAPI   H3Y21527   0.556   3.224   7.030 -0.1759  1.0940  1.6180
  187SAPI   C3421528   0.617   3.100   7.202  0.3353 -0.5658  0.8163
  187SAPI   H4X21529   0.721   3.116   7.169  0.0535 -1.6428 -0.7357
  187SAPI   H4Y21530   0.601   2.995   7.235 -0.2743  0.0444  2.5768
  187SAPI   C3521531   0.591   3.200   7.321 -0.3012 -0.0486  0.4440
  187SAPI   H5X21532   0.485   3.207   7.355 -0.7570 -2.0363 -0.4164
  187SAPI   H5Y21533   0.631   3.295   7.280  3.5386 -0.5614  2.5415
  187SAPI   C3621534   0.677   3.160   7.439  0.7139  0.4907 -1.0047
  187SAPI   H6X21535   0.702   3.248   7.503  0.7433 -0.8290  0.9051
  187SAPI   H6Y21536   0.777   3.133   7.399  0.2654 -0.4966 -1.4828
  187SAPI   C3721537   0.614   3.059   7.536 -0.6676  0.0969  0.1977
  187SAPI   H7X21538   0.588   2.968   7.479  0.6980  0.4650 -1.0782
  187SAPI   H7Y21539   0.531   3.102   7.597 -1.5661 -2.7850  1.1813
  187SAPI   C3821540   0.717   3.012   7.638 -0.0547 -0.0597 -0.8328
  187SAPI   H8X21541   0.815   3.002   7.586 -0.1385 -2.5108 -0.6347
  187SAPI   H8Y21542   0.699   2.909   7.676  1.7442  0.8006  2.8616
  187SAPI   C3921543   0.740   3.106   7.767 -0.5074  0.2181  0.8334
  187SAPI   H9X21544   0.757   3.207   7.724 -1.9247  0.5456  0.9844
  187SAPI   H9Y21545   0.831   3.072   7.821  0.3894  0.2934 -0.6022
  187SAPI  C31021546   0.623   3.114   7.865 -0.7945 -0.2312 -0.3396
  187SAPI  H10X21547   0.588   3.022   7.916 -0.8290  0.3106  0.6505
  187SAPI  H10Y21548   0.536   3.152   7.808 -0.6356 -0.6348 -0.8586
  187SAPI  C31121549   0.654   3.223   7.976  0.4604  0.0785  0.3838
  187SAPI  H11X21550   0.555   3.258   8.011 -0.1490 -0.4443 -0.7568
  187SAPI  H11Y21551   0.702   3.315   7.936 -0.1796  1.9013  3.4919
  187SAPI  C31221552   0.740   3.167   8.092 -0.1545  0.1774 -0.7703
  187SAPI  H12X21553   0.829   3.124   8.040  0.3275  0.4499 -0.1790
  187SAPI  H12Y21554   0.676   3.090   8.138  0.3479 -0.6573 -1.4315
  187SAPI  C31321555   0.775   3.273   8.197  0.0603 -0.8889  0.2271
  187SAPI  H13X21556   0.828   3.358   8.148 -0.9938 -0.1923  0.2628
  187SAPI  H13Y21557   0.845   3.228   8.270 -1.3514  0.4416  2.4934
  187SAPI  C31421558   0.656   3.325   8.277 -0.2824 -0.5587  0.0259
  187SAPI  H14X21559   0.592   3.236   8.297 -0.7229 -0.3023 -0.2163
  187SAPI  H14Y21560   0.601   3.403   8.220  2.0609 -0.9688 -3.0749
  187SAPI  C31521561   0.708   3.402   8.403  0.0872 -0.5861  0.1194
  187SAPI  H15X21562   0.767   3.488   8.363 -1.4366  0.3544 -0.1889
  187SAPI  H15Y21563   0.792   3.342   8.445 -0.1520 -1.5958 -0.8029
  187SAPI  C31621564   0.616   3.464   8.510  0.4235  0.2287 -0.3998
  187SAPI  H16X21565   0.605   3.574   8.500 -2.3071 -0.1386 -2.8518
  187SAPI  H16Y21566   0.662   3.432   8.606  2.0662 -0.2259 -1.2934
  187SAPI  C31721567   0.474   3.411   8.511 -0.3474  0.4173  0.4812
  187SAPI  H17X21568   0.472   3.300   8.518  1.8646  0.4003  1.4770
  187SAPI  H17Y21569   0.431   3.435   8.412  0.3811  0.7542  0.2430
  187SAPI  C31821570   0.374   3.464   8.616 -0.5287 -0.3218  0.4224
  187SAPI  H18X21571   0.407   3.415   8.710 -1.8874  0.3075  1.2557
  187SAPI  H18Y21572   0.269   3.433   8.599 -0.0940 -1.2734 -0.7151
  187SAPI  H18Z21573   0.378   3.575   8.622 -1.8592 -0.2594  0.3403
  188SAPI   C1221574   1.312   5.438   6.341 -0.5475  0.3780 -0.2146
  188SAPI    H221575   1.384   5.406   6.263  0.2248 -0.5608  0.8470
  188SAPI    O221576   1.320   5.578   6.359 -0.1459 -0.2729  0.0941
  188SAPI   HO221577   1.398   5.584   6.415 -1.0905  0.3666  1.3973
  188SAPI   C1321578   1.172   5.402   6.303  0.5148  0.3199  0.2694
  188SAPI    H321579   1.175   5.292   6.286  3.5753  0.0897  1.5782
  188SAPI    O321580   1.132   5.459   6.176  0.3629  0.3509 -0.2210
  188SAPI   HO321581   1.039   5.484   6.176  0.8443  2.3334  0.4417
  188SAPI   C1421582   1.069   5.422   6.414 -0.2728 -0.4666  0.4863
  188SAPI    H421583   1.059   5.527   6.449 -0.5519 -0.5800  0.7495
  188SAPI    O421584   0.939   5.372   6.379 -0.0286  0.2870  0.5077
  188SAPI   HO421585   0.895   5.431   6.318  0.4288  0.6655  0.5346
  188SAPI   C1521586   1.114   5.347   6.537 -0.0400 -0.7688 -0.3037
  188SAPI    H521587   1.127   5.242   6.506  1.9843 -0.6768  0.1268
  188SAPI    O521588   1.015   5.352   6.643 -0.0177 -0.2288 -0.2467
  188SAPI   HO521589   1.011   5.262   6.677  0.3746 -0.1454  0.0247
  188SAPI   C1621590   1.251   5.396   6.575 -0.1385 -0.3062  0.1180
  188SAPI    H621591   1.255   5.504   6.601 -1.0696 -0.3713  0.5582
  188SAPI    O621592   1.289   5.320   6.691  0.3021 -0.0115  0.2658
  188SAPI   HO621593   1.292   5.228   6.663 -0.9132 -0.2661  0.9272
  188SAPI   C1121594   1.352   5.367   6.474 -0.1882 -0.5879  0.6347
  188SAPI    H121595   1.347   5.258   6.450  2.3252 -0.1948 -2.2044
  188SAPI     P21596   1.619   5.325   6.513 -0.0735 -0.2807  0.3916
  188SAPI   O1321597   1.730   5.420   6.529 -0.8096  0.1900  0.0458
  188SAPI   O1421598   1.614   5.244   6.388  0.2740  0.0038 -0.5836
  188SAPI   O1221599   1.482   5.410   6.511  0.3663 -0.3727 -0.7372
  188SAPI   O1121600   1.608   5.235   6.640  0.4385  0.2658 -0.0851
  188SAPI    C121601   1.674   5.107   6.659  0.4859 -1.3589 -0.1459
  188SAPI    HA21602   1.610   5.019   6.637  1.3100 -2.3296  1.2158
  188SAPI    HB21603   1.771   5.098   6.605  1.0176 -2.1262  0.9017
  188SAPI    C221604   1.731   5.104   6.810  0.3236 -0.8016 -0.1264
  188SAPI    HS21605   1.656   5.056   6.876  0.7373  1.4501  2.1797
  188SAPI   O2121606   1.761   5.234   6.860  0.4031 -0.9690  0.2399
  188SAPI   C2121607   1.861   5.306   6.813  0.8290 -0.1193  0.1000
  188SAPI   O2221608   1.945   5.266   6.737  0.5661 -0.0171  0.1173
  188SAPI   C2221609   1.854   5.448   6.860  0.3998  0.0362  1.0832
  188SAPI   H2R21610   1.836   5.512   6.771  1.3666  1.1357  1.6551
  188SAPI   H2S21611   1.765   5.451   6.926 -0.8351 -2.9622 -0.2730
  188SAPI    C321612   1.853   5.012   6.830  0.1252  0.6583 -0.2784
  188SAPI    HX21613   1.935   5.048   6.764  0.7000  0.4418  0.3043
  188SAPI    HY21614   1.825   4.909   6.799  2.2507  0.5393 -2.0614
  188SAPI   O3121615   1.894   5.000   6.966 -0.0357  0.9485 -0.4682
  188SAPI   C3121616   1.836   4.901   7.044 -0.6501 -0.1005  0.1978
  188SAPI   O3221617   1.754   4.820   7.005  0.5874  0.1784 -0.1179
  188SAPI   C3221618   1.881   4.919   7.187 -0.2871  0.0100 -0.2104
  188SAPI   H2X21619   1.839   5.007   7.241  0.2616  0.1030  0.0750
  188SAPI   H2Y21620   1.992   4.932   7.189  0.0081 -2.1776  0.7917
  188SAPI   C2321621   1.986   5.498   6.926  0.5741 -0.0202  0.2951
  188SAPI   H3R21622   2.005   5.607   6.917  2.3889 -0.3404 -0.1503
  188SAPI   H3S21623   2.071   5.454   6.869  0.7438  0.0665  0.4782
  188SAPI   C2421624   1.977   5.447   7.066  0.2935 -0.2335 -0.4688
  188SAPI   H4R21625   1.924   5.350   7.056  0.8858 -0.5004 -1.1264
  188SAPI   H4S21626   1.914   5.516   7.126 -0.6722 -1.4347 -0.0743
  188SAPI   C2521627   2.107   5.429   7.134  0.1865  0.1341  0.1142
  188SAPI   H5R21628   2.185   5.389   7.068  0.8525 -0.0508  0.9823
  188SAPI   C2621629   2.141   5.456   7.257  0.8984 -0.4667  0.1176
  188SAPI   H6R21630   2.243   5.443   7.296 -0.1582  3.2899  5.3078
  188SAPI   C2721631   2.048   5.531   7.358  0.3781 -0.3278  0.1359
  188SAPI   H7R21632   2.066   5.476   7.453  3.9501  1.4505  0.6909
  188SAPI   H7S21633   1.941   5.537   7.330  0.8216 -0.5214 -1.8153
  188SAPI   C2821634   2.086   5.672   7.393 -0.3541  0.4376  0.2369
  188SAPI   H8R21635   2.134   5.720   7.306  1.4018 -1.7018 -0.0595
  188SAPI   C2921636   2.086   5.731   7.511 -0.7111 -0.2994 -0.7481
  188SAPI   H9R21637   2.136   5.829   7.519 -0.0551 -0.6550 -0.4631
  188SAPI  C21021638   2.046   5.672   7.648 -0.2533  0.4145 -1.0936
  188SAPI  H10R21639   2.141   5.660   7.705 -0.4957  0.1610 -0.7359
  188SAPI  H10S21640   2.010   5.567   7.637 -3.3147  0.8671  2.6084
  188SAPI  C21121641   1.933   5.768   7.706  0.0155 -0.8418  0.1045
  188SAPI  H11R21642   1.859   5.801   7.631 -0.6364  0.4484  1.2709
  188SAPI  C21221643   1.932   5.811   7.830  0.4796  0.1372 -1.4502
  188SAPI  H12R21644   1.854   5.877   7.869  0.5535  0.3029 -1.5797
  188SAPI  C21321645   2.024   5.776   7.947  0.1790 -0.2689 -0.0027
  188SAPI  H13R21646   1.990   5.832   8.036 -1.1618  3.1600 -2.4317
  188SAPI  H13S21647   2.121   5.820   7.914 -0.4030  0.4421 -0.8315
  188SAPI  C21421648   2.041   5.632   7.981 -0.2588  0.3984 -0.5036
  188SAPI  H14R21649   2.013   5.565   7.899 -0.1176 -0.0506 -0.1898
  188SAPI  C21521650   2.078   5.567   8.097  0.3266 -0.4028 -0.6972
  188SAPI  H15R21651   2.086   5.457   8.099 -1.2489 -0.5354 -0.7387
  188SAPI  C21621652   2.098   5.632   8.233 -0.3081 -0.3207 -0.4614
  188SAPI  H16R21653   2.036   5.584   8.312 -2.1882  1.4003 -0.8030
  188SAPI  H16S21654   2.062   5.737   8.239 -1.0635 -0.6591  1.3892
  188SAPI  C21721655   2.246   5.605   8.266  0.0591  0.0310 -0.2668
  188SAPI  H17R21656   2.269   5.496   8.263 -1.8323 -0.3828 -1.4858
  188SAPI  H17S21657   2.265   5.629   8.373 -0.0696  2.0740 -0.6566
  188SAPI  C21821658   2.348   5.665   8.167 -0.3762 -0.1001 -0.1821
  188SAPI  H18R21659   2.323   5.773   8.161 -1.5780 -0.4471 -2.5984
  188SAPI  H18S21660   2.346   5.611   8.070  2.4030 -2.1776  0.7791
  188SAPI  C21921661   2.493   5.653   8.226 -0.5010 -0.4379  0.5401
  188SAPI  H19R21662   2.508   5.542   8.226 -0.4686 -0.4338  0.0016
  188SAPI  H19S21663   2.494   5.669   8.336 -0.8418 -3.8269  1.1740
  188SAPI  C22021664   2.588   5.729   8.134  0.4884 -0.1139  0.1422
  188SAPI  H20R21665   2.690   5.733   8.178 -0.0262 -0.4721  1.4316
  188SAPI  H20S21666   2.558   5.836   8.125  3.0168  0.6145 -0.5119
  188SAPI  H20T21667   2.586   5.691   8.030  1.1640  0.8696 -0.2519
  188SAPI   C3321668   1.878   4.781   7.257  0.1409 -0.2888  0.1326
  188SAPI   H3X21669   1.981   4.743   7.269  0.3792  0.2319 -0.2219
  188SAPI   H3Y21670   1.840   4.700   7.191 -0.2676  0.8615 -1.1123
  188SAPI   C3421671   1.804   4.781   7.388  0.1163 -0.4790 -0.6404
  188SAPI   H4X21672   1.791   4.679   7.428  0.1988 -0.6101 -0.9501
  188SAPI   H4Y21673   1.707   4.836   7.382  1.0102  1.1886 -0.5544
  188SAPI   C3521674   1.884   4.859   7.491 -0.5189 -0.2261  0.5117
  188SAPI   H5X21675   1.879   4.961   7.448  0.9741 -1.2720 -2.4862
  188SAPI   H5Y21676   1.990   4.829   7.504 -0.9306 -1.5274  1.0904
  188SAPI   C3621677   1.826   4.854   7.638  0.2338  0.4966  0.3329
  188SAPI   H6X21678   1.820   4.747   7.666 -0.5047  1.0878  2.6456
  188SAPI   H6Y21679   1.721   4.892   7.637 -0.7674 -2.0889  0.2477
  188SAPI   C3721680   1.903   4.939   7.737  0.0218 -0.2118  0.8885
  188SAPI   H7X21681   1.919   5.042   7.701  3.5791 -0.7662  0.5604
  188SAPI   H7Y21682   2.000   4.894   7.766 -0.9867 -1.4382  2.5932
  188SAPI   C3821683   1.809   4.964   7.858 -0.1435  0.0356  0.0901
  188SAPI   H8X21684   1.703   4.971   7.826 -0.2398  0.5072  0.4841
  188SAPI   H8Y21685   1.835   5.062   7.904  0.6701 -0.5271  0.8720
  188SAPI   C3921686   1.818   4.855   7.967  0.0026  0.4883  0.4938
  188SAPI   H9X21687   1.926   4.842   7.992  0.6749  0.1982 -2.2841
  188SAPI   H9Y21688   1.777   4.762   7.922 -1.9020  1.0822  0.9454
  188SAPI  C31021689   1.731   4.900   8.089  0.2235 -0.4900  0.0545
  188SAPI  H10X21690   1.631   4.938   8.059 -0.0180 -1.0947  0.0828
  188SAPI  H10Y21691   1.787   4.981   8.141 -0.3738  1.6374 -2.4254
  188SAPI  C31121692   1.682   4.795   8.192  0.8423  0.2718  0.4310
  188SAPI  H11X21693   1.641   4.703   8.146  2.4918 -0.0000 -0.5694
  188SAPI  H11Y21694   1.599   4.843   8.248 -0.1467 -0.8782 -0.0219
  188SAPI  C31221695   1.792   4.740   8.283 -0.0576  0.5128  0.1641
  188SAPI  H12X21696   1.832   4.827   8.339  0.9361 -0.0181  0.2999
  188SAPI  H12Y21697   1.880   4.708   8.222 -0.3814 -0.6535  0.2839
  188SAPI  C31321698   1.741   4.631   8.377 -0.1616  0.1713 -0.3889
  188SAPI  H13X21699   1.822   4.561   8.406 -0.5004 -0.5473 -1.1315
  188SAPI  H13Y21700   1.670   4.566   8.321 -0.3588 -0.3574  0.4526
  188SAPI  C31421701   1.663   4.689   8.501  0.3763 -0.7127  0.0631
  188SAPI  H14X21702   1.569   4.631   8.512 -2.7885  4.1555  2.0817
  188SAPI  H14Y21703   1.617   4.784   8.467 -1.9813 -2.7354 -2.9882
  188SAPI  C31521704   1.755   4.696   8.623 -0.7524 -0.1423 -0.0875
  188SAPI  H15X21705   1.854   4.741   8.601 -2.1857  3.1781 -0.3189
  188SAPI  H15Y21706   1.769   4.594   8.665 -2.6654 -0.7021 -0.6928
  188SAPI  C31621707   1.699   4.779   8.743  0.4019  0.2574  0.1034
  188SAPI  H16X21708   1.598   4.742   8.771  0.5145 -0.1299  0.0017
  188SAPI  H16Y21709   1.697   4.885   8.711  0.1596  0.3132  0.3001
  188SAPI  C31721710   1.783   4.785   8.870  0.9811 -0.2119  0.7312
  188SAPI  H17X21711   1.888   4.798   8.836  1.4461 -1.4208  1.6595
  188SAPI  H17Y21712   1.788   4.696   8.936 -1.7449 -0.0756  1.2271
  188SAPI  C31821713   1.744   4.908   8.963  0.4310 -0.3588  0.1991
  188SAPI  H18X21714   1.741   5.006   8.910 -0.7906 -1.5791 -2.1349
  188SAPI  H18Y21715   1.806   4.913   9.055  1.4574  1.7806 -0.5417
  188SAPI  H18Z21716   1.640   4.891   8.996  0.8157  0.7172  2.1415
  189POPC     N21717   0.639   0.961  11.057  0.7194 -0.5881 -0.2092
  189POPC   C1221718   0.619   0.984  10.916  0.5465 -0.2336  0.7325
  189POPC  H12A21719   0.660   1.080  10.887  1.5383 -0.3195  1.8330
  189POPC  H12B21720   0.512   0.985  10.897  0.0870 -3.2735  2.5467
  189POPC   C1321721   0.588   0.824  11.094  0.5918  0.4620  0.5281
  189POPC  H13A21722   0.624   0.774  11.006 -0.0145  1.6058 -0.3985
  189POPC  H13B21723   0.618   0.782  11.189 -0.0246  0.3734  0.6856
  189POPC  H13C21724   0.481   0.819  11.079  1.0524 -0.9349 -3.6940
  189POPC   C1421725   0.783   0.959  11.094 -0.5925 -0.1447  0.0571
  189POPC  H14A21726   0.801   0.904  11.185  1.0883 -0.9174 -0.6963
  189POPC  H14B21727   0.828   0.889  11.025 -2.4089 -2.1920  0.8191
  189POPC  H14C21728   0.826   1.057  11.083 -2.0044  0.2921 -2.2595
  189POPC   C1521729   0.557   1.063  11.130 -0.2066 -0.2462  0.1024
  189POPC  H15A21730   0.573   1.070  11.236  1.7743  3.8456 -0.2621
  189POPC  H15B21731   0.456   1.040  11.100  0.3925 -0.8842 -1.5525
  189POPC  H15C21732   0.574   1.160  11.085 -1.7201 -0.4752 -1.0728
  189POPC   C1121733   0.674   0.877  10.810  0.2348  0.4457 -0.0184
  189POPC  H11A21734   0.784   0.866  10.813  0.8563  4.2599 -2.0036
  189POPC  H11B21735   0.653   0.929  10.714 -2.1966  2.2612  1.3732
  189POPC     P21736   0.471   0.721  10.747  0.3060 -0.4433  0.0333
  189POPC   O1321737   0.365   0.815  10.797 -0.3713  0.4897  0.0875
  189POPC   O1421738   0.436   0.581  10.771  0.5547  0.0550 -0.9890
  189POPC   O1221739   0.610   0.747  10.824  0.0103  0.0307  0.3145
  189POPC   O1121740   0.523   0.741  10.597 -0.1177 -0.4265 -0.4894
  189POPC    C121741   0.621   0.657  10.537  0.0037  0.4256 -0.1804
  189POPC    HA21742   0.687   0.605  10.609 -1.7218  0.6150  1.6133
  189POPC    HB21743   0.694   0.715  10.476  1.1866 -2.1253 -1.3587
  189POPC    C221744   0.576   0.560  10.424  0.1971  0.0076 -0.6922
  189POPC    HS21745   0.668   0.526  10.371  1.0868  0.6257  0.4130
  189POPC   O2121746   0.481   0.628  10.335  0.1367 -0.5522  0.2948
  189POPC   C2121747   0.506   0.652  10.209 -1.0051  0.6348 -0.3742
  189POPC   O2221748   0.609   0.624  10.147  0.2566  0.8202 -0.2093
  189POPC   C2221749   0.392   0.714  10.137 -0.2089  0.2998  0.4085
  189POPC   H2R21750   0.447   0.795  10.085  3.1004 -2.0774 -0.1589
  189POPC   H2S21751   0.316   0.762  10.202 -0.4648  0.9899 -0.3806
  189POPC    C321752   0.510   0.439  10.496 -0.6057 -0.0812  0.8691
  189POPC    HX21753   0.422   0.465  10.560 -1.4070 -0.1785 -0.1691
  189POPC    HY21754   0.596   0.399  10.554  1.3721 -2.3322 -3.2425
  189POPC   O3121755   0.475   0.345  10.394 -0.1270  0.2984  0.5145
  189POPC   C3121756   0.581   0.272  10.350  1.3902  0.7099  0.1665
  189POPC   O3221757   0.689   0.267  10.402 -0.2925 -0.0271  0.8772
  189POPC   C3221758   0.538   0.207  10.223  0.2374 -0.0063 -1.4696
  189POPC   H2X21759   0.457   0.136  10.252  3.2082 -2.6383  1.2551
  189POPC   H2Y21760   0.625   0.139  10.205  1.3222  0.5873  1.1683
  189POPC   C2321761   0.333   0.626  10.025  0.1009  0.0241 -0.0284
  189POPC   H3R21762   0.240   0.598  10.078  0.6529  1.3304  1.7375
  189POPC   H3S21763   0.401   0.539  10.012  0.3227 -0.2041  2.3018
  189POPC   C2421764   0.298   0.689   9.889 -0.1724 -0.1274  0.2984
  189POPC   H4R21765   0.242   0.785   9.901 -1.0060  0.0252 -3.5830
  189POPC   H4S21766   0.244   0.620   9.821  0.5328 -0.4936  0.1010
  189POPC   C2521767   0.420   0.709   9.805  0.3137 -0.0183  0.6538
  189POPC   H5R21768   0.486   0.621   9.822 -0.5771 -0.5792  1.3339
  189POPC   H5S21769   0.482   0.792   9.846 -0.0590 -0.4273  2.0954
  189POPC   C2621770   0.385   0.741   9.658 -0.1495  0.6536 -0.3656
  189POPC   H6R21771   0.314   0.826   9.653 -0.0609  0.6713 -1.6022
  189POPC   H6S21772   0.325   0.654   9.623  0.2894 -0.2024  0.9099
  189POPC   C2721773   0.516   0.759   9.571  0.6528 -0.1859 -0.1066
  189POPC   H7R21774   0.577   0.670   9.595 -0.1652 -1.3034 -1.9113
  189POPC   H7S21775   0.567   0.852   9.604 -0.5862  2.4470 -4.6730
  189POPC   C2821776   0.492   0.770   9.420 -0.0998  0.1355  0.6497
  189POPC   H8R21777   0.594   0.777   9.376 -0.3181  0.7591  0.2385
  189POPC   H8S21778   0.451   0.871   9.399  1.8280  1.4638  2.7415
  189POPC   C2921779   0.405   0.663   9.357  0.0307  0.0971  0.8301
  189POPC   H9121780   0.317   0.624   9.410  0.6292 -1.4225  0.7529
  189POPC  C21021781   0.421   0.611   9.231  0.5515  0.0324 -0.7628
  189POPC  H10121782   0.348   0.533   9.206 -0.8223  0.4337  1.7237
  189POPC  C21121783   0.528   0.643   9.129 -0.3889 -0.1568 -0.5185
  189POPC  H11R21784   0.602   0.564   9.107  0.7562  0.7563 -0.0500
  189POPC  H11S21785   0.591   0.722   9.175 -3.2607  2.3593 -0.5631
  189POPC  C21221786   0.474   0.700   8.993  0.2921  0.4437 -0.4298
  189POPC  H12R21787   0.550   0.764   8.942 -0.5928  0.4905 -1.7437
  189POPC  H12S21788   0.381   0.760   8.998  1.3739  2.1369  0.3968
  189POPC  C21321789   0.452   0.584   8.890 -0.2464  0.1847 -0.4165
  189POPC  H13R21790   0.355   0.533   8.906  0.6007 -1.4791 -0.4164
  189POPC  H13S21791   0.547   0.527   8.902 -1.0167 -0.7783  1.4103
  189POPC  C21421792   0.453   0.618   8.736 -0.6963 -0.2415 -0.0963
  189POPC  H14R21793   0.560   0.640   8.718 -0.4361 -1.0425  0.4375
  189POPC  H14S21794   0.398   0.714   8.725 -0.3356 -0.1464 -1.1337
  189POPC  C21521795   0.391   0.502   8.658  0.4553 -0.0575 -0.5235
  189POPC  H15R21796   0.287   0.484   8.693  1.4661  1.0449  3.7159
  189POPC  H15S21797   0.463   0.419   8.672  1.6466  0.3523 -3.4283
  189POPC  C21621798   0.387   0.523   8.504 -0.0166 -0.3897 -0.1700
  189POPC  H16R21799   0.485   0.570   8.480 -1.3617  2.3631 -0.6724
  189POPC  H16S21800   0.309   0.599   8.483 -1.5402 -1.3274  1.8432
  189POPC  C21721801   0.358   0.394   8.430  0.1960  0.1369  0.0726
  189POPC  H17R21802   0.272   0.345   8.480 -1.4578 -0.2046 -2.8445
  189POPC  H17S21803   0.454   0.339   8.437  0.5123  0.1476 -2.7707
  189POPC  C21821804   0.342   0.410   8.275  0.2624 -0.8631  0.1795
  189POPC  H18R21805   0.336   0.318   8.213 -0.9607 -0.1542 -0.8049
  189POPC  H18S21806   0.426   0.460   8.224 -1.1215  0.2636 -1.1057
  189POPC  H18T21807   0.253   0.471   8.247  1.3309  0.5805 -0.1436
  189POPC   C3321808   0.499   0.295  10.107 -0.1062 -0.3843 -0.3009
  189POPC   H3X21809   0.575   0.374  10.087  0.4988 -0.2244  2.2319
  189POPC   H3Y21810   0.402   0.344  10.128  0.1877  0.7248 -1.3908
  189POPC   C3421811   0.482   0.204   9.981  0.2332  0.1075  0.2793
  189POPC   H4X21812   0.396   0.138  10.005  0.7055 -1.9434 -2.9512
  189POPC   H4Y21813   0.569   0.147   9.943  0.7549 -0.1342  1.8006
  189POPC   C3521814   0.445   0.287   9.852 -0.3283  0.7147 -0.1369
  189POPC   H5X21815   0.527   0.353   9.818 -1.0468  0.5700 -2.3079
  189POPC   H5Y21816   0.356   0.351   9.872 -0.8570 -0.6490  2.3331
  189POPC   C3621817   0.412   0.194   9.726  0.0143 -0.0291  0.2522
  189POPC   H6X21818   0.314   0.143   9.729  1.1270 -2.4006 -1.0872
  189POPC   H6Y21819   0.492   0.119   9.706  1.2284  1.3671 -0.3320
  189POPC   C3721820   0.414   0.281   9.605  0.8216 -0.0486  0.4056
  189POPC   H7X21821   0.514   0.327   9.594 -0.2129  1.9256 -1.8923
  189POPC   H7Y21822   0.337   0.361   9.611  1.5839  0.8580 -1.1474
  189POPC   C3821823   0.375   0.203   9.472  0.1539  0.2736  0.0087
  189POPC   H8X21824   0.289   0.134   9.490 -0.6123  1.4069  0.8029
  189POPC   H8Y21825   0.455   0.130   9.447 -1.4819 -1.6284  0.0861
  189POPC   C3921826   0.341   0.284   9.351  0.0913  0.0146  0.0029
  189POPC   H9X21827   0.429   0.347   9.330  1.4370 -1.8730 -0.2751
  189POPC   H9Y21828   0.246   0.341   9.357 -0.0074 -0.0603 -0.8386
  189POPC  C31021829   0.328   0.201   9.223  0.4204 -0.8765  0.1599
  189POPC  H10X21830   0.236   0.139   9.228 -0.0986 -0.0336  2.7835
  189POPC  H10Y21831   0.407   0.123   9.216  0.2341 -1.0877  0.3972
  189POPC  C31121832   0.322   0.288   9.097  0.3402  1.0528  0.1608
  189POPC  H11X21833   0.412   0.350   9.073 -0.0800  0.8426 -2.2140
  189POPC  H11Y21834   0.248   0.368   9.077  3.2810  3.6504 -1.2430
  189POPC  C31221835   0.304   0.201   8.967  0.5174  0.9529 -0.3611
  189POPC  H12X21836   0.228   0.250   8.903 -0.9867  1.0565  1.4015
  189POPC  H12Y21837   0.270   0.096   8.986  2.2972  0.2274 -0.9887
  189POPC  C31321838   0.438   0.203   8.895  0.0205  0.6149 -0.3071
  189POPC  H13X21839   0.514   0.166   8.966  1.4942 -0.9927 -2.5935
  189POPC  H13Y21840   0.457   0.308   8.863  1.1566  0.3161 -0.6365
  189POPC  C31421841   0.433   0.098   8.785 -0.1573  0.3563 -0.3400
  189POPC  H14X21842   0.349   0.117   8.715  0.8640  3.3731 -0.9239
  189POPC  H14Y21843   0.404   0.005   8.837 -1.0636 -0.5038 -2.2657
  189POPC  C31521844   0.562   0.067   8.702  0.4087 -0.1118  0.2895
  189POPC  H15X21845   0.641   0.026   8.769  0.0567  0.2055  0.9112
  189POPC  H15Y21846   0.604   0.161   8.660 -1.2972 -0.1327 -1.5986
  189POPC  C31621847   0.552  -0.029   8.580 -0.1008 -0.4937 -0.0544
  189POPC  H16X21848   0.564  -0.135   8.613 -0.5619 -0.0872  1.4675
  189POPC  H16Y21849   0.628  -0.002   8.504  0.6392  2.8718  1.7144
  189POPC  H16Z21850   0.453  -0.010   8.533  0.8415  1.0048 -1.5258
  190POPC     N21851   3.289   4.147  11.275  0.5768  0.1257  0.2330
  190POPC   C1221852   3.214   4.274  11.248  0.4963  0.2265 -1.0620
  190POPC  H12A21853   3.237   4.334  11.334 -0.7851 -0.8700  0.0905
  190POPC  H12B21854   3.109   4.256  11.263  0.0958  1.8281 -1.7458
  190POPC   C1321855   3.434   4.181  11.293 -0.6935  0.3057  0.1783
  190POPC  H13A21856   3.443   4.234  11.386 -0.2895  0.8155 -0.1412
  190POPC  H13B21857   3.495   4.091  11.300 -0.5680  0.3493 -0.3092
  190POPC  H13C21858   3.482   4.232  11.210 -0.7219  0.3375  0.1820
  190POPC   C1421859   3.239   4.070  11.388  0.2597  1.0185 -0.4721
  190POPC  H14A21860   3.134   4.043  11.382  0.5473 -0.8459  1.5351
  190POPC  H14B21861   3.301   3.983  11.400  0.1885  0.9978 -0.2349
  190POPC  H14C21862   3.244   4.134  11.475 -1.4333  0.4130  0.1255
  190POPC   C1521863   3.275   4.050  11.149 -0.0076  0.7316  0.2007
  190POPC  H15A21864   3.287   4.099  11.053  2.6411 -1.8697 -0.9528
  190POPC  H15B21865   3.174   4.012  11.153 -0.4775  1.7200 -1.3855
  190POPC  H15C21866   3.345   3.968  11.150 -0.8940 -0.1774 -2.7796
  190POPC   C1121867   3.232   4.353  11.112 -0.6107  0.6869  0.1323
  190POPC  H11A21868   3.340   4.379  11.104  0.5601 -3.5101 -0.0242
  190POPC  H11B21869   3.165   4.441  11.121  1.5401  2.4764 -0.5336
  190POPC     P21870   3.038   4.252  10.962  0.0611 -0.2299  0.0552
  190POPC   O1321871   2.943   4.359  10.992  0.5350  0.2163  0.4521
  190POPC   O1421872   3.003   4.113  11.013  0.0581 -0.0168 -0.6449
  190POPC   O1221873   3.190   4.282  11.000  0.4820 -0.1346 -0.1426
  190POPC   O1121874   3.043   4.244  10.808 -0.5499 -0.2953  0.3704
  190POPC    C121875   3.076   4.356  10.720  0.3679  0.7825  0.0357
  190POPC    HA21876   3.179   4.390  10.742  0.5423 -0.9941  2.3523
  190POPC    HB21877   3.002   4.438  10.726 -0.7631  0.0705 -2.6997
  190POPC    C221878   3.087   4.314  10.568 -0.0974 -0.1755  0.7362
  190POPC    HS21879   3.168   4.238  10.560 -1.3180 -1.3478 -1.3419
  190POPC   O2121880   3.101   4.427  10.480  0.1071 -0.2863 -0.8773
  190POPC   C2121881   3.216   4.492  10.493 -0.0234  0.6844 -1.0290
  190POPC   O2221882   3.312   4.453  10.556  0.2362  0.2324  0.0197
  190POPC   C2221883   3.225   4.617  10.401  0.0934 -0.1696  0.1576
  190POPC   H2R21884   3.282   4.694  10.458 -1.4870 -0.8360  2.8420
  190POPC   H2S21885   3.123   4.662  10.397 -0.6999 -1.9878 -3.2557
  190POPC    C321886   2.965   4.233  10.519  0.1169 -0.1984 -0.8924
  190POPC    HX21887   2.880   4.283  10.570  2.0698  2.0612  0.3121
  190POPC    HY21888   2.968   4.127  10.552 -2.8561  0.4616  1.9483
  190POPC   O3121889   2.937   4.249  10.376 -0.0282  0.3002 -0.2677
  190POPC   C3121890   3.017   4.170  10.309 -0.7455 -0.2594 -0.2053
  190POPC   O3221891   3.105   4.095  10.352 -0.1404  0.6125  0.0671
  190POPC   C3221892   2.980   4.181  10.160 -0.3745 -0.1582 -0.7195
  190POPC   H2X21893   2.984   4.288  10.132 -0.0447  0.6555  2.0735
  190POPC   H2Y21894   2.871   4.163  10.167 -0.1914 -0.9375  4.0443
  190POPC   C2321895   3.289   4.601  10.258  0.2915  0.3813 -0.4365
  190POPC   H3R21896   3.399   4.587  10.252  0.3653  0.9750 -0.5694
  190POPC   H3S21897   3.261   4.689  10.196 -0.5797  0.1132 -0.4430
  190POPC   C2421898   3.230   4.479  10.191 -0.2850 -0.3012 -0.0480
  190POPC   H4R21899   3.121   4.496  10.177 -0.0716  1.7493  0.4576
  190POPC   H4S21900   3.245   4.385  10.248 -0.3383 -0.8316 -0.8878
  190POPC   C2521901   3.303   4.461  10.056  0.3840 -0.1349  0.4914
  190POPC   H5R21902   3.287   4.358  10.018  0.3788  0.2532 -0.5963
  190POPC   H5S21903   3.412   4.469  10.076  0.9003  2.5604 -2.4799
  190POPC   C2621904   3.266   4.563   9.955  0.2578 -1.1290  0.0712
  190POPC   H6R21905   3.293   4.664   9.993  0.3999 -0.6666 -1.1930
  190POPC   H6S21906   3.156   4.569   9.941  0.3830 -1.1170 -1.0569
  190POPC   C2721907   3.338   4.555   9.823 -0.5929  0.4689 -0.0273
  190POPC   H7R21908   3.307   4.455   9.787  0.7764 -0.9155  2.3945
  190POPC   H7S21909   3.448   4.559   9.835 -0.6045 -0.5235  0.4873
  190POPC   C2821910   3.283   4.652   9.715 -0.0636  1.0669  0.7953
  190POPC   H8R21911   3.261   4.750   9.762 -1.7563  1.0661  0.0789
  190POPC   H8S21912   3.186   4.604   9.691 -0.1846  0.9473  1.5067
  190POPC   C2921913   3.379   4.656   9.600  0.8805 -0.0349  0.0497
  190POPC   H9121914   3.480   4.695   9.619  2.1732 -2.8736 -0.3930
  190POPC  C21021915   3.359   4.601   9.473 -0.2054 -0.6060  0.8136
  190POPC  H10121916   3.440   4.615   9.400 -1.4815 -1.4049 -0.8074
  190POPC  C21121917   3.245   4.525   9.423 -0.2262 -0.4423 -0.1984
  190POPC  H11R21918   3.172   4.588   9.368 -0.0169 -0.1604 -0.1541
  190POPC  H11S21919   3.193   4.458   9.495  0.2854 -0.3119  0.3006
  190POPC  C21221920   3.298   4.425   9.309  0.4828  0.7446 -0.1835
  190POPC  H12R21921   3.342   4.476   9.221  1.4867 -0.4200 -0.3861
  190POPC  H12S21922   3.209   4.367   9.276  1.7664 -0.9791 -0.7393
  190POPC  C21321923   3.393   4.319   9.368  0.3522  0.3854 -0.3446
  190POPC  H13R21924   3.346   4.277   9.459 -0.1799  0.0777 -0.7565
  190POPC  H13S21925   3.489   4.368   9.396 -0.3019  2.1337 -1.0341
  190POPC  C21421926   3.415   4.201   9.268  0.7724 -0.3863  0.0435
  190POPC  H14R21927   3.318   4.151   9.249 -0.1352  0.8151  1.3000
  190POPC  H14S21928   3.480   4.127   9.319 -1.0805 -1.2010  1.2845
  190POPC  C21521929   3.486   4.245   9.137 -1.0441 -0.5925 -0.7312
  190POPC  H15R21930   3.583   4.291   9.164  0.2793 -3.4025 -0.3276
  190POPC  H15S21931   3.423   4.322   9.087  0.2482  0.4828 -0.7688
  190POPC  C21621932   3.497   4.132   9.037 -0.7520 -0.0172 -1.0216
  190POPC  H16R21933   3.440   4.038   9.052  0.9649 -0.7532  1.6091
  190POPC  H16S21934   3.602   4.097   9.030 -0.9507 -1.1418  0.8992
  190POPC  C21721935   3.461   4.179   8.899 -0.0653 -0.3828  0.2685
  190POPC  H17R21936   3.529   4.132   8.825 -2.0436  1.4655 -2.9576
  190POPC  H17S21937   3.490   4.286   8.889  3.2411 -1.1536  0.3635
  190POPC  C21821938   3.320   4.158   8.863 -0.6070 -0.4265 -0.1423
  190POPC  H18R21939   3.304   4.206   8.764 -1.2744  3.6929  1.7432
  190POPC  H18S21940   3.255   4.212   8.936 -1.8619 -1.8336 -0.1542
  190POPC  H18T21941   3.288   4.051   8.866 -1.7645 -0.1472 -1.5201
  190POPC   C3321942   3.071   4.094  10.063 -0.4773 -0.4165 -0.3293
  190POPC   H3X21943   3.053   3.985  10.080 -2.7507 -0.3458 -1.8554
  190POPC   H3Y21944   3.177   4.112  10.091 -0.5335 -1.5275  0.7376
  190POPC   C3421945   3.048   4.114   9.915 -0.3487  0.6358 -0.0531
  190POPC   H4X21946   2.958   4.053   9.892  0.6930 -1.2996  0.7872
  190POPC   H4Y21947   3.138   4.068   9.868  2.0175  4.7646 -0.0451
  190POPC   C3521948   3.035   4.257   9.877 -0.4106 -0.6371  0.9516
  190POPC   H5X21949   3.106   4.315   9.939 -2.3137  2.2088  0.6900
  190POPC   H5Y21950   2.932   4.296   9.894 -0.8447 -1.9091  1.3770
  190POPC   C3621951   3.061   4.288   9.729 -0.0050 -0.4413  0.0906
  190POPC   H6X21952   3.172   4.298   9.721  0.1595 -0.1762  2.0993
  190POPC   H6Y21953   3.012   4.387   9.717 -2.1919 -1.2971  1.4223
  190POPC   C3721954   3.005   4.186   9.633  0.2988 -0.1884  0.2664
  190POPC   H7X21955   2.895   4.176   9.643  0.5364 -1.4425  2.2420
  190POPC   H7Y21956   3.056   4.091   9.660 -1.0082 -0.3844  2.2651
  190POPC   C3821957   3.026   4.208   9.485  0.2383 -0.1782  0.0815
  190POPC   H8X21958   3.136   4.209   9.475  0.1447 -0.8811 -1.2127
  190POPC   H8Y21959   2.993   4.309   9.453 -0.0816 -0.0857  0.6856
  190POPC   C3921960   2.985   4.092   9.389 -0.6191  0.2014 -0.1857
  190POPC   H9X21961   2.880   4.063   9.410 -0.7884  1.6351  1.1271
  190POPC   H9Y21962   3.051   4.007   9.418  1.0026  0.8922 -1.6777
  190POPC  C31021963   2.996   4.139   9.245  0.2555 -0.1156 -0.8275
  190POPC  H10X21964   3.099   4.172   9.223  1.3017 -0.8638  2.3895
  190POPC  H10Y21965   2.942   4.235   9.236  0.4094 -0.1007 -1.6499
  190POPC  C31121966   2.947   4.034   9.141  0.2195 -0.9058 -0.2421
  190POPC  H11X21967   2.843   4.004   9.166  1.0540 -2.9324  1.1027
  190POPC  H11Y21968   3.016   3.948   9.151  2.3997  0.9496  1.6884
  190POPC  C31221969   2.960   4.081   8.995  0.1240 -1.0432  0.1379
  190POPC  H12X21970   3.066   4.103   8.970  0.0870 -0.5974  0.3657
  190POPC  H12Y21971   2.891   4.167   8.984 -0.8753 -1.7384  0.7460
  190POPC  C31321972   2.926   3.986   8.876  0.1745 -0.3045 -0.2394
  190POPC  H13X21973   2.817   3.976   8.857  0.1818  1.1046 -1.1035
  190POPC  H13Y21974   2.965   3.889   8.914  0.9949  0.4233  0.8470
  190POPC  C31421975   2.987   4.025   8.741  0.1360 -0.0880 -0.3757
  190POPC  H14X21976   3.090   3.984   8.735  0.4223 -0.1349  3.0116
  190POPC  H14Y21977   2.999   4.136   8.744  1.2346 -0.2031  0.0251
  190POPC  C31521978   2.893   3.995   8.622 -0.5123  0.0964  0.1291
  190POPC  H15X21979   2.946   4.032   8.532 -0.0876 -0.1160  0.2899
  190POPC  H15Y21980   2.801   4.055   8.638  1.2991  2.4015  2.8143
  190POPC  C31621981   2.871   3.841   8.611 -0.5334  0.1168  0.5524
  190POPC  H16X21982   2.836   3.827   8.506 -1.0175 -0.6488  0.8086
  190POPC  H16Y21983   2.799   3.813   8.691  0.0150  0.3291  1.1213
  190POPC  H16Z21984   2.966   3.787   8.630  0.0477  1.1575  0.7130
  191POPC     N21985   5.178   4.646   6.109  0.1601 -0.3093  0.0798
  191POPC   C1221986   5.285   4.712   6.199 -0.1031 -0.1768  0.2056
  191POPC  H12A21987   5.384   4.671   6.187 -0.3716 -1.8807  2.9676
  191POPC  H12B21988   5.258   4.698   6.303 -0.7343  0.1036  0.0872
  191POPC   C1321989   5.045   4.717   6.129  0.3020  0.3770  0.1031
  191POPC  H13A21990   4.959   4.658   6.098  0.3466  0.2653  0.1898
  191POPC  H13B21991   5.028   4.739   6.233 -0.3969  1.1365 -0.1553
  191POPC  H13C21992   5.049   4.815   6.085 -0.9405  1.0873  1.4864
  191POPC   C1421993   5.220   4.646   5.968 -0.0600 -0.0472 -1.1219
  191POPC  H14A21994   5.136   4.610   5.911 -1.2146 -0.7456  0.9020
  191POPC  H14B21995   5.230   4.747   5.933 -1.6070  0.0667 -1.3182
  191POPC  H14C21996   5.309   4.589   5.949 -1.2201 -2.0656 -0.8314
  191POPC   C1521997   5.171   4.502   6.155  0.3932  0.2838  0.7063
  191POPC  H15A21998   5.271   4.463   6.147 -0.4032 -1.6634 -0.6473
  191POPC  H15B21999   5.104   4.446   6.092  0.9066  1.6757 -1.1627
  191POPC  H15C22000   5.127   4.491   6.253  2.0219 -1.1336  1.3180
  191POPC   C1122001   5.302   4.867   6.178 -0.2128  0.4840  0.1285
  191POPC  H11A22002   5.247   4.902   6.088 -0.1132  0.7224  0.1594
  191POPC  H11B22003   5.411   4.875   6.158  0.0171  2.0728  1.8157
  191POPC     P22004   5.325   4.939   6.430  0.4496 -0.0010 -0.0449
  191POPC   O1322005   5.471   4.916   6.424  0.1590 -1.2804 -0.3728
  191POPC   O1422006   5.241   4.850   6.512 -0.6155  0.0259  0.0523
  191POPC   O1222007   5.259   4.950   6.289  0.0136  0.2341  0.2062
  191POPC   O1122008   5.308   5.089   6.490  0.2159  0.2451  0.0695
  191POPC    C122009   5.413   5.174   6.545 -0.0572 -0.7658 -0.0755
  191POPC    HA22010   5.369   5.275   6.539 -1.3869 -1.1887  1.7306
  191POPC    HB22011   5.497   5.179   6.474 -2.0019 -0.5278 -2.4787
  191POPC    C222012   5.469   5.142   6.691 -0.3342  0.5949 -0.7547
  191POPC    HS22013   5.538   5.227   6.708 -1.5793  1.2847  1.0800
  191POPC   O2122014   5.529   5.008   6.698  0.3893  0.1079 -0.1880
  191POPC   C2122015   5.649   4.985   6.653 -0.3509 -0.4524 -0.4733
  191POPC   O2222016   5.723   5.073   6.602  0.1238  0.2402 -0.0764
  191POPC   C2222017   5.688   4.842   6.664  0.4185  0.1697 -0.1334
  191POPC   H2R22018   5.799   4.835   6.656  0.4342  0.8945 -0.6499
  191POPC   H2S22019   5.646   4.793   6.574  2.3090  1.2708 -1.7042
  191POPC    C322020   5.367   5.158   6.798 -0.2523  0.2686  0.1914
  191POPC    HX22021   5.297   5.073   6.792  0.4409 -0.2589 -0.6341
  191POPC    HY22022   5.311   5.251   6.774  1.1038  0.7955 -1.1252
  191POPC   O3122023   5.429   5.162   6.931 -0.4277 -0.3676  0.6349
  191POPC   C3122024   5.410   5.068   7.016 -0.1664  0.2775  0.3155
  191POPC   O3222025   5.364   4.957   6.996  0.9879 -0.8431  0.0712
  191POPC   C3222026   5.460   5.121   7.150  0.7708  0.0073 -0.4020
  191POPC   H2X22027   5.372   5.127   7.218  0.9848 -1.0872 -0.0097
  191POPC   H2Y22028   5.518   5.215   7.134  0.4801  0.5217  1.3464
  191POPC   C2322029   5.650   4.770   6.800  0.3506  0.2427 -0.1417
  191POPC   H3R22030   5.663   4.660   6.794  2.7309  0.4932 -0.2361
  191POPC   H3S22031   5.545   4.788   6.832  0.3496 -0.9678  0.5996
  191POPC   C2422032   5.729   4.812   6.923  0.3922  0.2175 -0.0374
  191POPC   H4R22033   5.709   4.920   6.941 -2.6170 -0.4478  1.0949
  191POPC   H4S22034   5.836   4.784   6.910  0.2786 -0.1788 -0.1393
  191POPC   C2522035   5.678   4.741   7.050  0.1285 -0.0133  0.1971
  191POPC   H5R22036   5.573   4.773   7.066 -0.6620 -1.5960 -1.3904
  191POPC   H5S22037   5.744   4.782   7.129  2.1998 -0.3231 -1.2765
  191POPC   C2622038   5.694   4.592   7.058  0.1794 -0.9147 -1.2716
  191POPC   H6R22039   5.787   4.558   7.007  0.9801 -2.5165  1.0571
  191POPC   H6S22040   5.608   4.539   7.010 -0.7135  0.2346 -0.9677
  191POPC   C2722041   5.684   4.541   7.206  0.5640  0.5670 -0.0787
  191POPC   H7R22042   5.578   4.566   7.231  0.7939  1.0574  0.4289
  191POPC   H7S22043   5.753   4.595   7.274  0.7527  1.7889 -1.2013
  191POPC   C2822044   5.707   4.386   7.234 -0.1230 -0.6854 -0.1139
  191POPC   H8R22045   5.659   4.329   7.151  1.2849  0.9430 -2.1412
  191POPC   H8S22046   5.655   4.365   7.329  0.1065  2.7227  0.8589
  191POPC   C2922047   5.855   4.344   7.245 -0.1632 -0.2303  0.1971
  191POPC   H9122048   5.900   4.289   7.161  0.6291  1.6908 -0.6971
  191POPC  C21022049   5.920   4.379   7.354 -0.1535 -0.0390  0.0054
  191POPC  H10122050   6.026   4.349   7.356  0.8367  2.9416 -1.4287
  191POPC  C21122051   5.884   4.455   7.478  0.3321 -0.3833  0.3557
  191POPC  H11R22052   5.834   4.383   7.548 -0.6891  1.1707  1.2793
  191POPC  H11S22053   5.806   4.533   7.474 -0.0646 -0.7877  0.0394
  191POPC  C21222054   6.006   4.521   7.541 -0.3339  0.1944  0.3023
  191POPC  H12R22055   6.073   4.557   7.461 -0.0346  1.1814  0.9841
  191POPC  H12S22056   6.060   4.447   7.603 -2.1666 -0.4377  1.2312
  191POPC  C21322057   5.977   4.644   7.628  0.5299 -0.1831  0.5686
  191POPC  H13R22058   5.908   4.709   7.571  0.2117 -1.8693 -1.0570
  191POPC  H13S22059   6.065   4.711   7.646 -0.1711  0.5512  1.3601
  191POPC  C21422060   5.919   4.611   7.764 -0.4307 -0.6892  0.9774
  191POPC  H14R22061   5.846   4.527   7.769 -2.1845  0.8419  2.5807
  191POPC  H14S22062   5.870   4.702   7.804 -2.0089 -0.4249 -1.3677
  191POPC  C21522063   6.023   4.574   7.874 -0.7354  0.2338  0.5636
  191POPC  H15R22064   6.081   4.666   7.900  0.9070  0.8262 -4.1765
  191POPC  H15S22065   6.087   4.491   7.837 -3.8858 -0.8902 -2.9203
  191POPC  C21622066   5.961   4.518   7.998  0.4074 -0.0840  0.3666
  191POPC  H16R22067   5.889   4.438   7.968 -0.6504  0.9624  0.0472
  191POPC  H16S22068   5.889   4.582   8.053 -3.3370 -3.2684 -0.4008
  191POPC  C21722069   6.048   4.453   8.104 -0.6527  0.1182  0.2263
  191POPC  H17R22070   6.121   4.529   8.141  0.0769 -1.3014  1.8113
  191POPC  H17S22071   6.116   4.372   8.069  0.5783  1.7042 -1.2577
  191POPC  C21822072   5.959   4.419   8.226 -0.1477  0.3228  0.2679
  191POPC  H18R22073   5.907   4.513   8.254 -2.1902 -0.5458 -0.3983
  191POPC  H18S22074   6.018   4.376   8.309 -1.7071  1.4160  2.0104
  191POPC  H18T22075   5.874   4.352   8.201 -1.3400  1.3317  1.5388
  191POPC   C3322076   5.561   5.016   7.209 -0.7215 -0.4167 -0.3299
  191POPC   H3X22077   5.653   5.018   7.147 -0.1988  0.8231  0.4405
  191POPC   H3Y22078   5.507   4.920   7.225  1.1096 -1.2404  1.1834
  191POPC   C3422079   5.603   5.059   7.352  0.3145  0.3158 -0.3116
  191POPC   H4X22080   5.520   5.122   7.389 -1.0482 -0.6741 -1.5795
  191POPC   H4Y22081   5.691   5.126   7.351  0.1541  0.5201 -0.7044
  191POPC   C3522082   5.626   4.946   7.458  0.1884  0.7460  0.4599
  191POPC   H5X22083   5.701   4.875   7.417 -0.0726 -0.0642  1.3707
  191POPC   H5Y22084   5.524   4.903   7.469  1.9570 -3.4195  3.4107
  191POPC   C3622085   5.671   4.999   7.594 -0.2423  0.0388  0.4377
  191POPC   H6X22086   5.612   5.086   7.631  0.7696  0.5864  0.8202
  191POPC   H6Y22087   5.772   5.038   7.568 -1.5345  1.8591 -2.3684
  191POPC   C3722088   5.669   4.904   7.715  0.2413  0.0086 -0.6633
  191POPC   H7X22089   5.727   4.814   7.686 -0.2872  0.4232 -3.2943
  191POPC   H7Y22090   5.566   4.863   7.717  0.2677 -0.0126  0.5873
  191POPC   C3822091   5.717   4.955   7.848  0.5459 -0.3018  0.0471
  191POPC   H8X22092   5.666   5.054   7.858 -0.7542 -0.6860 -2.1034
  191POPC   H8Y22093   5.825   4.982   7.850  0.9719 -1.9057  2.1750
  191POPC   C3922094   5.698   4.867   7.971 -0.0450 -0.4669 -0.4724
  191POPC   H9X22095   5.752   4.771   7.962 -1.2124 -1.0048 -2.3481
  191POPC   H9Y22096   5.588   4.849   7.973 -0.1425 -0.0091 -1.1991
  191POPC  C31022097   5.746   4.942   8.096 -0.4637 -0.6247  0.6799
  191POPC  H10X22098   5.712   5.047   8.104  2.1180  0.4591 -1.1097
  191POPC  H10Y22099   5.855   4.959   8.083 -0.3539 -0.6281  1.5660
  191POPC  C31122100   5.722   4.866   8.220  0.3015 -0.6024 -0.2606
  191POPC  H11X22101   5.741   4.757   8.203 -0.7564 -0.6145 -1.5109
  191POPC  H11Y22102   5.615   4.857   8.246 -0.6518  0.3011 -3.4631
  191POPC  C31222103   5.798   4.915   8.343 -0.8301 -0.5882  0.2843
  191POPC  H12X22104   5.778   4.847   8.428  1.1958 -0.3842  0.9712
  191POPC  H12Y22105   5.763   5.018   8.368 -1.4200 -0.5722 -0.5591
  191POPC  C31322106   5.954   4.929   8.325 -0.4050 -0.0893 -0.5509
  191POPC  H13X22107   5.998   4.966   8.420  0.9790 -0.4317 -1.0346
  191POPC  H13Y22108   5.976   5.006   8.247 -2.0377  1.2528  0.2344
  191POPC  C31422109   6.024   4.795   8.300 -0.2798 -0.0152  0.0164
  191POPC  H14X22110   5.992   4.748   8.204 -0.2381  0.7846 -0.3931
  191POPC  H14Y22111   5.998   4.732   8.388 -1.3839 -0.6496 -0.7359
  191POPC  C31522112   6.175   4.811   8.302 -0.0155 -0.2654  0.1382
  191POPC  H15X22113   6.201   4.895   8.232  1.5250 -2.0042 -1.5087
  191POPC  H15Y22114   6.224   4.722   8.256  1.6470  0.9971 -0.6515
  191POPC  C31622115   6.230   4.821   8.443  0.5730 -0.0574 -0.6699
  191POPC  H16X22116   6.201   4.917   8.493  1.8285 -0.1049  0.1962
  191POPC  H16Y22117   6.341   4.817   8.451  0.7615 -1.8325 -3.1517
  191POPC  H16Z22118   6.190   4.737   8.504  1.3111 -1.4957 -2.1109
  192POPC     N22119   2.747   0.816   6.252 -0.2436  0.4980 -0.9826
  192POPC   C1222120   2.883   0.864   6.307  0.1876  0.2484  0.9644
  192POPC  H12A22121   2.947   0.907   6.231 -0.3055  1.4122  1.1798
  192POPC  H12B22122   2.936   0.779   6.346  0.2792  0.2744  0.8959
  192POPC   C1322123   2.774   0.722   6.142 -0.3200  0.3084  0.0290
  192POPC  H13A22124   2.811   0.633   6.191 -2.0487 -0.5980 -0.2229
  192POPC  H13B22125   2.682   0.690   6.095  0.5544 -0.0866 -1.4749
  192POPC  H13C22126   2.840   0.765   6.068 -2.4996  0.8317 -1.7405
  192POPC   C1422127   2.666   0.736   6.356  0.2685 -0.3134  0.1577
  192POPC  H14A22128   2.712   0.641   6.380  0.6909  0.0017  0.6184
  192POPC  H14B22129   2.656   0.798   6.444 -1.7941  0.0968 -0.3096
  192POPC  H14C22130   2.572   0.718   6.306  1.5603  0.5846 -2.8319
  192POPC   C1522131   2.669   0.931   6.208  0.0264  0.8936 -0.1575
  192POPC  H15A22132   2.698   0.962   6.108  2.1864 -1.6360 -0.4115
  192POPC  H15B22133   2.687   1.019   6.268 -0.3655  0.0338  1.2678
  192POPC  H15C22134   2.563   0.915   6.199  0.1157 -0.4594  0.9986
  192POPC   C1122135   2.881   0.967   6.424  0.0905 -0.2138 -0.0037
  192POPC  H11A22136   2.971   0.961   6.489 -0.4417  2.4043  1.1014
  192POPC  H11B22137   2.794   0.929   6.483 -1.7331  1.6231 -1.3609
  192POPC     P22138   2.958   1.168   6.282 -0.1698 -0.2513  0.2229
  192POPC   O1322139   2.930   1.311   6.264 -0.3758  0.2101  0.1332
  192POPC   O1422140   2.971   1.086   6.159  0.2695 -0.8213  0.2192
  192POPC   O1222141   2.852   1.095   6.381  0.0380 -0.0503 -0.6162
  192POPC   O1122142   3.094   1.156   6.360  0.3598 -0.1663 -0.1567
  192POPC    C122143   3.117   1.235   6.479 -1.0291  0.6330  0.1985
  192POPC    HA22144   3.028   1.260   6.541 -1.4375 -0.7711  0.2125
  192POPC    HB22145   3.178   1.320   6.441  0.6793 -1.1934 -1.3851
  192POPC    C222146   3.224   1.159   6.571 -0.0147 -0.2855  0.2734
  192POPC    HS22147   3.314   1.142   6.508 -0.3777 -1.1934 -0.0069
  192POPC   O2122148   3.166   1.041   6.622  0.5874  0.0381 -0.0642
  192POPC   C2122149   3.232   0.933   6.630 -0.4470 -0.4512 -0.1005
  192POPC   O2222150   3.344   0.913   6.596 -0.5867  0.3894 -0.3101
  192POPC   C2222151   3.152   0.816   6.695 -0.1020  1.0224  0.2498
  192POPC   H2R22152   3.213   0.723   6.705  0.0579  1.1198  0.1847
  192POPC   H2S22153   3.069   0.789   6.626  1.3105  1.2684 -1.6404
  192POPC    C322154   3.270   1.251   6.694 -0.5198  0.2498 -0.5521
  192POPC    HX22155   3.173   1.278   6.740  0.3662 -1.1587  2.4400
  192POPC    HY22156   3.313   1.346   6.656 -0.4418  1.2650  1.8775
  192POPC   O3122157   3.349   1.172   6.789 -0.0357  0.4191 -0.1885
  192POPC   C3122158   3.483   1.174   6.771  0.3865 -0.2610 -0.4541
  192POPC   O3222159   3.537   1.234   6.680 -0.4693 -0.2402  0.4130
  192POPC   C3222160   3.559   1.080   6.862  0.1415  0.4052 -0.3998
  192POPC   H2X22161   3.598   0.999   6.797  4.0606  0.5699  1.4625
  192POPC   H2Y22162   3.487   1.045   6.939 -1.1698 -0.5264 -1.9757
  192POPC   C2322163   3.097   0.867   6.836  0.5528  0.0576 -0.2562
  192POPC   H3R22164   3.033   0.790   6.883  2.0415 -0.0197  1.7504
  192POPC   H3S22165   3.033   0.956   6.820 -0.0112 -0.7273 -2.8282
  192POPC   C2422166   3.216   0.898   6.926  0.0366 -0.1247  0.1193
  192POPC   H4R22167   3.279   0.974   6.874  1.4184 -0.5656  1.0751
  192POPC   H4S22168   3.283   0.811   6.946  2.3598  1.5912  0.3121
  192POPC   C2522169   3.173   0.948   7.059  0.0320  0.2394 -0.3664
  192POPC   H5R22170   3.121   0.864   7.110 -0.4390 -0.4935 -1.9899
  192POPC   H5S22171   3.091   1.021   7.046 -0.7480 -0.6218 -0.3998
  192POPC   C2622172   3.281   1.005   7.149  0.0328  0.1917  0.2399
  192POPC   H6R22173   3.308   1.106   7.112  3.0654 -1.2113 -1.8065
  192POPC   H6S22174   3.378   0.952   7.135 -0.7228 -0.8476 -1.3330
  192POPC   C2722175   3.238   0.992   7.298  0.5571 -0.4110  0.5441
  192POPC   H7R22176   3.280   0.891   7.318  2.2994  0.3965  1.1100
  192POPC   H7S22177   3.127   1.005   7.299  0.4759 -1.0716  1.3923
  192POPC   C2822178   3.311   1.083   7.400 -0.3993  0.6820 -0.2700
  192POPC   H8R22179   3.266   1.184   7.403  1.0767  1.4343 -1.9328
  192POPC   H8S22180   3.402   1.102   7.340 -0.8644 -1.6402 -1.8568
  192POPC   C2922181   3.340   1.009   7.530 -0.2092  0.2782  0.6898
  192POPC   H9122182   3.352   0.904   7.500 -1.3906  0.5912 -1.0546
  192POPC  C21022183   3.322   1.064   7.651 -0.1864  0.0121 -0.9121
  192POPC  H10122184   3.329   0.999   7.739 -0.5342  1.2282  0.0371
  192POPC  C21122185   3.271   1.202   7.683  0.9444 -0.3692  0.1310
  192POPC  H11R22186   3.171   1.186   7.730  0.4751  1.4903 -0.1775
  192POPC  H11S22187   3.258   1.270   7.597  1.4342  0.2972  0.5779
  192POPC  C21222188   3.359   1.280   7.781 -0.6626 -0.7109 -0.2209
  192POPC  H12R22189   3.328   1.385   7.798 -0.2631 -0.6474  0.1304
  192POPC  H12S22190   3.455   1.290   7.726  0.1738  0.6507  1.4168
  192POPC  C21322191   3.374   1.223   7.925 -0.3633  0.4027  0.2608
  192POPC  H13R22192   3.392   1.113   7.927  1.9243  0.6085 -2.2030
  192POPC  H13S22193   3.276   1.236   7.975 -1.3208 -2.0589 -0.7768
  192POPC  C21422194   3.495   1.277   8.002  0.2350  0.0897 -0.6413
  192POPC  H14R22195   3.485   1.383   8.035  0.1443 -0.8661  2.7668
  192POPC  H14S22196   3.584   1.263   7.937  0.6926 -0.5232  0.1024
  192POPC  C21522197   3.526   1.195   8.135  0.3129  0.5383  0.6914
  192POPC  H15R22198   3.628   1.227   8.167  1.5713 -2.7258  0.3297
  192POPC  H15S22199   3.516   1.088   8.108  1.0504  0.4178  0.8783
  192POPC  C21622200   3.425   1.216   8.250 -0.1378 -0.2004 -0.4032
  192POPC  H16R22201   3.322   1.218   8.209  0.1204  1.8646 -1.0814
  192POPC  H16S22202   3.433   1.313   8.305 -1.3253 -0.6061  0.5235
  192POPC  C21722203   3.445   1.106   8.353 -0.8905 -0.4105  0.1166
  192POPC  H17R22204   3.556   1.094   8.359 -0.6590  1.2930 -0.2590
  192POPC  H17S22205   3.399   1.013   8.314  0.6332 -1.6409  1.1052
  192POPC  C21822206   3.382   1.120   8.498  0.1138 -0.4658  0.5621
  192POPC  H18R22207   3.399   1.036   8.569  1.9113 -0.4928  0.1510
  192POPC  H18S22208   3.273   1.136   8.490  0.1202 -0.3076  0.7784
  192POPC  H18T22209   3.418   1.212   8.550  0.7011 -0.3410 -0.0434
  192POPC   C3322210   3.684   1.143   6.914 -0.0564  0.2274  0.8365
  192POPC   H3X22211   3.665   1.247   6.948  2.7653  1.1660 -0.0960
  192POPC   H3Y22212   3.756   1.153   6.829 -1.4316 -0.9100 -0.5317
  192POPC   C3422213   3.747   1.056   7.023 -0.0172  0.9034  0.2080
  192POPC   H4X22214   3.855   1.081   7.028  0.3827 -0.4761 -0.9535
  192POPC   H4Y22215   3.752   0.948   7.002  0.6497  1.0916 -0.6503
  192POPC   C3522216   3.674   1.095   7.153  0.0176  0.0750 -0.3273
  192POPC   H5X22217   3.575   1.044   7.156 -1.0643  1.7922 -3.1344
  192POPC   H5Y22218   3.654   1.202   7.175 -2.2999 -0.7959  2.5544
  192POPC   C3622219   3.760   1.045   7.268 -0.0376 -0.6284  0.3161
  192POPC   H6X22220   3.852   1.107   7.273 -1.7299  2.0309  0.5221
  192POPC   H6Y22221   3.790   0.941   7.240  1.7459  0.2042 -1.0520
  192POPC   C3722222   3.688   1.049   7.405 -0.4868 -0.5584  0.1091
  192POPC   H7X22223   3.612   0.968   7.408 -0.8443 -0.4398 -2.8897
  192POPC   H7Y22224   3.650   1.153   7.418 -0.6134 -0.6816  0.7921
  192POPC   C3822225   3.785   1.023   7.525 -0.0260 -0.2463 -0.0928
  192POPC   H8X22226   3.865   1.100   7.518  0.5641 -0.8225  0.1322
  192POPC   H8Y22227   3.824   0.919   7.518  2.5605  0.7292 -1.4263
  192POPC   C3922228   3.711   1.035   7.658 -0.5169 -0.3844 -0.0883
  192POPC   H9X22229   3.609   0.991   7.649 -0.1162 -1.5780  0.9333
  192POPC   H9Y22230   3.686   1.143   7.670 -1.3181 -0.8122  3.2508
  192POPC  C31022231   3.785   0.966   7.772  0.5492 -0.3377 -1.1546
  192POPC  H10X22232   3.890   1.000   7.783  0.4020  0.5991 -2.4453
  192POPC  H10Y22233   3.803   0.859   7.749 -1.5642 -1.7446  2.7407
  192POPC  C31122234   3.707   0.973   7.903 -0.0192 -0.3326 -0.6487
  192POPC  H11X22235   3.601   0.947   7.884 -0.9305  3.0370 -0.8926
  192POPC  H11Y22236   3.699   1.079   7.937 -0.6076 -0.2741 -0.9626
  192POPC  C31222237   3.774   0.887   8.019  0.2627  0.0818 -0.2719
  192POPC  H12X22238   3.870   0.936   8.043  0.7025 -0.4065 -1.0101
  192POPC  H12Y22239   3.801   0.792   7.968 -0.9268  0.0700 -0.9167
  192POPC  C31322240   3.690   0.852   8.140 -0.0550  0.6242 -0.1151
  192POPC  H13X22241   3.584   0.831   8.116 -0.3884  0.1216  1.6284
  192POPC  H13Y22242   3.692   0.947   8.198 -0.6444  2.4200 -2.8556
  192POPC  C31422243   3.735   0.736   8.233  0.6535 -0.4737  0.2587
  192POPC  H14X22244   3.842   0.746   8.262  1.3512 -1.7238 -1.7226
  192POPC  H14Y22245   3.738   0.654   8.158 -0.4518  1.9783 -2.7125
  192POPC  C31522246   3.635   0.703   8.345 -0.0037  0.1967  0.3099
  192POPC  H15X22247   3.533   0.683   8.305 -0.0962  0.5231  0.3731
  192POPC  H15Y22248   3.632   0.785   8.420 -0.9498  1.9312 -1.5058
  192POPC  C31622249   3.688   0.573   8.415 -0.0779 -0.4722  0.4259
  192POPC  H16X22250   3.675   0.489   8.343  2.8728  2.2675 -3.8206
  192POPC  H16Y22251   3.626   0.547   8.503 -0.7292  0.3198  0.2213
  192POPC  H16Z22252   3.798   0.578   8.430  0.6227  2.2258 -3.6915
  193SOD    SOD22253   4.365   4.053   5.280 -0.4177  0.8444  0.4303
  194SOD    SOD22254   4.432   0.394   2.714 -0.2056 -0.0459  0.0209
  195SOD    SOD22255   0.710   0.405   5.349 -0.0655 -0.3175 -0.1838
  196SOD    SOD22256   0.941   1.346  15.938 -0.1987 -0.1121 -0.1124
  197SOD    SOD22257   5.984   0.142  13.830 -0.2004 -0.2156  0.1934
  198SOD    SOD22258   5.615   1.153  10.721  0.0999  0.0845  0.2796
  199SOD    SOD22259   3.698   2.609   5.381 -0.3343 -0.6457 -0.6237
  200SOD    SOD22260   1.058   6.655   0.131  0.2159  0.3230 -0.1288
  201SOD    SOD22261   5.783   4.714  15.029 -0.3622  0.2559 -0.5542
  202SOD    SOD22262   0.667   2.811   0.351 -0.1068 -0.3179 -0.2602
  203SOD    SOD22263   6.595   1.466   3.302 -0.7449 -0.0615  0.2999
  204SOD    SOD22264   1.730   6.498   1.997  0.1564  0.3106  0.6285
  205SOD    SOD22265   3.479   4.551  10.723  0.0772 -0.0593 -0.0463
  206SOD    SOD22266   5.490   5.608  13.942 -0.0050  0.3740 -0.1875
  207SOD    SOD22267   5.000   3.091  16.055  0.0327 -0.3402  0.2818
  208SOD    SOD22268   4.809   4.730   6.485 -0.6421  0.6435  0.4781
  209SOD    SOD22269   2.483   5.239   2.070 -0.0059 -0.2979 -0.3813
  210SOD    SOD22270   5.000   2.841  11.999 -0.5593  0.7235 -0.1968
  211SOD    SOD22271   4.418   1.716  12.869 -0.4692 -0.3931  0.2792
  212SOD    SOD22272   4.516   4.053  17.046  0.2010  0.1501 -0.2881
  213SOD    SOD22273   0.034   6.103  16.283 -0.2004  0.0453 -0.1287
  214SOD    SOD22274   5.021   1.950  12.164 -0.6067  0.3320 -0.4765
  215SOD    SOD22275   2.027   1.580   0.941  0.1540  0.7483 -0.3205
  216SOD    SOD22276   3.826   2.635   4.312  0.2766 -0.2819 -0.1631
  217SOD    SOD22277   2.986   1.907   4.354  0.5662  0.6050 -0.2379
  218SOD    SOD22278   2.081   5.979  17.048  0.1709  0.0769 -0.0015
  219SOD    SOD22279   3.927   5.312  12.509 -0.0838 -0.0743 -0.5405
  220SOD    SOD22280   4.269   5.948  11.478 -0.2809  0.1492 -0.1947
  221SOD    SOD22281   3.788   6.331   3.697  0.1543  0.1615 -0.2613
  222SOD    SOD22282   6.700   6.594   6.311 -0.1534 -0.0314 -0.1485
  223SOD    SOD22283   6.714   2.661   6.370 -0.0339  0.4637  0.4922
  224SOD    SOD22284   2.427   3.823  15.183 -0.0249 -0.3227 -0.2928
  225SOD    SOD22285   5.265   5.726  11.260 -0.1990  0.2354 -0.2060
  226SOD    SOD22286   5.050   1.123  14.700  0.5925 -0.2955 -0.0817
  227SOD    SOD22287   0.428   3.548  10.872  0.0459  0.0153  0.4494
  228SOD    SOD22288   4.159   5.642   1.382  0.0719  0.1048  0.4807
  229SOD    SOD22289   0.837   6.056  13.471  0.0553  0.1355 -0.7327
  230SOD    SOD22290   2.714   1.959   6.032 -0.1150  0.0060 -0.2261
  231SOD    SOD22291   4.035   1.961   3.491 -0.2941 -0.3166  0.4278
  232SOD    SOD22292   6.542   4.800   2.642  0.2684 -0.2239  0.1396
  233SOD    SOD22293   4.255   1.027   5.932 -0.5845 -0.0068  0.3463
  234SOD    SOD22294   2.050   3.058   4.378 -0.3156 -0.1408 -0.3456
  235SOD    SOD22295   2.957   4.185   2.808 -0.5144 -0.1975 -0.4968
  236SOD    SOD22296   6.344   2.238  10.701 -0.0425  0.2749  0.1850
  237SOD    SOD22297   0.529   0.730   1.962  0.5325  0.3240  0.0969
  238SOD    SOD22298   1.167   0.106   6.012  0.0120  0.0203 -0.0690
  239SOD    SOD22299   2.408   0.030   0.832 -0.7407 -0.0113 -0.4224
  240SOD    SOD22300   5.999   6.026   3.954  0.5997  0.0048 -0.1843
  241SOD    SOD22301   3.785   5.478  11.804  0.3893  0.2714  0.5393
  242SOD    SOD22302   0.810   0.522   1.576  0.3311  0.0012 -0.1383
  243SOD    SOD22303   2.450   0.429  14.674  0.2791 -0.0594  0.0425
  244SOD    SOD22304   1.448   3.180   2.954 -0.5345 -0.0805 -0.4768
  245SOD    SOD22305   5.960   4.479  12.486  0.4044 -0.3001 -0.1195
  246SOD    SOD22306   4.551   0.626  11.381  0.7736  0.0772 -0.1553
  247SOD    SOD22307   6.144   2.049   0.773 -0.3463  0.3070 -0.3629
  248SOD    SOD22308   2.579   2.011  15.250 -0.2240 -0.0860 -0.2224
  249SOD    SOD22309   3.153   3.212  11.539 -0.7176  0.1458  0.1026
  250SOD    SOD22310   1.340   6.648  10.786  0.0706 -0.0557 -0.2319
  251SOD    SOD22311   1.745   2.183   4.967 -0.1685  0.3366 -0.1654
  252SOD    SOD22312   2.364   2.326   3.166  0.2470  0.0439  0.1085
  253SOD    SOD22313   1.148   4.494   5.940 -0.1153 -0.0322 -0.1463
  254SOD    SOD22314   2.474   3.675  15.994 -0.0804 -0.1361 -0.2452
  255SOD    SOD22315   5.479   3.267   3.009 -0.2841  0.3536 -0.6291
  256SOD    SOD22316   0.561   4.164  12.360  0.5030 -0.5628 -0.0976
  257SOD    SOD22317   6.402   4.220  12.550  0.1855  0.0660 -0.3649
  258SOD    SOD22318   4.026   1.241   5.430 -0.1658  0.2476 -0.4383
  259SOD    SOD22319   4.381   4.574   6.108  0.0166  0.0072  0.4335
  260SOD    SOD22320   3.772   6.403  10.921 -0.5712 -0.0724  0.3313
  261SOD    SOD22321   2.573   2.840   1.870  0.3958 -0.1063  0.4298
  262SOD    SOD22322   3.112   2.535  11.197  0.1727 -0.5880  0.3867
  263SOD    SOD22323   5.869   6.052  16.481 -0.0108  0.1837  0.0930
  264SOD    SOD22324   1.028   3.052   5.521 -0.1634  0.4791 -0.1322
  265SOD    SOD22325   4.173   3.660   6.066  0.4237 -0.0575 -0.0866
  266SOD    SOD22326   0.536   4.094   3.573 -0.0921  0.0078 -0.0152
  267SOD    SOD22327   2.751   0.754   4.733 -0.3145  0.2369 -0.0353
  268SOD    SOD22328   3.971   5.973   0.889  0.4176  0.4476  0.2868
  269SOD    SOD22329   3.279   2.293   1.503 -0.0400 -0.0012 -0.7674
  270CLA    CLA22330   6.333   1.391  13.609 -0.0951 -0.1475 -0.1963
  271CLA    CLA22331   6.151   2.984   0.391  0.3590  0.0604  0.0066
  272CLA    CLA22332   4.448   5.827   3.897  0.3328 -0.0638  0.3265
  273CLA    CLA22333   1.297   3.017   3.575  0.0552 -0.0713  0.3635
  274CLA    CLA22334   1.060   4.219   2.016 -0.1768  0.0286  0.4807
  275CLA    CLA22335   3.259   0.920   2.652  0.1355  0.4219  0.2295
  276CLA    CLA22336   0.272   4.681   5.149 -0.4661  0.3671  0.0916
  277CLA    CLA22337   2.102   4.507  14.012  0.0059  0.1836  0.1713
  278CLA    CLA22338   1.904   6.259   1.137 -0.2020  0.2214 -0.4989
  279CLA    CLA22339   2.614   1.637   3.345  0.0510 -0.1384  0.2117
  280CLA    CLA22340   6.118   1.391  11.456  0.1387 -0.1839  0.1331
  281CLA    CLA22341   3.329   5.872  15.146  0.2804 -0.2689 -0.1099
  282CLA    CLA22342   0.519   5.850   3.482  0.1840 -0.0035  0.1494
  283CLA    CLA22343   1.390   4.270   0.827 -0.3718 -0.4376 -0.1604
  284CLA    CLA22344   1.205   5.101  14.704  0.2025 -0.7166  0.2022
  285CLA    CLA22345   2.675   4.907   0.409  0.3703  0.0939 -0.3811
  286CLA    CLA22346   3.535   3.622   0.682  0.5142 -0.2222 -0.0482
  287CLA    CLA22347   3.079   5.000  13.965  0.0262 -0.1620  0.3836
  288CLA    CLA22348   3.510   5.140  12.403 -0.0102 -0.2828 -0.3589
  289CLA    CLA22349   1.410   1.956   4.812 -0.1557  0.1880  0.0227
  290CLA    CLA22350   2.542   0.801  13.042  0.3591 -0.2227 -0.0417
  291CLA    CLA22351   3.732   2.495   4.940  0.1297 -0.1404 -0.2431
  292CLA    CLA22352   0.112   5.067   4.616  0.2873  0.1470  0.3392
  293CLA    CLA22353   4.844   5.995   1.764 -0.2827  0.0021  0.0307
  294CLA    CLA22354   0.426   0.217   1.742 -0.2165 -0.4565  0.1934
  295CLA    CLA22355   3.226   1.643   1.901  0.2759 -0.4403 -0.2946
  296CLA    CLA22356   4.223   1.860   3.057  0.0026 -0.0591 -0.3727
  297CLA    CLA22357   5.088   4.158  13.882 -0.2351  0.2119  0.4301
  298CLA    CLA22358   6.299   3.907  16.292 -0.3141 -0.2125 -0.1147
  299CLA    CLA22359   6.316   1.924   1.214  0.0127  0.0324  0.2013
  300CLA    CLA22360   0.104   3.662  12.762 -0.4637  0.2823  0.0900
  301CLA    CLA22361   1.135   2.090  16.843  0.2637  0.3254 -0.2358
  302CLA    CLA22362   4.718   2.046   1.582  0.3297  0.1896 -0.0549
  303CLA    CLA22363   3.516   3.972   3.151 -0.3112 -0.0629 -0.4246
  304CLA    CLA22364   4.596   5.007  11.814  0.2621  0.1851  0.3789
  305CLA    CLA22365   1.880   5.549   1.470 -0.0569  0.4057 -0.0911
  306CLA    CLA22366   5.439   0.115  15.671 -0.2959  0.2845 -0.1129
  307CLA    CLA22367   2.338   0.000  11.739 -0.0004  0.2008 -0.4708
  308CLA    CLA22368   2.613   5.157  15.609 -0.2681  0.1321 -0.1245
  309CLA    CLA22369   4.393   5.199  16.994  0.3324  0.1890  0.1619
  310CLA    CLA22370   3.023   3.360   3.275  0.4342  0.4015  0.0897
  311CLA    CLA22371   4.610   0.227   3.264 -0.3178 -0.1453 -0.0587
  312CLA    CLA22372   0.296   0.252   4.259  0.0356  0.0512 -0.2961
  313CLA    CLA22373   4.707   0.876  13.845  0.2270  0.0394 -0.2267
  314CLA    CLA22374   6.377   0.548  11.829 -0.3283  0.1183  0.2784
  315CLA    CLA22375   3.179   4.330   1.069 -0.2179  0.0469 -0.1825
  316CLA    CLA22376   6.616   2.695   3.402  0.0697  0.1931 -0.4420
  317CLA    CLA22377   2.670   5.275   3.420 -0.0007  0.4711  0.3563
  318CLA    CLA22378   0.749   1.688   5.492  0.2032 -0.3148 -0.1579
  319CLA    CLA22379   6.779   0.491   4.985  0.1297  0.2454  0.2194
  320CLA    CLA22380   3.033   4.713  13.305  0.0322  0.5060 -0.0409
  321CLA    CLA22381   4.555   2.545  17.007 -0.1851 -0.1091  0.1191
  322CLA    CLA22382   1.587   3.434  14.587  0.4526  0.1931 -0.1869
  323TIP3   OH222383   2.200   5.223  16.109 -0.6748  0.7647  0.2432
  323TIP3    H122384   2.294   5.243  16.116 -0.6103  1.1208 -1.2668
  323TIP3    H222385   2.168   5.228  16.198  1.4090 -2.8827  1.4044
  324TIP3   OH222386   6.155   5.441   3.709 -0.2846 -0.3439 -0.3429
  324TIP3    H122387   6.063   5.434   3.682 -0.2490  1.8337 -1.2374
  324TIP3    H222388   6.202   5.466   3.630  0.4786  2.1087  0.7964
  325TIP3   OH222389   0.931   4.360  15.493 -0.0820 -0.7115 -0.2213
  325TIP3    H122390   0.993   4.328  15.428  1.0248 -2.7221  1.6815
  325TIP3    H222391   0.925   4.454  15.476  1.1812 -0.9578 -2.3430
  326TIP3   OH222392   5.244   2.822  13.064 -0.1699 -0.0158  0.3931
  326TIP3    H122393   5.309   2.893  13.071  1.4494 -1.4327  0.5414
  326TIP3    H222394   5.290   2.753  13.016 -0.8976 -1.8145  2.1274
  327TIP3   OH222395   6.519   2.622   4.525  0.2410 -0.2230  1.0949
  327TIP3    H122396   6.512   2.713   4.498 -0.3125 -0.4976  0.2713
  327TIP3    H222397   6.513   2.625   4.621 -1.9720  0.4458  0.9938
  328TIP3   OH222398   3.908   5.195  16.180 -0.2092 -0.4152 -0.1266
  328TIP3    H122399   3.993   5.228  16.209  0.3920  0.2684 -2.4663
  328TIP3    H222400   3.914   5.193  16.084 -3.0503  0.2691 -0.4015
  329TIP3   OH222401   3.733   6.607  10.574 -0.2932 -0.2861 -0.7485
  329TIP3    H122402   3.758   6.544  10.642  1.5835  0.6598 -0.4726
  329TIP3    H222403   3.690   6.678  10.622 -0.0946 -0.1943 -0.7033
  330TIP3   OH222404   3.498   2.916   0.907  0.4244 -0.3897 -0.4677
  330TIP3    H122405   3.573   2.956   0.864  0.9293 -0.1153  0.6301
  330TIP3    H222406   3.502   2.949   0.997  0.0909 -1.8692  0.1149
  331TIP3   OH222407   2.526   3.103  11.364  0.0170  0.0674 -0.7287
  331TIP3    H122408   2.493   3.138  11.447  0.2470  0.4358 -0.7911
  331TIP3    H222409   2.617   3.132  11.360 -0.1039  0.4039 -1.2983
  332TIP3   OH222410   2.088   6.568  12.608  0.0680  0.1714  0.2665
  332TIP3    H122411   2.015   6.586  12.666  0.5426 -0.5901  1.1356
  332TIP3    H222412   2.141   6.648  12.611 -0.3361  0.4449  0.2213
  333TIP3   OH222413   1.533   0.899   4.747  0.1073  0.0132 -0.3365
  333TIP3    H122414   1.439   0.879   4.747  0.2553 -0.7011 -0.1063
  333TIP3    H222415   1.561   0.883   4.837  1.1986 -3.5024 -1.1646
  334TIP3   OH222416   2.166   2.218  12.073  0.5520 -0.1453 -0.2120
  334TIP3    H122417   2.257   2.228  12.100  0.8025  1.8559 -1.6184
  334TIP3    H222418   2.171   2.174  11.988  0.3856  1.6426 -1.1957
  335TIP3   OH222419   2.142   2.633   0.178  0.3320  0.9292 -0.6171
  335TIP3    H122420   2.176   2.554   0.220  0.5840 -0.2576 -2.9101
  335TIP3    H222421   2.087   2.674   0.246 -0.2234 -1.4703  0.5017
  336TIP3   OH222422   2.316   4.029  13.937  1.1396  0.2214 -0.2326
  336TIP3    H122423   2.352   4.113  13.910  0.3992  0.5172 -0.3052
  336TIP3    H222424   2.222   4.041  13.936  1.0138  0.3776  2.8175
  337TIP3   OH222425   0.746   3.339  16.583  0.2727  0.1715  0.3968
  337TIP3    H122426   0.788   3.424  16.599 -0.2362  0.4459  0.3120
  337TIP3    H222427   0.818   3.282  16.556  0.2997  1.2309 -2.0793
  338TIP3   OH222428   2.925   1.512   5.674 -0.2544  0.6276 -0.4366
  338TIP3    H122429   2.885   1.428   5.649  0.8176 -0.2666  0.7331
  338TIP3    H222430   2.854   1.559   5.718 -1.2506  0.9362 -2.2436
  339TIP3   OH222431   1.781   2.251  16.464  0.6314 -0.0061 -0.3800
  339TIP3    H122432   1.829   2.314  16.518  0.3358 -1.0602  1.1916
  339TIP3    H222433   1.817   2.166  16.489 -0.0582 -0.5929 -1.3052
  340TIP3   OH222434   5.449   5.053   0.546  0.2523  0.5658 -0.0413
  340TIP3    H122435   5.407   5.025   0.464  2.7784 -3.2135 -0.3281
  340TIP3    H222436   5.537   5.080   0.519  0.3656  1.5460  1.2286
  341TIP3   OH222437   3.245   1.729   1.619 -0.1058 -0.2208  0.4135
  341TIP3    H122438   3.154   1.756   1.609  0.1641  0.3406 -0.6454
  341TIP3    H222439   3.252   1.701   1.711 -1.0161  0.9700  0.8649
  342TIP3   OH222440   3.105   1.664  13.971  0.5787  0.4446  0.3068
  342TIP3    H122441   3.131   1.572  13.974 -2.6493 -0.5490  0.8025
  342TIP3    H222442   3.153   1.705  14.044  5.9694  0.5362 -2.7181
  343TIP3   OH222443   1.383   4.587   3.128 -0.0604 -0.4759 -0.5304
  343TIP3    H122444   1.322   4.540   3.072 -0.4088 -2.7950  1.6589
  343TIP3    H222445   1.470   4.560   3.098 -0.2494 -2.9094  0.8407
  344TIP3   OH222446   5.561   0.805   2.112 -0.2332 -0.2329  0.0548
  344TIP3    H122447   5.605   0.851   2.040 -1.5139  0.9564  0.0008
  344TIP3    H222448   5.474   0.786   2.078 -0.7020 -0.0548  1.1345
  345TIP3   OH222449   3.223   1.731  14.206 -0.6900  0.0124  0.0844
  345TIP3    H122450   3.313   1.724  14.239 -1.3893 -0.4286  1.9972
  345TIP3    H222451   3.178   1.788  14.268 -1.3026  1.8362 -1.9084
  346TIP3   OH222452   3.353   3.646  15.314  0.4667 -0.4164 -0.4057
  346TIP3    H122453   3.358   3.666  15.221 -1.7204 -1.4661 -0.8269
  346TIP3    H222454   3.444   3.634  15.342  1.1025 -1.5602 -2.7647
  347TIP3   OH222455   6.238   3.688  11.835  0.2258 -0.3506  0.1719
  347TIP3    H122456   6.264   3.769  11.792 -0.4824  0.2399  0.8340
  347TIP3    H222457   6.318   3.635  11.837  0.9252  0.6914  0.5450
  348TIP3   OH222458   1.758   1.858   2.828  0.0991  0.6313  0.1390
  348TIP3    H122459   1.754   1.875   2.922 -2.6095 -0.8447  0.3835
  348TIP3    H222460   1.752   1.944   2.787 -0.5389  1.1706  1.3331
  349TIP3   OH222461   6.184   4.882   6.074 -0.3543 -0.1307  0.2111
  349TIP3    H122462   6.207   4.953   6.134  1.8849  0.3858 -1.1511
  349TIP3    H222463   6.185   4.804   6.128  3.4601  0.0456  0.6754
  350TIP3   OH222464   3.199   4.271  17.119 -0.2282  0.2350 -0.8854
  350TIP3    H122465   3.166   4.235  17.037 -0.4750  0.6766 -0.9831
  350TIP3    H222466   3.144   4.347  17.136 -1.7880 -1.1957  0.9424
  351TIP3   OH222467   0.711   4.319   6.319  0.0585 -0.1544  0.4328
  351TIP3    H122468   0.645   4.387   6.307 -1.1886 -1.3775  0.0121
  351TIP3    H222469   0.771   4.354   6.385 -1.0357  0.9932  0.8548
  352TIP3   OH222470   2.762   0.116  15.995 -0.5741 -0.2618 -0.0694
  352TIP3    H122471   2.799   0.039  15.953  1.0548 -0.8925  2.3176
  352TIP3    H222472   2.694   0.082  16.053  0.1241  0.0938  0.9690
  353TIP3   OH222473   1.912   4.341  12.981 -0.2726  0.1073 -0.0636
  353TIP3    H122474   1.838   4.309  13.032  0.6792  0.3135  1.5329
  353TIP3    H222475   1.921   4.433  13.005  0.9432 -0.0974  0.3713
  354TIP3   OH222476   4.542   1.337   3.088  0.2095 -0.0017 -0.5849
  354TIP3    H122477   4.470   1.374   3.139  0.6574 -1.1507  0.9646
  354TIP3    H222478   4.500   1.277   3.027 -0.2265  0.1366 -0.4216
  355TIP3   OH222479   3.374   1.455   5.062 -0.4189 -0.2082 -0.6397
  355TIP3    H122480   3.344   1.368   5.036  0.5241 -0.6045 -0.4255
  355TIP3    H222481   3.352   1.511   4.987  2.4100 -1.3526 -2.5041
  356TIP3   OH222482   3.337   3.587  16.487  1.1013  0.0023  0.2355
  356TIP3    H122483   3.340   3.538  16.569 -1.1702 -0.3542  0.1767
  356TIP3    H222484   3.402   3.544  16.431  0.5121 -1.7768  0.8338
  357TIP3   OH222485   3.330   4.355   0.312  0.3760 -0.0729  0.1735
  357TIP3    H122486   3.330   4.282   0.250 -0.4466 -0.4431  0.5933
  357TIP3    H222487   3.382   4.423   0.269 -1.4620  0.2714 -1.6456
  358TIP3   OH222488   3.473   4.024   4.950 -0.1349 -0.5205  0.0965
  358TIP3    H122489   3.560   4.058   4.972  1.5486 -3.5139 -1.2511
  358TIP3    H222490   3.420   4.040   5.028  1.5752  1.4220  0.9558
  359TIP3   OH222491   3.077   1.114   5.607  0.4031 -0.1215 -0.0850
  359TIP3    H122492   3.023   1.036   5.611 -0.8768  0.7750  1.0748
  359TIP3    H222493   3.035   1.169   5.541 -0.7291  0.9655  1.4577
  360TIP3   OH222494   3.455   1.788   3.958 -0.3189 -0.2190  0.2769
  360TIP3    H122495   3.479   1.742   3.877 -2.3229  0.3816 -0.7283
  360TIP3    H222496   3.468   1.881   3.938 -1.2660 -0.0334  0.4421
  361TIP3   OH222497   2.704   1.362  12.257  0.0004 -0.0199  0.4230
  361TIP3    H122498   2.661   1.425  12.199  0.3782 -2.7469 -3.1431
  361TIP3    H222499   2.638   1.295  12.274  0.5050 -0.2540  1.6291
  362TIP3   OH222500   5.344   3.173  13.665 -0.0331 -0.0864  0.1496
  362TIP3    H122501   5.282   3.176  13.738 -2.1494  0.9694 -1.5602
  362TIP3    H222502   5.391   3.257  13.671 -1.4825  0.8232 -0.6797
  363TIP3   OH222503   1.150   1.374   3.381  0.1788 -0.1801 -0.4018
  363TIP3    H122504   1.067   1.348   3.422  0.0320 -0.8749 -1.1099
  363TIP3    H222505   1.193   1.292   3.360  0.3110  0.1518 -1.5035
  364TIP3   OH222506   0.572   0.927  15.027  0.3593 -0.1340  0.2900
  364TIP3    H122507   0.642   0.912  14.963  0.9331 -3.2328  1.4566
  364TIP3    H222508   0.579   1.019  15.050  1.9202  0.4073 -2.0267
  365TIP3   OH222509   0.170   5.266  14.894 -0.4999  0.3352 -0.8211
  365TIP3    H122510   0.121   5.184  14.899  0.3436 -0.1857 -0.8212
  365TIP3    H222511   0.232   5.252  14.823 -0.4114  1.0081 -0.8786
  366TIP3   OH222512   0.921   4.845  15.612 -0.1281  0.1280 -0.1870
  366TIP3    H122513   0.855   4.874  15.549  0.2947  0.9531 -0.2707
  366TIP3    H222514   0.994   4.816  15.558  0.2878  0.9625 -0.0955
  367TIP3   OH222515   4.508   2.399   4.254 -0.3273 -0.4883 -0.3227
  367TIP3    H122516   4.468   2.486   4.247  3.1936  1.4381  0.8712
  367TIP3    H222517   4.459   2.356   4.324 -1.2027  1.1422  0.1178
  368TIP3   OH222518   3.353   3.362   6.407  0.8536  0.3629  0.0169
  368TIP3    H122519   3.272   3.406   6.431  0.4399 -0.0177 -0.6543
  368TIP3    H222520   3.391   3.335   6.491  0.6761  1.2064  0.3778
  369TIP3   OH222521   1.100   2.435   4.192 -0.1355  0.7321  0.4083
  369TIP3    H122522   1.150   2.434   4.274 -0.2004  1.2794  0.4608
  369TIP3    H222523   1.099   2.527   4.166 -1.0899  0.7305  0.3928
  370TIP3   OH222524   2.720   3.405   3.227 -0.3512  0.1268 -0.2828
  370TIP3    H122525   2.814   3.386   3.234 -0.1998  1.2678  1.6490
  370TIP3    H222526   2.709   3.487   3.275 -2.4685 -0.3844  0.1935
  371TIP3   OH222527   3.906   3.730  13.468 -0.3723 -0.0298  0.8049
  371TIP3    H122528   3.942   3.725  13.379  0.2136  3.9922  0.6331
  371TIP3    H222529   3.813   3.751  13.454 -0.3749  0.1871  1.1513
  372TIP3   OH222530   5.808   0.697   0.848 -0.4861  0.4614 -0.2443
  372TIP3    H122531   5.844   0.765   0.791  1.0510 -0.0800  0.0320
  372TIP3    H222532   5.803   0.737   0.934  1.1668  0.0166  0.0845
  373TIP3   OH222533   2.025   3.608   3.089 -0.5006 -0.9800 -0.4182
  373TIP3    H122534   2.089   3.551   3.132 -0.6506  0.7145  2.2552
  373TIP3    H222535   2.056   3.697   3.108 -1.8741 -0.1343 -1.9246
  374TIP3   OH222536   3.872   6.687  12.921 -0.0950 -0.0411  0.3897
  374TIP3    H122537   3.930   6.620  12.959  0.4010 -1.4336 -2.5686
  374TIP3    H222538   3.784   6.661  12.949  0.1289 -1.7614 -0.3534
  375TIP3   OH222539   4.510   1.387  13.889  0.1082 -0.3083 -0.4906
  375TIP3    H122540   4.470   1.335  13.819 -0.4607 -2.0360  1.0305
  375TIP3    H222541   4.443   1.389  13.958  0.9661  0.6172  0.3360
  376TIP3   OH222542   1.243   3.634   1.033 -0.4629 -0.4483  0.1434
  376TIP3    H122543   1.249   3.543   1.063 -1.1620 -0.5899 -0.1188
  376TIP3    H222544   1.241   3.628   0.938 -0.4370 -0.1510  0.1220
  377TIP3   OH222545   6.225   5.819   3.552 -0.1248 -0.2512 -0.0282
  377TIP3    H122546   6.149   5.764   3.534  0.8002 -1.2024 -1.2014
  377TIP3    H222547   6.279   5.811   3.473  1.4083  0.0177  0.9652
  378TIP3   OH222548   4.858   5.415   1.310  0.2883 -0.0581  0.0975
  378TIP3    H122549   4.782   5.358   1.300 -1.2993  1.7936  0.8394
  378TIP3    H222550   4.914   5.369   1.372 -0.7985 -0.9528  0.4574
  379TIP3   OH222551   3.609   0.634   5.401 -0.7421  0.2247 -0.0587
  379TIP3    H122552   3.659   0.676   5.330 -0.3610  2.2557  1.3270
  379TIP3    H222553   3.676   0.605   5.463 -1.0855 -1.2755 -0.3576
  380TIP3   OH222554   0.539   2.610   0.401 -0.0270 -0.1404 -0.1659
  380TIP3    H122555   0.533   2.572   0.489  0.6765 -0.6757 -0.3381
  380TIP3    H222556   0.570   2.539   0.346 -1.9213 -0.2461 -1.1812
  381TIP3   OH222557   1.795   5.129   0.361 -0.1074 -0.6131 -0.1877
  381TIP3    H122558   1.707   5.102   0.336 -0.2614 -2.5937  2.0535
  381TIP3    H222559   1.844   5.047   0.367  0.8822  0.0516  1.9061
  382TIP3   OH222560   1.196   1.526   0.218 -0.0571 -1.4712  0.1373
  382TIP3    H122561   1.267   1.565   0.269  0.1139 -0.6773 -0.6955
  382TIP3    H222562   1.219   1.543   0.127 -2.7245  1.4028 -0.1359
  383TIP3   OH222563   2.572   4.621  13.017 -0.0718 -0.9609  0.0620
  383TIP3    H122564   2.575   4.608  13.112  2.8217 -0.9150  0.0568
  383TIP3    H222565   2.531   4.542  12.983  0.1217 -1.6058  1.2790
  384TIP3   OH222566   2.276   6.565   5.918  0.3518  0.0209  0.1023
  384TIP3    H122567   2.320   6.642   5.882 -0.4677  0.2973 -0.3207
  384TIP3    H222568   2.183   6.582   5.907  0.1222 -0.5565  0.9984
  385TIP3   OH222569   6.725   0.325  12.820 -0.1687  0.4901 -0.4032
  385TIP3    H122570   6.729   0.244  12.871 -1.8065  0.9737  0.5556
  385TIP3    H222571   6.794   0.380  12.857 -0.2118  0.1909  0.1290
  386TIP3   OH222572   1.759   6.366   4.301  0.3494 -0.2918 -0.2974
  386TIP3    H122573   1.849   6.340   4.281  1.2770  2.1590  0.3108
  386TIP3    H222574   1.741   6.438   4.242 -0.6209  0.3139  0.6979
  387TIP3   OH222575   6.077   1.236   5.063 -0.0677 -0.2816 -0.2687
  387TIP3    H122576   6.135   1.247   5.138  0.7902 -0.0699 -0.9524
  387TIP3    H222577   5.999   1.287   5.086 -0.0993 -0.7543  0.7561
  388TIP3   OH222578   6.064   1.531   4.500  0.3871  0.0995 -0.3509
  388TIP3    H122579   6.025   1.616   4.520 -2.5687 -1.2086 -0.1631
  388TIP3    H222580   6.132   1.551   4.436  0.2432  2.6471  0.1740
  389TIP3   OH222581   6.480   2.322   1.683  0.7819 -0.1331  0.4771
  389TIP3    H122582   6.484   2.281   1.769 -2.2070 -0.7331  0.4432
  389TIP3    H222583   6.561   2.372   1.676  1.0263  0.1264  3.7427
  390TIP3   OH222584   6.029   2.163   2.014 -0.5943  0.2068  0.5878
  390TIP3    H122585   5.969   2.237   2.024 -0.3967  0.1736  2.2415
  390TIP3    H222586   6.116   2.200   2.025 -0.4641 -0.1906  0.9393
  391TIP3   OH222587   2.278   2.132   1.803 -0.1290  0.0792  0.4026
  391TIP3    H122588   2.357   2.130   1.748 -0.7376 -2.8827 -0.5688
  391TIP3    H222589   2.206   2.138   1.741 -0.7484  0.9554  1.1828
  392TIP3   OH222590   2.332   2.131   0.844  0.1801 -0.2273 -0.2002
  392TIP3    H122591   2.272   2.102   0.776  1.2126 -1.1099 -0.7746
  392TIP3    H222592   2.417   2.096   0.817  0.9847  1.1005  0.5077
  393TIP3   OH222593   3.747   5.793   5.496  0.1019 -0.0146 -0.2456
  393TIP3    H122594   3.671   5.801   5.553 -0.6736  0.2341 -1.2761
  393TIP3    H222595   3.793   5.876   5.506 -0.9298  0.7068 -1.1953
  394TIP3   OH222596   0.172   1.654   5.365 -0.2455 -0.2736  0.3966
  394TIP3    H122597   0.262   1.669   5.392 -0.1562  0.4955 -0.2605
  394TIP3    H222598   0.123   1.729   5.400 -0.9337 -1.4471  2.0424
  395TIP3   OH222599   5.410   1.520  11.868  0.3650 -0.4046 -0.3046
  395TIP3    H122600   5.505   1.522  11.886  0.0769 -1.3932  1.7022
  395TIP3    H222601   5.398   1.444  11.811  0.6953 -0.8516  0.2086
  396TIP3   OH222602   2.202   2.033   0.340  0.3540  0.4116 -0.5429
  396TIP3    H122603   2.208   2.095   0.268 -1.9300  0.5777 -0.6530
  396TIP3    H222604   2.185   1.949   0.298 -0.6251  0.4445 -0.2180
  397TIP3   OH222605   5.073   2.098  12.944  0.3449  0.0204 -0.1261
  397TIP3    H122606   5.156   2.064  12.980  0.5452  2.3148  1.8132
  397TIP3    H222607   5.091   2.190  12.925 -1.2197  0.0549 -1.6165
  398TIP3   OH222608   2.201   3.511  16.259  0.2612 -0.3204  0.2195
  398TIP3    H122609   2.247   3.540  16.337  1.3054 -1.7490  0.1698
  398TIP3    H222610   2.141   3.443  16.289 -1.2808  0.9408  0.1504
  399TIP3   OH222611   5.742   4.425  16.276  0.3285 -0.2896 -0.3269
  399TIP3    H122612   5.683   4.442  16.202 -0.8459 -2.2621  0.0760
  399TIP3    H222613   5.785   4.509  16.292 -0.8864  0.7138 -1.9368
  400TIP3   OH222614   0.173   3.969   5.360  0.1281  0.0628 -0.5769
  400TIP3    H122615   0.108   3.899   5.371  1.2461 -0.9335 -0.1121
  400TIP3    H222616   0.151   4.009   5.276  0.8045 -2.3094 -1.9563
  401TIP3   OH222617   2.964   2.352   5.902  0.0100  0.5886  0.0727
  401TIP3    H122618   2.912   2.432   5.903  0.2664  0.7503  0.7596
  401TIP3    H222619   2.957   2.320   5.811  0.9035  2.0285 -0.5382
  402TIP3   OH222620   3.969   2.173   3.589  0.8579 -0.5517  1.1005
  402TIP3    H122621   3.938   2.243   3.532  1.1981 -1.4971 -0.2915
  402TIP3    H222622   3.916   2.181   3.668  1.8738  2.2051  1.6402
  403TIP3   OH222623   6.543   2.687   5.787  0.6020 -0.3313 -0.2046
  403TIP3    H122624   6.459   2.642   5.775 -0.0986  1.1639 -1.3761
  403TIP3    H222625   6.521   2.764   5.840  0.4682  1.8246 -3.1130
  404TIP3   OH222626   5.045   2.281  17.204  0.2284  0.1817 -0.4867
  404TIP3    H122627   5.031   2.361  17.254 -1.3578  0.3637 -1.1499
  404TIP3    H222628   4.978   2.284  17.135  0.2084 -1.6557 -0.5877
  405TIP3   OH222629   1.532   3.336  11.368 -0.0077 -0.7408  0.1100
  405TIP3    H122630   1.556   3.244  11.379  0.8465 -0.5862 -0.4131
  405TIP3    H222631   1.523   3.348  11.273  1.7820  0.1590  0.0100
  406TIP3   OH222632   5.863   4.350   4.639 -0.3835 -0.3836 -0.8374
  406TIP3    H122633   5.770   4.355   4.663 -0.6988 -0.9951 -1.8460
  406TIP3    H222634   5.894   4.440   4.645 -1.0913 -0.1441 -0.6390
  407TIP3   OH222635   5.153   6.594  14.253  0.0767  0.2782  0.2154
  407TIP3    H122636   5.153   6.594  14.158 -0.4717  0.5398  0.2125
  407TIP3    H222637   5.111   6.677  14.277 -2.0962 -0.8679  0.6620
  408TIP3   OH222638   2.157   2.849   6.077 -0.1688  0.6487  0.2473
  408TIP3    H122639   2.170   2.926   6.132  1.2796  1.8755 -1.6856
  408TIP3    H222640   2.214   2.782   6.116 -2.3184  0.0729  2.6294
  409TIP3   OH222641   0.281   5.500   1.025  0.3127  0.4569  0.1505
  409TIP3    H122642   0.270   5.540   1.111 -0.3962 -0.1197  0.3299
  409TIP3    H222643   0.200   5.519   0.978  1.5044  2.6796 -1.2152
  410TIP3   OH222644   2.792   2.309   2.599  0.0651 -0.0520 -0.1291
  410TIP3    H122645   2.846   2.351   2.532 -1.1776 -0.7053 -1.6158
  410TIP3    H222646   2.712   2.284   2.552 -1.2225  0.2154  1.8045
  411TIP3   OH222647   4.624   1.796   5.899 -0.0273  0.3580  0.3951
  411TIP3    H122648   4.574   1.856   5.844 -0.0214  0.9293  1.0067
  411TIP3    H222649   4.563   1.771   5.969  0.0338 -0.1955  0.2553
  412TIP3   OH222650   6.691   6.364   5.262  0.1782 -0.5335 -0.3064
  412TIP3    H122651   6.596   6.368   5.265  0.2264  0.4903  0.1176
  412TIP3    H222652   6.718   6.353   5.353  0.4853 -0.4346 -0.3842
  413TIP3   OH222653   4.796   5.957   5.050  0.0902  0.5391 -0.2010
  413TIP3    H122654   4.828   6.027   5.106 -0.4790  0.5289  0.1454
  413TIP3    H222655   4.755   5.895   5.110  1.6604 -0.7229 -0.3579
  414TIP3   OH222656   3.231   4.691  13.960  0.2388 -0.0003 -0.2079
  414TIP3    H122657   3.179   4.771  13.958 -1.1989 -0.9141 -1.7987
  414TIP3    H222658   3.168   4.622  13.983  1.1949 -0.8407 -0.0370
  415TIP3   OH222659   0.937   5.894  15.611  0.3026 -0.7645 -0.3730
  415TIP3    H122660   0.921   5.807  15.574  0.3675  0.1793 -2.8057
  415TIP3    H222661   0.860   5.945  15.584 -0.7470 -0.4992  2.7625
  416TIP3   OH222662   5.091   3.229  14.437  0.0654 -0.4825 -0.1826
  416TIP3    H122663   5.094   3.268  14.350 -0.0529  1.6206  0.7047
  416TIP3    H222664   5.163   3.271  14.485 -1.3831  0.2510  1.4332
  417TIP3   OH222665   5.158   3.992   3.785 -0.8765 -1.1090 -0.1334
  417TIP3    H122666   5.182   4.076   3.824  1.1089 -1.3052 -0.8017
  417TIP3    H222667   5.197   3.927   3.844 -1.6849 -1.5437 -0.0693
  418TIP3   OH222668   2.857   4.877  11.739 -0.2353  0.0216 -0.5721
  418TIP3    H122669   2.916   4.818  11.786 -2.0881 -1.0866  0.4824
  418TIP3    H222670   2.862   4.848  11.647  0.4003 -0.4294 -0.4033
  419TIP3   OH222671   5.996   0.421   1.457  0.2758 -0.4806  0.0032
  419TIP3    H122672   5.967   0.334   1.428  0.5855 -0.2396 -1.0938
  419TIP3    H222673   6.054   0.403   1.531  2.1499 -1.4340 -1.5748
  420TIP3   OH222674   2.258   2.683  16.183  0.3330  0.1286 -0.2357
  420TIP3    H122675   2.166   2.659  16.172  0.3194  0.1457 -0.1589
  420TIP3    H222676   2.283   2.646  16.268  0.9226 -1.4782 -1.0820
  421TIP3   OH222677   3.291   1.534  15.616 -1.0161  0.3158  0.0608
  421TIP3    H122678   3.217   1.536  15.677 -0.5257  2.3011  0.6538
  421TIP3    H222679   3.255   1.495  15.536 -3.1216  2.4341 -0.1413
  422TIP3   OH222680   0.294   3.619   3.430  0.0466 -0.4936 -0.0453
  422TIP3    H122681   0.204   3.647   3.411  0.3981  0.5611 -0.2077
  422TIP3    H222682   0.287   3.573   3.514 -0.4234  0.9690  0.7711
  423TIP3   OH222683   0.270   0.552  14.973  0.3203  0.0162 -0.3590
  423TIP3    H122684   0.192   0.501  14.949  1.4306 -1.5407 -0.8242
  423TIP3    H222685   0.302   0.588  14.891  0.8438 -0.4761 -0.3749
  424TIP3   OH222686   1.391   2.387  15.196 -0.6046  0.9253  0.3505
  424TIP3    H122687   1.444   2.354  15.124  0.1075 -0.8792  1.6163
  424TIP3    H222688   1.453   2.430  15.255 -1.0923  1.8833  0.1930
  425TIP3   OH222689   5.276   4.519  15.633  0.0533  0.6629  0.0467
  425TIP3    H122690   5.193   4.521  15.586 -0.0468 -0.2891  0.1679
  425TIP3    H222691   5.253   4.546  15.722 -0.3582 -0.7648  0.3941
  426TIP3   OH222692   0.570   3.510  13.563  0.8752 -0.5738 -0.7318
  426TIP3    H122693   0.567   3.415  13.577  0.9960 -0.6281 -1.0640
  426TIP3    H222694   0.656   3.525  13.524  0.3983 -0.4820 -1.7901
  427TIP3   OH222695   5.397   3.532   6.121  0.2856  0.2470 -0.2932
  427TIP3    H122696   5.350   3.497   6.045 -2.0559  0.8180  0.7811
  427TIP3    H222697   5.406   3.625   6.102 -0.0969  0.3491  0.0182
  428TIP3   OH222698   6.329   3.548  14.473  0.3392  0.2790 -0.6153
  428TIP3    H122699   6.281   3.470  14.447 -2.2824  1.1047  1.2668
  428TIP3    H222700   6.284   3.620  14.430  1.2783  0.9434 -0.5268
  429TIP3   OH222701   3.429   0.500   0.823 -0.3164  0.4942  0.1261
  429TIP3    H122702   3.519   0.471   0.808 -0.2835  1.4037 -1.5706
  429TIP3    H222703   3.379   0.463   0.751 -0.4544  3.7016 -1.5898
  430TIP3   OH222704   0.910   0.945  12.097 -0.5041 -0.0344 -0.1895
  430TIP3    H122705   0.892   1.038  12.109 -1.3036 -0.3013  0.8722
  430TIP3    H222706   0.914   0.910  12.186 -1.4160 -1.2248 -0.5893
  431TIP3   OH222707   2.072   1.686  15.003 -0.3250 -0.2949  0.1274
  431TIP3    H122708   2.150   1.657  15.052  1.1013 -0.5422 -2.1484
  431TIP3    H222709   2.019   1.732  15.068  1.2282 -1.0063  2.0060
  432TIP3   OH222710   0.746   2.252   2.760 -0.4203  0.0465  0.7324
  432TIP3    H122711   0.729   2.284   2.672 -0.3483 -0.6187  0.4661
  432TIP3    H222712   0.825   2.198   2.751 -0.7561 -0.5196  1.0775
  433TIP3   OH222713   2.307   1.217  15.439  0.3028  0.2320  0.3666
  433TIP3    H122714   2.346   1.150  15.495  1.4010  1.0632  0.6185
  433TIP3    H222715   2.284   1.288  15.499 -2.1706 -0.4495  0.3169
  434TIP3   OH222716   5.479   5.751  12.121  0.3574 -0.1618  0.3585
  434TIP3    H122717   5.448   5.757  12.212 -2.3311  1.1026 -0.5385
  434TIP3    H222718   5.499   5.659  12.108 -0.3680 -0.5704  1.8956
  435TIP3   OH222719   4.021   4.837   3.554 -0.4598  0.2384 -0.1214
  435TIP3    H122720   3.984   4.922   3.531  1.3121  0.4084 -2.8004
  435TIP3    H222721   3.998   4.780   3.481  0.8920 -0.7547  0.1739
  436TIP3   OH222722   5.344   2.267  12.176 -0.6246  0.5100 -0.3191
  436TIP3    H122723   5.380   2.181  12.153  1.7331  1.5910 -0.9217
  436TIP3    H222724   5.399   2.298  12.247 -0.8589  1.9067 -0.7157
  437TIP3   OH222725   4.480   3.519   3.966  0.1256 -0.2817  0.3614
  437TIP3    H122726   4.518   3.603   3.941 -0.9285  0.2545  0.5187
  437TIP3    H222727   4.438   3.487   3.886  1.4994 -1.2279 -0.0146
  438TIP3   OH222728   0.693   4.198   4.386 -0.2625  0.8944 -0.4707
  438TIP3    H122729   0.758   4.140   4.346 -0.7784 -1.3267  1.6532
  438TIP3    H222730   0.609   4.166   4.353 -0.5940 -0.0993  1.1781
  439TIP3   OH222731   4.486   1.403  10.890  0.4097  0.6170 -0.4305
  439TIP3    H122732   4.417   1.390  10.825  2.1353  1.7628 -2.6392
  439TIP3    H222733   4.472   1.492  10.923  0.5500  0.6837 -0.5478
  440TIP3   OH222734   1.984   0.453   2.249  0.2526  0.4868 -0.7079
  440TIP3    H122735   1.911   0.437   2.189  0.1144  0.4024 -0.5188
  440TIP3    H222736   1.942   0.466   2.335  0.4235  0.9694 -0.6950
  441TIP3   OH222737   1.992   5.567  13.981 -0.0407 -0.8548 -0.0151
  441TIP3    H122738   1.986   5.558  13.886 -0.9602 -3.5733  0.2358
  441TIP3    H222739   2.051   5.497  14.008  0.4935  0.1057  1.4062
  442TIP3   OH222740   4.774   0.907   4.325  0.3552 -0.3564  0.0909
  442TIP3    H122741   4.814   0.862   4.399 -0.5914 -1.2553  0.0691
  442TIP3    H222742   4.685   0.874   4.321 -0.4675  1.7382  0.2232
  443TIP3   OH222743   2.711   2.180  12.519 -0.9886  0.5974  0.1158
  443TIP3    H122744   2.621   2.168  12.488 -0.4929 -0.7133 -0.9129
  443TIP3    H222745   2.746   2.092  12.527  0.9460  1.0837 -1.8708
  444TIP3   OH222746   4.330   0.669   0.949 -0.2412 -0.5206  0.3189
  444TIP3    H122747   4.241   0.659   0.983 -0.6558  0.1552 -0.5302
  444TIP3    H222748   4.318   0.685   0.855  0.7475  0.0603  0.2803
  445TIP3   OH222749   2.027   3.069   4.844 -0.3660  0.3391  0.2255
  445TIP3    H122750   2.056   3.161   4.848  2.9825 -0.5449 -0.4689
  445TIP3    H222751   2.072   3.027   4.917  1.5903 -1.4790 -1.8683
  446TIP3   OH222752   2.829   4.995  16.060  0.5846 -0.6108  0.2809
  446TIP3    H122753   2.739   4.983  16.028 -0.3460 -0.1911  2.5359
  446TIP3    H222754   2.863   5.069  16.009 -0.8155  0.0310  0.2208
  447TIP3   OH222755   3.226   0.642   0.593 -0.1124 -0.2003  0.2425
  447TIP3    H122756   3.219   0.571   0.529 -1.7722  1.1004 -1.1263
  447TIP3    H222757   3.164   0.619   0.662  1.1221 -1.2243  1.0655
  448TIP3   OH222758   5.294   2.209  13.769 -0.3585 -0.5640  0.3831
  448TIP3    H122759   5.389   2.209  13.779 -0.1435 -0.5416 -1.2801
  448TIP3    H222760   5.262   2.268  13.837  0.9087  0.1718  0.3683
  449TIP3   OH222761   0.434   1.161  14.382  0.0867  0.5872  0.4132
  449TIP3    H122762   0.385   1.156  14.300  1.7559  2.2562 -0.7745
  449TIP3    H222763   0.496   1.088  14.377  0.0344  0.5508  0.2824
  450TIP3   OH222764   6.209   6.658   5.066  0.1358 -0.2564  0.1350
  450TIP3    H122765   6.255   6.702   5.137 -1.4318  1.6154  0.0653
  450TIP3    H222766   6.269   6.589   5.038  2.0230  0.8227  1.3227
  451TIP3   OH222767   0.575   5.205   3.669 -0.5405  0.2424  0.0274
  451TIP3    H122768   0.565   5.250   3.586 -2.1898  1.6567  0.9392
  451TIP3    H222769   0.670   5.202   3.684 -0.3173  1.8348 -0.9131
  452TIP3   OH222770   6.525   6.757  13.492 -0.2049  0.1009 -0.0839
  452TIP3    H122771   6.564   6.692  13.434  1.2573 -0.3580  1.3371
  452TIP3    H222772   6.575   6.837  13.478 -0.7004  0.3655 -0.3815
  453TIP3   OH222773   2.161   6.037  10.991  0.8112  0.4700 -0.8111
  453TIP3    H122774   2.174   5.947  10.963  0.0318  0.3340 -0.7773
  453TIP3    H222775   2.071   6.039  11.025  1.7961  0.5263  2.0721
  454TIP3   OH222776   5.122   1.733  16.620  0.5222 -0.0758  0.3513
  454TIP3    H122777   5.156   1.756  16.707 -4.8580  0.5228  2.7343
  454TIP3    H222778   5.067   1.656  16.635  0.6370 -0.9830 -2.9857
  455TIP3   OH222779   4.161   5.968  12.769  0.5639 -0.1592 -0.3681
  455TIP3    H122780   4.129   6.044  12.818 -0.5325 -0.8844  0.0837
  455TIP3    H222781   4.123   5.978  12.682  1.0273  0.1838 -0.5360
  456TIP3   OH222782   1.599   1.191   4.664 -0.2598 -0.5861 -0.2209
  456TIP3    H122783   1.521   1.244   4.650 -1.2069 -1.5732  1.0680
  456TIP3    H222784   1.566   1.101   4.672  1.0298 -1.0508  0.1614
  457TIP3   OH222785   3.739   0.900   0.212 -0.2462 -0.2088  0.1660
  457TIP3    H122786   3.698   0.905   0.299 -0.6762 -2.0269  0.1050
  457TIP3    H222787   3.832   0.890   0.230 -0.0671  1.4976  0.3489
  458TIP3   OH222788   6.624   3.369  16.817 -0.1108  0.6590 -0.2524
  458TIP3    H122789   6.713   3.385  16.783  0.4327 -0.0762  0.7894
  458TIP3    H222790   6.575   3.446  16.790  1.4370  2.2232  1.1670
  459TIP3   OH222791   4.170   3.797   6.263 -0.3902  0.6719 -0.4723
  459TIP3    H122792   4.190   3.888   6.285 -1.7851  1.2124 -1.2919
  459TIP3    H222793   4.084   3.781   6.303  0.3966 -0.7271  0.7595
  460TIP3   OH222794   0.606   5.973   3.205 -0.3393 -0.5394 -0.4088
  460TIP3    H122795   0.592   6.062   3.237  3.3775  0.4593 -1.0929
  460TIP3    H222796   0.563   5.917   3.271 -1.3214  1.6578  0.9400
  461TIP3   OH222797   5.631   5.620  14.138 -0.0237 -0.6172  0.0075
  461TIP3    H122798   5.649   5.543  14.193  0.9188 -0.4675 -0.0784
  461TIP3    H222799   5.635   5.694  14.199 -1.5923 -0.6621  0.2213
  462TIP3   OH222800   5.090   5.895   6.497 -0.3242 -0.1795 -0.4256
  462TIP3    H122801   5.102   5.934   6.584  0.9032 -0.4656 -0.4475
  462TIP3    H222802   5.009   5.934   6.464 -2.0296 -1.7135  1.7092
  463TIP3   OH222803   3.667   6.335  11.437  0.5301  0.1711  0.0911
  463TIP3    H122804   3.626   6.343  11.351  0.9563 -1.7577 -0.3396
  463TIP3    H222805   3.761   6.347  11.420  0.7292 -1.2499  0.0833
  464TIP3   OH222806   3.997   2.612  14.683 -0.1988  0.2179  0.0292
  464TIP3    H122807   3.924   2.654  14.728 -0.3401  0.9322 -0.8301
  464TIP3    H222808   3.958   2.570  14.607  0.1860  0.0252 -0.0639
  465TIP3   OH222809   3.106   5.949   2.916 -0.1255  0.2937 -0.1117
  465TIP3    H122810   3.153   5.911   2.842  0.2007  0.3103  0.0795
  465TIP3    H222811   3.066   5.874   2.960  0.1731  0.2105  0.0280
  466TIP3   OH222812   0.733   4.331  13.263  0.2030 -0.2863  0.1167
  466TIP3    H122813   0.766   4.295  13.345 -0.0335 -1.0974 -0.1384
  466TIP3    H222814   0.642   4.301  13.257  0.2371 -0.2969 -0.4769
  467TIP3   OH222815   6.453   5.665  13.019  0.1710 -0.3938  0.5050
  467TIP3    H122816   6.502   5.737  12.979  1.3056 -1.2528  0.3277
  467TIP3    H222817   6.409   5.706  13.094  0.6711  0.5134  0.3183
  468TIP3   OH222818   2.332   6.352   3.316 -0.0233 -0.1520  0.0041
  468TIP3    H122819   2.293   6.285   3.260 -1.0167  1.3684 -1.2135
  468TIP3    H222820   2.337   6.430   3.260  2.2460  0.4839  0.9783
  469TIP3   OH222821   3.272   3.338  15.187  0.3848  0.4285 -0.0773
  469TIP3    H122822   3.226   3.407  15.235  0.4084 -0.3303  1.0779
  469TIP3    H222823   3.218   3.324  15.109  0.8327  2.3130 -0.7839
  470TIP3   OH222824   2.899   3.976   5.937  0.1248  0.0509 -0.1883
  470TIP3    H122825   2.931   4.066   5.942 -1.0627  0.4743  0.1176
  470TIP3    H222826   2.805   3.985   5.919 -0.1957 -1.1037  0.8114
  471TIP3   OH222827   0.983   2.907   2.538 -0.3060 -0.3307 -0.3864
  471TIP3    H122828   1.015   2.931   2.625 -2.1679 -1.2859  0.6331
  471TIP3    H222829   1.037   2.958   2.478 -1.3559  3.2594  1.4093
  472TIP3   OH222830   5.231   1.243  16.545 -0.5265  0.2466  0.2796
  472TIP3    H122831   5.205   1.268  16.634 -0.6816 -1.2018  0.6667
  472TIP3    H222832   5.326   1.232  16.550 -0.4247  0.9705  0.0453
  473TIP3   OH222833   4.314   5.743  13.202  0.7739  0.7412  0.0631
  473TIP3    H122834   4.233   5.705  13.168  1.3777 -0.0386 -0.5614
  473TIP3    H222835   4.372   5.667  13.216  1.9353  1.3757 -1.0019
  474TIP3   OH222836   5.930   0.842  13.551  0.4076 -0.2546 -0.0110
  474TIP3    H122837   6.026   0.843  13.542  0.6407  1.5203  1.9099
  474TIP3    H222838   5.912   0.912  13.614 -2.3101  0.7599 -1.7540
  475TIP3   OH222839   4.849   2.772  13.875 -0.0037 -0.8677 -0.6435
  475TIP3    H122840   4.868   2.698  13.932  0.3453 -0.9974 -0.9184
  475TIP3    H222841   4.792   2.735  13.807 -1.7301 -0.3615  0.4667
  476TIP3   OH222842   5.609   1.615   1.476 -0.5445 -0.1394 -0.1291
  476TIP3    H122843   5.630   1.587   1.565 -0.6363 -1.8633 -0.6070
  476TIP3    H222844   5.640   1.543   1.421 -3.1993 -0.5520 -1.2412
  477TIP3   OH222845   5.063   0.683   5.522 -0.0856  0.0550 -0.2258
  477TIP3    H122846   5.078   0.778   5.520  0.8437 -0.0836 -1.9592
  477TIP3    H222847   5.140   0.646   5.480 -0.1468 -1.5428  0.9959
  478TIP3   OH222848   2.694   5.658  14.557  0.3185 -0.3064 -0.2328
  478TIP3    H122849   2.613   5.632  14.515 -0.4503  1.2244  0.2480
  478TIP3    H222850   2.733   5.722  14.498  0.4534  0.0376  0.2252
  479TIP3   OH222851   2.182   4.671   0.847 -0.1904  0.3279 -0.3358
  479TIP3    H122852   2.246   4.630   0.788 -1.8270  0.3050 -2.2013
  479TIP3    H222853   2.228   4.747   0.884  0.5541  1.0971 -2.6655
  480TIP3   OH222854   0.441   3.134  17.142  0.4434 -0.0255 -0.7414
  480TIP3    H122855   0.530   3.153  17.172  0.0769  1.8427 -0.7544
  480TIP3    H222856   0.446   3.043  17.110  1.5802 -1.1185  2.1579
  481TIP3   OH222857   5.087   5.748  12.070  1.3372  0.2535 -0.3364
  481TIP3    H122858   5.129   5.662  12.068  0.2169 -0.3046 -0.9760
  481TIP3    H222859   5.037   5.752  11.988 -0.6118  0.4632  0.8005
  482TIP3   OH222860   5.824   4.244   3.319  0.1594 -0.2112  0.8295
  482TIP3    H122861   5.858   4.277   3.402 -0.6890 -0.8670  1.4654
  482TIP3    H222862   5.733   4.220   3.338  0.2789 -1.4386  0.0230
  483TIP3   OH222863   1.294   0.309  15.556  0.1241  0.0800 -0.6283
  483TIP3    H122864   1.348   0.371  15.507  0.0510 -0.4481 -1.4023
  483TIP3    H222865   1.354   0.240  15.582  0.1404  0.3081 -0.0536
  484TIP3   OH222866   6.138   4.031  10.809  0.6410 -0.3725  0.5308
  484TIP3    H122867   6.064   3.984  10.772  0.8468 -0.2560 -0.0553
  484TIP3    H222868   6.215   3.983  10.777  0.8326 -0.0388  0.4783
  485TIP3   OH222869   6.339   0.809  14.145 -0.2313  0.0498 -0.7130
  485TIP3    H122870   6.352   0.724  14.189 -1.3537 -0.1907 -0.8113
  485TIP3    H222871   6.357   0.791  14.053  1.0406  0.2951 -0.5298
  486TIP3   OH222872   0.161   5.288  14.469  0.2011  0.0574  0.0414
  486TIP3    H122873   0.138   5.286  14.376 -0.0536  0.6156  0.0856
  486TIP3    H222874   0.080   5.266  14.514 -0.1908  1.6896  0.1858
  487TIP3   OH222875   6.333   4.263   5.860 -0.2824 -0.5569 -0.2023
  487TIP3    H122876   6.379   4.186   5.892  1.8919  0.6115 -0.3579
  487TIP3    H222877   6.268   4.282   5.928  0.4834 -1.3723  0.7867
  488TIP3   OH222878   0.699   5.191  13.430 -0.3851 -0.4383  0.3053
  488TIP3    H122879   0.713   5.199  13.336 -1.3009  0.3295  0.2238
  488TIP3    H222880   0.783   5.160  13.464  0.9402  2.1214 -0.3821
  489TIP3   OH222881   1.442   6.775  12.767  0.0272 -0.2198  0.0448
  489TIP3    H122882   1.431   6.746  12.857  0.2507  0.8001  0.4152
  489TIP3    H222883   1.417   6.699  12.714  0.7336 -1.1295  0.9642
  490TIP3   OH222884   1.338   5.063   1.163  0.2346  0.7065 -0.2366
  490TIP3    H122885   1.361   4.974   1.188  0.4160  1.1861  1.4012
  490TIP3    H222886   1.421   5.111   1.166 -0.1247  1.3002  0.6325
  491TIP3   OH222887   2.756   5.818   0.063 -0.0817  0.1877 -0.0239
  491TIP3    H122888   2.729   5.896   0.014  0.5309  1.9649  2.2884
  491TIP3    H222889   2.822   5.850   0.124  1.2546 -2.4717  0.0528
  492TIP3   OH222890   4.129   2.182   2.442  0.3306 -0.0252  0.9509
  492TIP3    H122891   4.130   2.254   2.505 -0.4494  0.3461  0.5498
  492TIP3    H222892   4.098   2.222   2.361  0.9058 -0.5942  0.4481
  493TIP3   OH222893   5.866   4.668   0.621 -0.2746  0.2259  0.0111
  493TIP3    H122894   5.892   4.751   0.582  1.3411  0.0382  0.6156
  493TIP3    H222895   5.789   4.641   0.571 -1.5000  2.5811  0.4901
  494TIP3   OH222896   2.737   3.303   4.973  0.6329  0.2937 -0.0699
  494TIP3    H122897   2.687   3.301   4.891  0.6121 -0.0482 -0.0498
  494TIP3    H222898   2.729   3.393   5.003  1.1354  0.5811 -0.7524
  495TIP3   OH222899   6.434   0.503  15.539  0.0898  0.2851  0.3809
  495TIP3    H122900   6.362   0.449  15.508 -0.6835  2.2604 -1.5617
  495TIP3    H222901   6.431   0.494  15.634 -0.6163 -2.2176  0.1833
  496TIP3   OH222902   4.482   2.091   2.012  0.1809 -0.2537  0.3865
  496TIP3    H122903   4.538   2.076   1.936  0.2788  1.8312  0.0136
  496TIP3    H222904   4.539   2.080   2.087  1.2161  2.1125  0.0049
  497TIP3   OH222905   4.161   6.204  12.915  0.5896 -0.7088 -0.2002
  497TIP3    H122906   4.111   6.285  12.904 -1.5024 -2.0872 -1.3244
  497TIP3    H222907   4.243   6.221  12.869  0.5339  1.0172  0.2438
  498TIP3   OH222908   2.968   6.159  12.925 -1.0494  0.1257 -0.4836
  498TIP3    H122909   2.965   6.254  12.921  0.3809  0.2295  0.4185
  498TIP3    H222910   3.039   6.134  12.867 -0.5718 -0.2938  0.2586
  499TIP3   OH222911   1.720   2.746  11.093  0.2351 -0.0740  0.3339
  499TIP3    H122912   1.752   2.711  11.010 -0.2650 -0.6301  0.3723
  499TIP3    H222913   1.657   2.814  11.069  1.1887  0.8121  0.2593
  500TIP3   OH222914   0.485   3.392  16.580  0.4849 -0.3720  0.1574
  500TIP3    H122915   0.459   3.398  16.672  0.9720 -0.3396  0.2931
  500TIP3    H222916   0.577   3.365  16.583 -0.3033 -3.4000 -0.3524
  501TIP3   OH222917   3.444   0.708  16.095 -0.2815 -0.6781  0.1457
  501TIP3    H122918   3.483   0.743  16.175 -2.1796  0.3587  0.6772
  501TIP3    H222919   3.519   0.691  16.037  1.0460 -0.3641  1.6966
  502TIP3   OH222920   6.020   0.240   6.091  0.1096  0.0646  0.0276
  502TIP3    H122921   5.976   0.316   6.129  0.0520  0.4280 -0.7629
  502TIP3    H222922   5.949   0.181   6.066  0.1757 -1.0969  2.2896
  503TIP3   OH222923   0.198   0.944   5.628  0.0219  0.1475 -0.0736
  503TIP3    H122924   0.116   0.985   5.658 -0.1707  0.3755 -0.8883
  503TIP3    H222925   0.267   1.002   5.659 -0.2185  0.7826 -0.7128
  504TIP3   OH222926   0.453   1.304   6.407  0.4232  0.0488  0.2584
  504TIP3    H122927   0.445   1.395   6.436  0.0050  0.0455  0.1581
  504TIP3    H222928   0.387   1.257   6.457 -1.2252  0.2608 -1.5968
  505TIP3   OH222929   2.958   5.976   0.370 -0.3198 -0.3119  0.0216
  505TIP3    H122930   3.013   6.046   0.334 -0.3718 -0.7056 -0.8783
  505TIP3    H222931   2.994   5.896   0.331 -2.5997 -0.4463 -2.0758
  506TIP3   OH222932   6.065   2.258   5.777 -0.1508 -0.3141 -0.1520
  506TIP3    H122933   5.991   2.222   5.826 -0.2145  0.3516  0.2554
  506TIP3    H222934   6.076   2.347   5.811 -0.1270  0.1322 -1.2764
  507TIP3   OH222935   3.611   5.154  13.634  0.0558  0.4035  0.1475
  507TIP3    H122936   3.551   5.139  13.707  2.5772  1.2655  2.5596
  507TIP3    H222937   3.619   5.249  13.629  1.7650  0.3184  0.4662
  508TIP3   OH222938   4.926   0.065  11.489  0.0968 -0.4622 -0.1887
  508TIP3    H122939   5.015   0.042  11.462 -0.1740 -2.0376  0.1255
  508TIP3    H222940   4.934   0.153  11.525  1.1286  0.2640 -2.0399
  509TIP3   OH222941   0.745   2.301  14.632 -0.2270 -0.3011 -0.2034
  509TIP3    H122942   0.650   2.298  14.639 -0.2851 -0.3268 -0.9065
  509TIP3    H222943   0.775   2.320  14.721 -0.8807 -0.3864  0.0429
  510TIP3   OH222944   5.474   2.790  12.382  0.4267 -0.0360 -0.7083
  510TIP3    H122945   5.476   2.735  12.304 -1.8804  1.8584 -2.2356
  510TIP3    H222946   5.527   2.867  12.360 -1.2825  1.1220 -1.0081
  511TIP3   OH222947   2.048   1.480   5.967  0.6671  0.3892  0.5372
  511TIP3    H122948   2.070   1.406   6.024  1.0784  1.7738  2.2928
  511TIP3    H222949   1.970   1.451   5.919  0.9278 -1.2345  1.0205
  512TIP3   OH222950   2.723   0.390   5.943  0.6341 -0.6864  0.4006
  512TIP3    H122951   2.817   0.406   5.944  0.1970  2.5743  1.0837
  512TIP3    H222952   2.697   0.403   5.852  0.6582 -0.2723  0.4541
  513TIP3   OH222953   0.582   1.595   4.781  0.0506  0.5268 -0.2639
  513TIP3    H122954   0.548   1.520   4.830  0.4013  0.4423 -0.1468
  513TIP3    H222955   0.504   1.645   4.757 -0.1439  0.4549  0.1932
  514TIP3   OH222956   1.349   2.485   4.308 -0.4078 -0.2542  0.7963
  514TIP3    H122957   1.329   2.558   4.367 -0.9449 -0.3218  0.7093
  514TIP3    H222958   1.405   2.524   4.241 -1.2615  0.2612  0.3586
  515TIP3   OH222959   1.062   2.216   3.576  0.2590 -0.2585 -0.5019
  515TIP3    H122960   1.153   2.220   3.546  0.5451  0.1885  0.3669
  515TIP3    H222961   1.052   2.127   3.610  0.2907 -0.3946 -0.8494
  516TIP3   OH222962   0.394   1.725  11.666 -0.5902 -0.1579 -0.6521
  516TIP3    H122963   0.329   1.688  11.606 -0.2490 -0.1656 -1.0173
  516TIP3    H222964   0.372   1.688  11.751 -2.3109  1.3745 -0.3739
  517TIP3   OH222965   6.265   3.857  10.541 -0.0896  0.5624 -0.3088
  517TIP3    H122966   6.311   3.885  10.462  1.0960 -1.3541 -0.3893
  517TIP3    H222967   6.327   3.874  10.612 -1.4950  3.1246  0.4212
  518TIP3   OH222968   5.249   2.173  16.812 -0.8511 -0.2994  0.1987
  518TIP3    H122969   5.288   2.260  16.818  0.2422 -0.7900  0.4884
  518TIP3    H222970   5.314   2.121  16.764 -2.1523 -0.5901 -1.3061
  519TIP3   OH222971   2.734   1.440  16.046  0.5548 -0.0089  0.2943
  519TIP3    H122972   2.712   1.361  15.996  1.8774 -1.0914  1.3461
  519TIP3    H222973   2.820   1.422  16.083  0.2498  1.3354  1.7832
  520TIP3   OH222974   2.790   4.883  12.666  0.1122 -0.1245 -0.0037
  520TIP3    H122975   2.726   4.909  12.600 -1.1911 -0.1912  1.1877
  520TIP3    H222976   2.756   4.918  12.748  2.1816  0.7580  0.5219
  521TIP3   OH222977   2.771   4.012  11.663 -0.0023 -0.3461 -0.2873
  521TIP3    H122978   2.769   3.956  11.585  1.0477 -1.8122  0.6689
  521TIP3    H222979   2.693   3.987  11.713  0.8394 -1.5427  0.4829
  522TIP3   OH222980   6.312   2.797   0.616 -0.0781 -0.1845  0.1606
  522TIP3    H122981   6.281   2.865   0.556  1.5106  1.1059  0.7063
  522TIP3    H222982   6.254   2.805   0.692 -0.1183  0.3563  0.0827
  523TIP3   OH222983   1.971   1.661  16.293 -0.3443 -0.4733 -0.0483
  523TIP3    H122984   1.898   1.694  16.345 -1.0265 -1.6925 -0.1895
  523TIP3    H222985   1.942   1.574  16.263  1.1411 -0.9717 -0.1388
  524TIP3   OH222986   0.038   1.619  14.957  0.4546  0.7584 -0.1426
  524TIP3    H122987   0.089   1.539  14.942 -0.0585  0.3491  0.2348
  524TIP3    H222988   0.053   1.640  15.049 -0.0552  0.6312 -0.0277
  525TIP3   OH222989   1.727   3.765   2.773 -0.2593 -0.2822 -0.2617
  525TIP3    H122990   1.731   3.701   2.843  0.3355 -0.5539 -0.5323
  525TIP3    H222991   1.634   3.780   2.758 -0.3950 -0.0249  0.7579
  526TIP3   OH222992   4.041   2.628  11.767 -0.3634 -0.0946 -0.3658
  526TIP3    H122993   3.984   2.678  11.827 -0.3021 -1.4148  0.8653
  526TIP3    H222994   4.064   2.550  11.817  0.2080 -0.9572 -1.9265
  527TIP3   OH222995   2.504   2.768  13.508 -0.4760 -0.4516  0.2203
  527TIP3    H122996   2.568   2.778  13.437  0.2089  2.0214  1.0786
  527TIP3    H222997   2.428   2.817  13.479 -0.0787  0.8380  1.2592
  528TIP3   OH222998   1.740   0.005  12.538  0.0200  0.0573 -0.1358
  528TIP3    H122999   1.833   0.018  12.553  0.2204 -0.6644 -0.6757
  528TIP3    H223000   1.698   0.038  12.617  0.5736  2.2177 -0.6847
  529TIP3   OH223001   4.417   6.709   2.160  0.2294 -0.4979  0.4497
  529TIP3    H123002   4.512   6.700   2.165  0.4705  1.8055  1.3925
  529TIP3    H223003   4.403   6.772   2.089 -0.8307 -2.9322 -1.6300
  530TIP3   OH223004   6.636   5.547   3.183 -0.2256 -0.0205  0.1390
  530TIP3    H123005   6.704   5.480   3.189 -0.1910  0.1175  1.7431
  530TIP3    H223006   6.640   5.577   3.092  1.1555 -0.7300 -0.0671
  531TIP3   OH223007   0.939   5.220  16.590  0.2645  0.7943 -0.9692
  531TIP3    H123008   0.919   5.235  16.682  0.2828  0.9225 -0.9860
  531TIP3    H223009   1.024   5.177  16.590 -0.1327 -0.0258 -0.8726
  532TIP3   OH223010   1.997   6.147   2.102  0.3727  0.2267 -0.6370
  532TIP3    H123011   2.074   6.093   2.086 -0.6205 -1.1919 -0.8095
  532TIP3    H223012   1.938   6.125   2.030  0.1394  1.9544 -1.0014
  533TIP3   OH223013   3.663   1.948  14.577 -0.4785 -0.2213 -0.3100
  533TIP3    H123014   3.694   2.018  14.521  0.5619 -0.3010  0.1550
  533TIP3    H223015   3.600   1.990  14.636 -0.7978  0.0643 -0.8528
  534TIP3   OH223016   5.624   0.800   1.279 -0.2054  0.7073  0.3589
  534TIP3    H123017   5.664   0.829   1.197  1.1012 -1.0619  0.2872
  534TIP3    H223018   5.531   0.790   1.259 -0.2081  2.0296 -0.3691
  535TIP3   OH223019   5.919   6.056  14.382  0.2978 -0.1640 -0.1771
  535TIP3    H123020   5.864   5.979  14.394  0.9300 -0.5894  0.0358
  535TIP3    H223021   5.865   6.129  14.411  0.2592 -0.6986  1.1702
  536TIP3   OH223022   2.146   3.804   1.651 -0.1534  0.3166 -0.5811
  536TIP3    H123023   2.231   3.840   1.674 -1.1876  2.3442  0.3373
  536TIP3    H223024   2.098   3.878   1.612 -2.3118 -0.0324  1.1862
  537TIP3   OH223025   6.635   4.844   4.241  0.0894 -0.3326  0.7773
  537TIP3    H123026   6.622   4.850   4.336  0.7040 -0.9753  0.9027
  537TIP3    H223027   6.729   4.848   4.229  0.1360 -2.0551  0.3357
  538TIP3   OH223028   3.654   5.234  12.925 -0.5395 -0.1521 -0.6919
  538TIP3    H123029   3.685   5.172  12.990  0.0736  0.5774 -0.2715
  538TIP3    H223030   3.577   5.192  12.886 -1.4917 -0.1923  1.1530
  539TIP3   OH223031   5.842   2.797  14.035 -0.1589 -0.1834 -0.3688
  539TIP3    H123032   5.823   2.867  13.973 -0.7889 -2.5212 -3.0162
  539TIP3    H223033   5.759   2.750  14.044  0.9074 -2.3620 -1.1334
  540TIP3   OH223034   3.348   5.314   5.755  0.3767 -0.3129 -0.3298
  540TIP3    H123035   3.360   5.355   5.670  2.0231 -0.1786 -0.0573
  540TIP3    H223036   3.346   5.387   5.817 -4.5539 -0.0062 -0.4379
  541TIP3   OH223037   3.172   5.955   2.034 -0.8680 -0.0696  0.0701
  541TIP3    H123038   3.154   5.994   2.120 -1.2570  1.2526 -0.5814
  541TIP3    H223039   3.240   6.011   1.996 -0.7421 -0.6045 -0.5164
  542TIP3   OH223040   5.555   0.139  16.107 -0.0921 -0.1210 -0.0131
  542TIP3    H123041   5.527   0.212  16.051 -2.1514 -0.5420  0.3564
  542TIP3    H223042   5.535   0.061  16.055  1.8680 -0.4609 -0.3061
  543TIP3   OH223043   2.082   0.859   4.859  0.2312 -0.3864 -0.8241
  543TIP3    H123044   2.101   0.946   4.825  1.1353 -0.2267  0.0391
  543TIP3    H223045   2.159   0.807   4.835  1.3506 -0.0330  1.7361
  544TIP3   OH223046   3.405   1.327   1.677 -0.1864  0.0930  0.2218
  544TIP3    H123047   3.351   1.274   1.735  1.2416 -1.1680  0.4774
  544TIP3    H223048   3.407   1.413   1.719  1.1536 -0.8939  2.3781
  545TIP3   OH223049   5.789   6.077  14.779  0.1513 -0.1669 -0.4748
  545TIP3    H123050   5.706   6.034  14.754 -0.3820  0.6642 -0.1707
  545TIP3    H223051   5.819   6.119  14.699  0.6950 -1.1172 -0.7837
  546TIP3   OH223052   6.685   6.354   0.734 -0.3123 -0.5661 -0.4597
  546TIP3    H123053   6.711   6.339   0.643  1.1700 -0.0429 -0.1453
  546TIP3    H223054   6.640   6.439   0.733 -0.8098 -0.8286 -0.7842
  547TIP3   OH223055   6.373   0.001   5.265  0.5525 -0.1447 -0.0828
  547TIP3    H123056   6.449  -0.040   5.223  0.6899 -0.0514  0.0705
  547TIP3    H223057   6.372   0.090   5.232  1.4458  0.3377  1.0898
  548TIP3   OH223058   6.631   3.080   2.086 -0.0789 -0.0452 -0.0114
  548TIP3    H123059   6.624   2.986   2.103  0.1692  0.1543  1.3178
  548TIP3    H223060   6.550   3.117   2.122 -0.2134  0.2511 -0.6045
  549TIP3   OH223061   5.950   1.922   5.576 -0.3708  0.3444  0.7546
  549TIP3    H123062   5.873   1.954   5.529  0.3536  0.2257 -0.5601
  549TIP3    H223063   6.009   1.890   5.507  1.7109  2.2399  1.5384
  550TIP3   OH223064   6.051   2.652  14.582  0.5579  0.5316 -0.3781
  550TIP3    H123065   5.985   2.716  14.557 -0.4654 -0.2288  0.2942
  550TIP3    H223066   6.016   2.611  14.660  1.0438 -1.0708 -0.9693
  551TIP3   OH223067   4.060   5.146   6.142 -0.2424 -0.1472 -0.6624
  551TIP3    H123068   4.004   5.223   6.148  1.1205  0.8901 -0.8463
  551TIP3    H223069   4.007   5.081   6.097 -1.2927  0.7951 -0.8213
  552TIP3   OH223070   2.647   0.596  12.769 -0.1583 -0.0795 -0.5746
  552TIP3    H123071   2.732   0.552  12.774 -0.6977 -1.0787  0.6995
  552TIP3    H223072   2.651   0.663  12.837 -0.3225 -0.0444 -0.5994
  553TIP3   OH223073   5.014   4.967   0.164  0.0600  0.0054 -0.1923
  553TIP3    H123074   4.979   5.056   0.160 -0.0741 -0.0410 -0.0369
  553TIP3    H223075   5.021   4.948   0.258  1.3947  0.3666 -0.1925
  554TIP3   OH223076   4.048   5.873   1.085 -0.6992  0.1207 -0.0043
  554TIP3    H123077   3.980   5.894   1.149  0.1013 -0.8327  1.1982
  554TIP3    H223078   4.068   5.781   1.101  2.5417  0.9358  1.3359
  555TIP3   OH223079   1.023   5.545   1.836  0.3476 -0.6623 -0.3741
  555TIP3    H123080   0.954   5.611   1.838  0.3441 -0.6755  1.0745
  555TIP3    H223081   1.087   5.579   1.773  0.2299  0.6031  0.1529
  556TIP3   OH223082   5.763   6.197   1.530 -0.4766  0.2005 -0.3181
  556TIP3    H123083   5.789   6.133   1.464  1.2975 -1.3810  1.7445
  556TIP3    H223084   5.725   6.145   1.601 -2.4067  1.8406 -0.0748
  557TIP3   OH223085   4.161   6.351  12.022 -0.1312  0.8519  0.2127
  557TIP3    H123086   4.249   6.359  12.059  0.1692 -0.3219 -0.2186
  557TIP3    H223087   4.167   6.394  11.937 -0.1684  1.3740  0.4663
  558TIP3   OH223088   1.234   1.647  11.623  0.5031 -0.1125  0.1826
  558TIP3    H123089   1.224   1.680  11.533 -1.4816  0.4302  0.5509
  558TIP3    H223090   1.257   1.725  11.674  0.8199 -0.2632  0.2686
  559TIP3   OH223091   5.265   5.245  10.465 -0.0220 -0.4165  0.0703
  559TIP3    H123092   5.267   5.181  10.536  1.8147  0.4697  0.8714
  559TIP3    H223093   5.232   5.196  10.390  0.4152 -2.0539  0.8950
  560TIP3   OH223094   3.296   1.545   0.622 -0.0280 -0.0620  0.3079
  560TIP3    H123095   3.239   1.544   0.699 -0.3922  0.0800  0.0424
  560TIP3    H223096   3.295   1.455   0.590  0.5733 -0.2482  0.7928
  561TIP3   OH223097   5.774   1.747  13.859  0.2685  0.0050 -0.0203
  561TIP3    H123098   5.835   1.719  13.927  1.7328  0.6644 -0.9960
  561TIP3    H223099   5.808   1.707  13.778 -0.8004  0.1132 -0.5518
  562TIP3   OH223100   0.989   2.302  16.263  0.3231 -0.3368  0.0409
  562TIP3    H123101   0.950   2.285  16.349  0.2941 -2.5419 -0.3480
  562TIP3    H223102   1.075   2.260  16.267  0.5358 -0.0134 -0.8382
  563TIP3   OH223103   2.365   4.847   0.412  0.6530  0.1593  0.1875
  563TIP3    H123104   2.328   4.921   0.460  0.3400 -0.8906  1.5967
  563TIP3    H223105   2.460   4.863   0.414  0.6122  0.3392  0.7800
  564TIP3   OH223106   4.745   1.585   4.246 -0.6411  0.2826  0.0852
  564TIP3    H123107   4.753   1.564   4.339  0.1746 -0.9560 -0.2396
  564TIP3    H223108   4.811   1.653   4.231 -0.5261  0.2293  0.3348
  565TIP3   OH223109   0.690   0.127  13.664 -0.1776  0.6691  0.0791
  565TIP3    H123110   0.738   0.188  13.721 -0.1768  2.3763 -1.6522
  565TIP3    H223111   0.756   0.065  13.633 -0.1613 -0.2292  1.7888
  566TIP3   OH223112   1.733   0.665   1.847 -0.3912  0.1329 -0.6839
  566TIP3    H123113   1.723   0.650   1.941 -1.6124  1.4046 -0.5870
  566TIP3    H223114   1.805   0.607   1.821 -0.2682 -0.4926  0.9580
  567TIP3   OH223115   2.162   2.072   0.635 -0.3191 -0.0679  0.1071
  567TIP3    H123116   2.131   1.981   0.630  0.8688 -0.6407  1.9065
  567TIP3    H223117   2.166   2.101   0.544 -4.1669 -0.5462 -0.3783
  568TIP3   OH223118   5.397   0.050   1.419 -0.2292 -0.1061 -0.0240
  568TIP3    H123119   5.406  -0.046   1.422 -1.0151 -0.3103 -2.1792
  568TIP3    H223120   5.303   0.065   1.412 -0.0832  0.7922 -0.1816
  569TIP3   OH223121   6.211   4.607   0.687  0.3556  0.5185 -0.1526
  569TIP3    H123122   6.156   4.626   0.763  0.5044  1.4051 -0.2578
  569TIP3    H223123   6.300   4.623   0.718  0.5796 -0.9983  0.0465
  570TIP3   OH223124   5.025   4.799   1.123 -0.2725 -0.3250  0.3170
  570TIP3    H123125   5.063   4.842   1.046 -1.1235 -1.2982 -0.6804
  570TIP3    H223126   5.003   4.871   1.182 -2.3139  0.7543 -1.5944
  571TIP3   OH223127   6.628   0.400   3.747 -0.1556 -0.0931 -0.2578
  571TIP3    H123128   6.711   0.384   3.790 -0.9830 -0.9592  1.0797
  571TIP3    H223129   6.623   0.333   3.678 -0.3613 -0.9662  0.5858
  572TIP3   OH223130   0.557   5.136   1.640  0.6328 -0.5256 -0.1010
  572TIP3    H123131   0.543   5.229   1.627 -1.4030 -0.7868 -0.1385
  572TIP3    H223132   0.595   5.106   1.558 -0.4200 -0.0108 -0.8060
  573TIP3   OH223133   2.993   3.988   0.110  0.3032 -0.2541  0.2955
  573TIP3    H123134   2.948   3.994   0.026 -0.1857 -2.4499  0.3257
  573TIP3    H223135   3.002   3.894   0.125  3.3124  0.0664  1.1559
  574TIP3   OH223136   3.695   3.433   0.189 -0.2473  0.1931  0.2153
  574TIP3    H123137   3.615   3.452   0.239  0.3626 -0.9352  1.6902
  574TIP3    H223138   3.740   3.366   0.241  0.9365 -0.2719 -1.3473
  575TIP3   OH223139   6.544   3.592   2.171  0.5708 -0.3000 -0.4333
  575TIP3    H123140   6.455   3.628   2.162 -0.0491 -1.7789 -0.5354
  575TIP3    H223141   6.600   3.654   2.124 -0.8588 -1.0063 -3.2880
  576TIP3   OH223142   1.884   5.614  13.728 -0.0306  0.7111 -0.0826
  576TIP3    H123143   1.843   5.538  13.687 -0.7649  1.3494 -0.5396
  576TIP3    H223144   1.935   5.655  13.659  0.0508  0.8548  0.0616
  577TIP3   OH223145   5.067   0.953  13.403 -0.5093 -0.2771 -0.5499
  577TIP3    H123146   4.987   0.920  13.444  0.6210 -3.5365 -0.6698
  577TIP3    H223147   5.085   1.036  13.449 -3.2170 -0.0890  0.3328
  578TIP3   OH223148   4.418   4.101  14.657 -0.1521  0.2887  0.3314
  578TIP3    H123149   4.471   4.169  14.616  0.0162 -0.1102 -0.1179
  578TIP3    H223150   4.354   4.076  14.590 -0.8586  0.7153  0.8457
  579TIP3   OH223151   0.464   5.115   2.532 -0.0017  0.3207 -0.3746
  579TIP3    H123152   0.486   5.195   2.485 -2.1294  1.7779  0.9354
  579TIP3    H223153   0.507   5.124   2.617  2.0675 -1.3179 -1.1503
  580TIP3   OH223154   5.203   2.490  14.799  0.6322 -0.6081 -0.3168
  580TIP3    H123155   5.123   2.451  14.837 -0.0675  0.5330 -0.5844
  580TIP3    H223156   5.192   2.584  14.810  1.6074 -0.3925 -1.0421
  581TIP3   OH223157   4.601   3.867  14.404  0.9150 -0.2470 -0.4088
  581TIP3    H123158   4.597   3.776  14.375  1.1560 -0.1329 -0.8035
  581TIP3    H223159   4.515   3.883  14.444  0.4669 -0.3218 -1.3186
  582TIP3   OH223160   2.586   5.701   4.056 -0.6801  0.4802 -0.9204
  582TIP3    H123161   2.612   5.640   3.986  0.0286  0.3011 -0.5119
  582TIP3    H223162   2.493   5.683   4.069 -0.3698 -0.9472 -0.4103
  583TIP3   OH223163   3.005   2.622  16.950 -0.2202  0.3069 -0.0049
  583TIP3    H123164   2.985   2.715  16.955 -2.4206 -0.0331 -1.1859
  583TIP3    H223165   3.099   2.616  16.969 -0.1099  2.6985  0.4421
  584TIP3   OH223166   4.864   2.166  12.765 -0.4582  0.2215 -0.1407
  584TIP3    H123167   4.910   2.170  12.848  0.0980  0.2713 -0.4487
  584TIP3    H223168   4.932   2.148  12.700 -0.4993  2.4762 -0.8918
  585TIP3   OH223169   3.230   1.662   2.498 -0.1274 -0.8197  0.8631
  585TIP3    H123170   3.157   1.663   2.435  0.7469  0.4454 -0.1778
  585TIP3    H223171   3.260   1.571   2.499  1.1196 -0.5386 -2.1322
  586TIP3   OH223172   3.164   2.966   0.255 -0.0776 -0.0295 -1.0450
  586TIP3    H123173   3.209   2.882   0.267 -1.3280 -0.4491  1.4358
  586TIP3    H223174   3.235   3.030   0.250  0.8863 -1.1198 -2.4342
  587TIP3   OH223175   2.935   5.160   2.231  0.2575  0.2068  0.4257
  587TIP3    H123176   2.955   5.238   2.283  0.7345  1.5591 -1.6631
  587TIP3    H223177   3.007   5.100   2.249  0.9897  1.0866  0.4973
  588TIP3   OH223178   5.307   4.305   3.011  0.0336  0.6613  0.3074
  588TIP3    H123179   5.375   4.369   2.987  0.8693  0.3845  1.7971
  588TIP3    H223180   5.240   4.315   2.943  2.7459 -0.9842 -2.8896
  589TIP3   OH223181   6.067   0.371   3.896 -0.0340  0.3054  0.6644
  589TIP3    H123182   6.080   0.461   3.926  1.5910 -0.3849  2.2091
  589TIP3    H223183   6.146   0.352   3.845  0.4033 -0.7185  1.6790
  590TIP3   OH223184   1.407   2.467   6.377 -0.2244 -0.1352 -0.6640
  590TIP3    H123185   1.406   2.544   6.434 -0.9756 -0.2716 -0.4762
  590TIP3    H223186   1.499   2.443   6.370  0.0166  0.7953 -0.7475
  591TIP3   OH223187   2.072   3.249   5.341  1.2995 -0.1553  0.2017
  591TIP3    H123188   2.103   3.244   5.431  2.4608 -1.3614 -0.2396
  591TIP3    H223189   2.057   3.158   5.315  1.5590  0.1289 -1.0123
  592TIP3   OH223190   4.909   6.460  14.992 -0.3520  0.4129 -0.0380
  592TIP3    H123191   4.888   6.459  15.085  1.5948 -1.7475  0.4642
  592TIP3    H223192   4.905   6.553  14.968  0.7058  1.2437  2.6153
  593TIP3   OH223193   0.684   3.662  11.216  0.1411  0.5853  0.5269
  593TIP3    H123194   0.646   3.730  11.160 -2.3120 -1.7693 -0.8658
  593TIP3    H223195   0.630   3.663  11.295 -0.0216  0.1461  0.4232
  594TIP3   OH223196   4.245   5.146  10.690 -0.3159  0.4927 -0.0785
  594TIP3    H123197   4.259   5.055  10.719  1.5978  0.7982  0.0816
  594TIP3    H223198   4.162   5.143  10.643 -0.1010 -1.4365 -0.4374
  595TIP3   OH223199   0.159   0.164   2.214 -0.0671  0.2150  0.0680
  595TIP3    H123200   0.156   0.161   2.310 -0.2872  1.9023  0.1358
  595TIP3    H223201   0.211   0.088   2.190 -0.1272 -0.3249  1.5180
  596TIP3   OH223202   1.424   0.661   2.912  0.1587 -0.3996 -0.5246
  596TIP3    H123203   1.382   0.697   2.989  0.1214 -0.3790 -0.5547
  596TIP3    H223204   1.518   0.671   2.929  0.1352  0.6626 -0.9798
  597TIP3   OH223205   5.350   4.735  12.188 -0.7473 -0.1607 -0.3597
  597TIP3    H123206   5.396   4.819  12.182 -1.4301  0.2447 -0.0626
  597TIP3    H223207   5.258   4.757  12.173 -1.2746 -0.4646  1.9563
  598TIP3   OH223208   5.705   4.659   3.667 -0.2211 -0.1391  0.1703
  598TIP3    H123209   5.780   4.624   3.716 -0.4815 -1.6068 -0.4219
  598TIP3    H223210   5.647   4.695   3.734  0.5834  0.1539  0.7178
  599TIP3   OH223211   3.346   3.100  11.579  0.4986 -0.3079  0.1721
  599TIP3    H123212   3.425   3.064  11.620  0.4554 -1.0429 -0.3712
  599TIP3    H223213   3.374   3.125  11.491 -0.2081 -2.0298 -0.5911
  600TIP3   OH223214   0.292   4.387   5.285 -0.3233 -0.4069  0.4751
  600TIP3    H123215   0.323   4.397   5.375  1.6412  0.4218 -0.2376
  600TIP3    H223216   0.328   4.462   5.238 -0.4618 -1.3387 -1.2095
  601TIP3   OH223217   6.294   6.562  15.574 -0.0113  0.0328 -0.3776
  601TIP3    H123218   6.302   6.657  15.564 -0.1037  0.0478 -0.3175
  601TIP3    H223219   6.200   6.547  15.583  0.0392 -0.0182  0.0654
  602TIP3   OH223220   2.945   3.861  14.201 -0.1765  0.4508 -0.0776
  602TIP3    H123221   2.908   3.871  14.289 -3.2149 -2.9125 -0.6931
  602TIP3    H223222   2.994   3.779  14.205 -1.9708 -0.8181 -1.8188
  603TIP3   OH223223   2.731   1.562   5.430  0.5675  0.2366 -0.0683
  603TIP3    H123224   2.661   1.597   5.485 -0.6788  0.1411 -1.5062
  603TIP3    H223225   2.812   1.592   5.471 -0.3660  2.7612  0.1095
  604TIP3   OH223226   6.091   4.390  11.598 -0.0551 -0.0021 -0.0216
  604TIP3    H123227   6.131   4.360  11.680  1.0724 -0.3309 -0.6692
  604TIP3    H223228   6.041   4.315  11.566 -1.0741  0.3483  0.6959
  605TIP3   OH223229   0.656   3.289  12.466  0.2092 -0.5643  0.1458
  605TIP3    H123230   0.587   3.292  12.400  0.2505 -2.8841 -0.0994
  605TIP3    H223231   0.649   3.372  12.513 -0.9574  0.4000 -1.6305
  606TIP3   OH223232   0.084   1.318   4.330  0.5804  0.0112  0.5228
  606TIP3    H123233   0.028   1.393   4.349 -1.7186 -1.3907 -0.4372
  606TIP3    H223234   0.031   1.242   4.350  2.9942 -1.4652  1.8722
  607TIP3   OH223235   3.488   1.373   0.900 -0.4990 -0.4777  0.2793
  607TIP3    H123236   3.510   1.280   0.903  0.4828 -0.3610 -1.5900
  607TIP3    H223237   3.570   1.418   0.922 -0.5422 -0.0686 -0.3504
  608TIP3   OH223238   1.182   0.240  15.959 -0.5536 -0.4631  0.4018
  608TIP3    H123239   1.191   0.246  15.863  1.0049  1.2713  0.5947
  608TIP3    H223240   1.088   0.247  15.974 -0.8960 -1.4047 -1.0103
  609TIP3   OH223241   1.432   2.153   6.712  0.0956 -0.0775  0.1460
  609TIP3    H123242   1.510   2.205   6.691 -0.3014  0.1294 -0.8453
  609TIP3    H223243   1.441   2.074   6.659  1.6006 -1.9535  2.9365
  610TIP3   OH223244   2.649   6.102   3.141 -0.1341  0.0549  0.4703
  610TIP3    H123245   2.641   6.194   3.113  0.2639 -0.4504 -1.4329
  610TIP3    H223246   2.743   6.084   3.135 -0.2493 -0.5763  0.5027
  611TIP3   OH223247   5.599   2.763   2.264  0.5989  0.0235 -0.1233
  611TIP3    H123248   5.530   2.703   2.291 -0.4172  1.8678  1.6627
  611TIP3    H223249   5.674   2.739   2.318 -0.4369  1.5565  2.1751
  612TIP3   OH223250   1.509   6.493  14.566 -0.3377  0.1023  0.2431
  612TIP3    H123251   1.583   6.509  14.625  0.2566 -0.1526 -0.4236
  612TIP3    H223252   1.432   6.504  14.622  0.1651  1.2370  0.7531
  613TIP3   OH223253   5.162   4.411   6.540 -0.0884  0.0954  0.2128
  613TIP3    H123254   5.122   4.335   6.582 -0.5002 -0.2157 -0.7102
  613TIP3    H223255   5.223   4.373   6.476 -2.1242  0.4111 -2.0873
  614TIP3   OH223256   4.048   0.943  13.754  0.0451 -0.1033  0.3029
  614TIP3    H123257   3.988   0.870  13.742 -1.4073  0.9576  0.7223
  614TIP3    H223258   4.130   0.914  13.715 -0.3579 -2.0862  0.8096
  615TIP3   OH223259   2.931   5.443   1.279  0.0143 -0.0913  0.0738
  615TIP3    H123260   2.957   5.407   1.194 -0.6522 -1.7503  0.5230
  615TIP3    H223261   2.881   5.522   1.257 -1.5811 -1.3688 -1.2152
  616TIP3   OH223262   4.042   3.448  15.065  0.0656 -0.5021  0.2248
  616TIP3    H123263   4.012   3.483  15.149 -0.6297  0.3182 -0.3526
  616TIP3    H223264   4.043   3.353  15.078  1.6659 -0.3338  1.7110
  617TIP3   OH223265   3.792   0.296   0.145  0.4739 -0.0893 -0.0200
  617TIP3    H123266   3.785   0.241   0.223  0.6645  0.5168  0.4334
  617TIP3    H223267   3.749   0.378   0.169  0.7093  0.1764 -0.4839
  618TIP3   OH223268   4.993   4.136   6.306 -0.0102 -0.3227 -0.2618
  618TIP3    H123269   4.920   4.118   6.364  0.8006 -0.2039  0.8310
  618TIP3    H223270   5.007   4.054   6.259  0.3807 -0.9867  0.9501
  619TIP3   OH223271   1.822   6.495   3.763  0.3238 -0.2178 -0.1789
  619TIP3    H123272   1.754   6.435   3.730  2.0660 -1.5265 -1.5956
  619TIP3    H223273   1.868   6.444   3.829  0.2231  0.5285  0.4867
  620TIP3   OH223274   2.325   6.584  11.102 -0.2752 -0.2643  0.0158
  620TIP3    H123275   2.315   6.490  11.116 -0.6104 -0.3076 -0.4911
  620TIP3    H223276   2.267   6.604  11.029  0.3639  0.1997 -0.3786
  621TIP3   OH223277   3.447   4.217   0.517  0.1071 -0.5755  0.1110
  621TIP3    H123278   3.420   4.264   0.439  1.2132 -0.6187 -0.3136
  621TIP3    H223279   3.413   4.268   0.590 -1.2347 -0.7259 -0.3969
  622TIP3   OH223280   0.182   1.727   0.057 -0.3091  0.0820 -0.7960
  622TIP3    H123281   0.215   1.755   0.142 -0.0360  0.8718 -1.1565
  622TIP3    H223282   0.104   1.781   0.043  0.9151  1.5922 -2.0558
  623TIP3   OH223283   4.761   4.444  11.834 -0.1798  0.5683  0.3689
  623TIP3    H123284   4.727   4.529  11.806  2.3027  1.3747 -0.3865
  623TIP3    H223285   4.736   4.438  11.927 -3.0765  0.6376 -0.2898
  624TIP3   OH223286   1.950   1.562   1.640  0.0882 -0.3255  0.3825
  624TIP3    H123287   2.005   1.488   1.616 -1.7539 -0.8464 -2.7763
  624TIP3    H223288   1.887   1.525   1.703  1.0500 -0.6091  1.2077
  625TIP3   OH223289   1.335   2.158   3.616  0.4295 -0.4546  0.4736
  625TIP3    H123290   1.328   2.186   3.708 -0.8548 -1.5831  0.7498
  625TIP3    H223291   1.369   2.068   3.621  0.2249 -0.5711 -0.1481
  626TIP3   OH223292   1.432   3.717  16.149 -0.0423  0.1449  0.5006
  626TIP3    H123293   1.366   3.774  16.110 -1.8103 -0.8471  1.8773
  626TIP3    H223294   1.445   3.751  16.238  1.2365  0.2508  0.2929
  627TIP3   OH223295   3.802   3.769   1.434  0.2579 -0.6368 -0.1849
  627TIP3    H123296   3.878   3.805   1.388 -0.4887 -0.1391 -1.0561
  627TIP3    H223297   3.787   3.830   1.507 -0.2966  0.1934 -0.9784
  628TIP3   OH223298   5.396   2.566   2.719  0.0885 -0.1740  0.1056
  628TIP3    H123299   5.383   2.657   2.745  2.0312  0.3345 -0.4951
  628TIP3    H223300   5.337   2.515   2.775 -1.1504  1.4508  0.3351
  629TIP3   OH223301   1.984   2.008  15.560  0.0725  0.0660 -0.4085
  629TIP3    H123302   2.013   2.004  15.651  0.9122 -1.1334 -0.7056
  629TIP3    H223303   2.058   1.973  15.510  0.8990  3.4705 -1.8789
  630TIP3   OH223304   0.057   5.716   0.513 -0.4315  0.4322  0.2429
  630TIP3    H123305   0.115   5.715   0.589  1.5234  2.3679 -1.1075
  630TIP3    H223306   0.081   5.636   0.465 -2.1900 -1.1981  1.8974
  631TIP3   OH223307   2.864   3.811   0.497 -0.2809  0.0607 -0.1684
  631TIP3    H123308   2.798   3.881   0.499 -0.8617 -0.4740  1.7859
  631TIP3    H223309   2.922   3.832   0.570 -0.4463 -1.4456  0.4266
  632TIP3   OH223310   6.444   4.484   5.751  0.8517  0.4135  0.0300
  632TIP3    H123311   6.402   4.403   5.780  1.5205  0.0033 -0.1314
  632TIP3    H223312   6.537   4.472   5.770  0.7502  1.9497  1.8846
  633TIP3   OH223313   0.608   2.233  14.132 -0.7417 -0.0964 -0.2001
  633TIP3    H123314   0.542   2.190  14.078 -0.5572 -1.5208  0.6465
  633TIP3    H223315   0.571   2.233  14.221  0.0752 -0.2651  0.1551
  634TIP3   OH223316   2.561   2.883   2.861 -0.2692  0.6384 -0.4720
  634TIP3    H123317   2.639   2.861   2.914  0.3345  0.5679 -1.3700
  634TIP3    H223318   2.595   2.934   2.788 -1.2596  1.7949 -0.1593
  635TIP3   OH223319   3.589   4.229   5.471  0.3450 -0.5143 -0.4461
  635TIP3    H123320   3.496   4.243   5.453  0.0361  1.7278  2.1767
  635TIP3    H223321   3.598   4.135   5.481 -1.2912 -0.9123 -2.2682
  636TIP3   OH223322   4.167   2.257  15.185 -0.1196  0.7408 -0.0399
  636TIP3    H123323   4.239   2.202  15.216 -0.0548  0.8684  0.0386
  636TIP3    H223324   4.090   2.226  15.233  0.1682  1.5969  1.0163
  637TIP3   OH223325   2.912   3.601  13.270 -0.0672 -0.2648 -0.0522
  637TIP3    H123326   2.900   3.513  13.304  1.0760 -0.3489  0.1732
  637TIP3    H223327   2.827   3.624  13.232 -0.3364 -1.5099 -0.2410
  638TIP3   OH223328   2.884   3.284  15.165 -0.3645 -0.3628 -0.6284
  638TIP3    H123329   2.843   3.277  15.079 -0.4254  2.0926 -0.8719
  638TIP3    H223330   2.967   3.328  15.149 -1.3132  2.1127  0.7120
  639TIP3   OH223331   3.405   5.070  13.953  0.3015  0.1204 -0.0899
  639TIP3    H123332   3.416   5.007  13.882  0.0777 -0.5950  0.5067
  639TIP3    H223333   3.311   5.071  13.970  0.3876  0.0624  0.4013
  640TIP3   OH223334   5.928   4.499   3.122 -0.2043  0.1479  0.2883
  640TIP3    H123335   5.896   4.417   3.159  1.5178 -1.5628 -1.7177
  640TIP3    H223336   6.007   4.474   3.073  0.8364  3.1428  0.2063
  641TIP3   OH223337   4.429   2.965  12.480 -0.3182 -0.1112  0.3242
  641TIP3    H123338   4.400   3.035  12.421 -1.7515 -0.6026  0.4043
  641TIP3    H223339   4.470   3.011  12.553  0.0362  0.5756 -0.2965
  642TIP3   OH223340   3.518   5.458   6.049  0.7354  0.0997 -0.0284
  642TIP3    H123341   3.584   5.467   6.117  0.8878  0.5344 -0.2274
  642TIP3    H223342   3.445   5.414   6.092  0.6955  0.6792  0.5072
  643TIP3   OH223343   5.025   3.502   0.740 -0.0413  0.7588 -0.3540
  643TIP3    H123344   5.072   3.421   0.759 -0.6324  0.0807 -1.6442
  643TIP3    H223345   5.083   3.571   0.770  0.9247 -0.1185 -0.1551
  644TIP3   OH223346   0.936   4.625  13.375 -0.2797  0.3159  0.5856
  644TIP3    H123347   0.945   4.535  13.408  0.1308  0.8924  2.1423
  644TIP3    H223348   0.851   4.626  13.330 -0.1609 -0.9073  0.3051
  645TIP3   OH223349   5.703   1.567  11.923  0.1709  0.2089 -0.2001
  645TIP3    H123350   5.701   1.560  12.018  1.1417  1.0587 -0.0902
  645TIP3    H223351   5.667   1.654  11.904 -1.6608 -0.6162 -0.7528
  646TIP3   OH223352   6.275   3.971  15.071  0.4111  0.1424 -0.2515
  646TIP3    H123353   6.305   4.048  15.119  0.5294  1.1125 -1.7995
  646TIP3    H223354   6.236   4.007  14.991  0.3979 -1.4128 -0.9745
  647TIP3   OH223355   4.340   3.509  12.880  0.6649  0.0859  0.3208
  647TIP3    H123356   4.338   3.583  12.940 -0.0723  2.3699 -2.3452
  647TIP3    H223357   4.251   3.474  12.882  0.9333 -0.6000  1.3407
  648TIP3   OH223358   1.819   2.055  10.563  0.0761  0.3484  0.2264
  648TIP3    H123359   1.735   2.009  10.568 -0.3047  1.0354  0.4545
  648TIP3    H223360   1.884   1.991  10.592 -0.0832 -0.8439 -1.9047
  649TIP3   OH223361   4.835   5.933  13.466  0.1316 -0.1205  0.1979
  649TIP3    H123362   4.842   6.013  13.518 -1.1333  0.3492 -0.3269
  649TIP3    H223363   4.894   5.872  13.509 -0.5451  0.3884  1.9519
  650TIP3   OH223364   3.081   1.721   5.913 -0.1072 -0.1465 -0.1804
  650TIP3    H123365   3.046   1.750   5.829 -0.0132  1.2593  0.2463
  650TIP3    H223366   3.176   1.717   5.900 -0.1287 -0.4037 -0.2718
  651TIP3   OH223367   5.626   5.241   2.323 -0.4283  0.0197 -0.2804
  651TIP3    H123368   5.539   5.210   2.347 -0.8333 -0.5053 -2.3069
  651TIP3    H223369   5.624   5.334   2.344 -1.4963  0.0244 -0.3338
  652TIP3   OH223370   0.190   3.619   5.486  0.7258  0.2073 -0.6677
  652TIP3    H123371   0.116   3.630   5.546  1.4275 -0.9001  0.4600
  652TIP3    H223372   0.153   3.578   5.408 -0.4628  2.9503 -1.6594
  653TIP3   OH223373   3.154   1.969   1.754  0.0420 -0.1373  0.9697
  653TIP3    H123374   3.187   2.036   1.693 -0.9437 -0.5634 -0.0722
  653TIP3    H223375   3.228   1.908   1.764 -0.1984 -0.8544 -1.0038
  654TIP3   OH223376   3.151   1.737   4.312  0.4214 -0.2650 -0.2351
  654TIP3    H123377   3.244   1.735   4.288  0.6561  0.0185  0.6473
  654TIP3    H223378   3.125   1.644   4.314  0.6252 -0.3357 -0.6824
  655TIP3   OH223379   4.128   4.084  16.765  0.3073  0.1396  0.3378
  655TIP3    H123380   4.161   4.126  16.685  2.2544 -1.1679  0.3730
  655TIP3    H223381   4.126   3.990  16.743  0.6839 -0.2169  1.7417
  656TIP3   OH223382   5.323   4.487  12.059  0.2680  0.2382 -0.0232
  656TIP3    H123383   5.369   4.570  12.076 -0.0954  0.4586 -0.1112
  656TIP3    H223384   5.257   4.509  11.993 -0.3984  0.0714  0.5747
  657TIP3   OH223385   0.506   6.501   5.056  0.7738  0.2351 -0.2180
  657TIP3    H123386   0.418   6.538   5.045 -0.5030 -2.5026 -0.0783
  657TIP3    H223387   0.533   6.530   5.143  0.1296  1.2904 -0.3493
  658TIP3   OH223388   0.340   4.039   6.211 -0.2771 -0.3858 -0.0603
  658TIP3    H123389   0.285   4.030   6.133 -1.5557 -0.6286  0.8490
  658TIP3    H223390   0.362   3.950   6.237 -0.3459 -0.3268  0.2043
  659TIP3   OH223391   3.220   5.520   5.867 -0.0775  0.0086 -0.3217
  659TIP3    H123392   3.174   5.556   5.943 -1.8702 -0.6162 -1.0353
  659TIP3    H223393   3.182   5.566   5.792  0.0668 -0.8970 -0.9755
  660TIP3   OH223394   5.236   0.287   1.229 -0.7323  0.1632  0.2836
  660TIP3    H123395   5.195   0.203   1.248 -0.6893  0.1166  0.1772
  660TIP3    H223396   5.188   0.350   1.281 -0.8488  0.0895  0.2658
  661TIP3   OH223397   5.402   0.087   6.193  0.3003  0.0133  0.3243
  661TIP3    H123398   5.369  -0.000   6.215 -2.0021  0.7003 -0.2157
  661TIP3    H223399   5.375   0.102   6.103  1.8337  0.7978 -0.0459
  662TIP3   OH223400   3.575   1.111   1.687 -0.1954  0.4788  0.3429
  662TIP3    H123401   3.523   1.190   1.681 -3.4240 -1.4868 -0.1455
  662TIP3    H223402   3.582   1.079   1.597 -0.4592 -0.6453  0.6940
  663TIP3   OH223403   1.029   4.206  11.987 -0.0955 -0.0841 -1.1954
  663TIP3    H123404   1.012   4.120  12.025 -0.4347  0.4151 -0.1894
  663TIP3    H223405   0.944   4.235  11.953  0.1666 -0.4466 -2.1859
  664TIP3   OH223406   1.072   6.722  15.692  0.1050 -0.2546 -1.0532
  664TIP3    H123407   1.061   6.634  15.655  0.8279 -0.6220 -0.4239
  664TIP3    H223408   1.022   6.719  15.774  0.8940 -0.3971 -0.5624
  665TIP3   OH223409   1.346   4.701   3.428  0.4838 -0.4557 -0.4387
  665TIP3    H123410   1.282   4.742   3.370 -0.7225 -0.7174  0.6598
  665TIP3    H223411   1.395   4.642   3.371  0.3058  0.3417 -1.4607
  666TIP3   OH223412   2.612   5.432  15.780  0.2545  0.4407 -0.7479
  666TIP3    H123413   2.702   5.462  15.795  0.9979 -2.1197  0.5000
  666TIP3    H223414   2.620   5.367  15.710 -0.4392 -0.4760 -0.0051
  667TIP3   OH223415   6.313   4.949   1.029 -0.3020 -0.2836  0.1220
  667TIP3    H123416   6.235   4.980   0.984 -0.8741 -1.3045  0.3833
  667TIP3    H223417   6.339   5.022   1.085 -0.9355  0.1419 -0.1307
  668TIP3   OH223418   6.061   0.526  14.115 -0.4287  0.8334  0.1336
  668TIP3    H123419   6.108   0.443  14.108  0.0602  1.0633  0.5967
  668TIP3    H223420   5.980   0.504  14.161 -0.7944  0.4357 -0.6714
  669TIP3   OH223421   2.651   4.713   4.599  0.1885 -0.2932 -0.4415
  669TIP3    H123422   2.736   4.670   4.611  0.1333 -0.0278  1.0266
  669TIP3    H223423   2.587   4.645   4.622 -0.0049 -0.3597 -1.1365
  670TIP3   OH223424   1.695   5.417   3.369 -0.1869 -0.4404  0.5080
  670TIP3    H123425   1.606   5.404   3.402 -0.4916 -0.0650 -0.1372
  670TIP3    H223426   1.686   5.412   3.274  0.1916  1.1875  0.3575
  671TIP3   OH223427   3.516   4.426   3.087 -0.3177 -0.0152  0.0220
  671TIP3    H123428   3.467   4.381   3.156  2.2454 -0.9502  1.3977
  671TIP3    H223429   3.463   4.415   3.008 -2.1107 -1.2290  1.3226
  672TIP3   OH223430   1.326   6.311  14.831 -0.0871  0.4036 -0.0430
  672TIP3    H123431   1.409   6.357  14.846  1.4253 -1.7002 -1.3204
  672TIP3    H223432   1.321   6.247  14.902  2.1611 -2.9497 -2.5395
  673TIP3   OH223433   6.148   0.934   4.649 -0.5743 -0.3196  0.6062
  673TIP3    H123434   6.081   0.876   4.614 -0.0388 -2.2445  2.5437
  673TIP3    H223435   6.104   0.985   4.717 -0.8158  0.9173 -0.4380
  674TIP3   OH223436   4.402   5.103  16.059  0.2289 -0.1809  0.0841
  674TIP3    H123437   4.410   5.155  16.139  0.9153  1.3141 -0.9250
  674TIP3    H223438   4.489   5.107  16.019  0.6431 -3.0594  0.5053
  675TIP3   OH223439   3.676   4.491   2.044 -0.3767  0.5623  0.8427
  675TIP3    H123440   3.745   4.428   2.024  0.8342  2.6621 -2.4657
  675TIP3    H223441   3.722   4.574   2.055 -2.2373  1.7469  0.1420
  676TIP3   OH223442   5.190   0.324  12.483  0.0678  0.5968 -0.7031
  676TIP3    H123443   5.180   0.230  12.466 -0.8268  0.4138  0.7244
  676TIP3    H223444   5.261   0.330  12.546 -1.0707  0.7098  0.6034
  677TIP3   OH223445   3.880   4.337  16.143 -0.3036 -0.2184  0.3540
  677TIP3    H123446   3.833   4.265  16.186  0.4876 -2.2057 -1.8849
  677TIP3    H223447   3.868   4.321  16.050 -0.5884  2.9753 -0.2885
  678TIP3   OH223448   1.593   3.635  11.184 -0.6140 -1.1044  0.5825
  678TIP3    H123449   1.609   3.695  11.111 -2.8785 -2.5855 -1.2758
  678TIP3    H223450   1.661   3.568  11.175 -0.4594 -0.9080  0.2785
  679TIP3   OH223451   5.560   1.756  16.570  0.3394  0.2121  0.0545
  679TIP3    H123452   5.568   1.769  16.476 -0.8349  0.6880 -0.0019
  679TIP3    H223453   5.632   1.806  16.608  1.0603 -0.3061 -0.5972
  680TIP3   OH223454   3.386   3.232   2.209  0.4604  0.2976  0.0419
  680TIP3    H123455   3.421   3.242   2.121 -0.3269  3.4558 -0.0140
  680TIP3    H223456   3.399   3.317   2.250  1.1834 -1.1824  3.1871
  681TIP3   OH223457   2.004   4.502   0.948  0.1003 -0.2537  0.0122
  681TIP3    H123458   2.077   4.548   0.906  1.0248 -1.6795  0.0230
  681TIP3    H223459   1.932   4.566   0.947  1.4366  1.3279  0.3589
  682TIP3   OH223460   6.309   0.046  12.921 -0.8305 -0.4712  0.1012
  682TIP3    H123461   6.328   0.140  12.929 -0.7601 -0.4538 -0.2599
  682TIP3    H223462   6.223   0.036  12.962 -0.3550 -0.4385  1.1469
  683TIP3   OH223463   4.898   0.611   5.708  0.1783 -0.0663  0.8986
  683TIP3    H123464   4.906   0.705   5.724  0.2103  0.1683 -0.3896
  683TIP3    H223465   4.962   0.592   5.640  0.0045 -0.9801  0.9756
  684TIP3   OH223466   2.103   2.534  15.272 -0.0462  0.4169 -0.0523
  684TIP3    H123467   2.015   2.548  15.237  0.4479 -0.8003 -1.9307
  684TIP3    H223468   2.160   2.588  15.217  0.6648 -0.9353 -0.6945
  685TIP3   OH223469   1.808   5.886  13.139 -0.4059 -0.0343  0.3220
  685TIP3    H123470   1.798   5.848  13.226 -0.0510  0.5627  0.6298
  685TIP3    H223471   1.724   5.931  13.123 -0.4864 -0.1798  0.3388
  686TIP3   OH223472   5.897   0.456   4.756 -0.1863 -0.1013  0.4842
  686TIP3    H123473   5.865   0.418   4.838  0.8476  0.3557  1.1345
  686TIP3    H223474   5.958   0.524   4.784  0.7545 -0.4251 -0.6647
  687TIP3   OH223475   4.944   3.309  15.711 -0.1972  0.1128 -0.5887
  687TIP3    H123476   4.946   3.247  15.783 -0.0679 -0.1412 -0.8063
  687TIP3    H223477   4.914   3.258  15.636  0.6942  0.1073 -0.9555
  688TIP3   OH223478   4.406   4.788  12.503 -0.3030 -0.5108  0.1911
  688TIP3    H123479   4.482   4.843  12.521 -1.1537  1.0014 -0.6552
  688TIP3    H223480   4.440   4.719  12.447  0.0804  1.4419 -2.1368
  689TIP3   OH223481   5.868   6.401   3.145  0.5807  0.1627 -0.1806
  689TIP3    H123482   5.848   6.495   3.138 -1.0493  0.1598  2.6951
  689TIP3    H223483   5.862   6.369   3.055  0.9564  2.7365 -1.2312
  690TIP3   OH223484   5.470   3.633   2.097  0.4382 -0.3444  0.2647
  690TIP3    H123485   5.497   3.633   2.189  0.2874  0.6112  0.3191
  690TIP3    H223486   5.544   3.670   2.050 -0.2346  1.0590  0.2572
  691TIP3   OH223487   3.092   0.661   6.407  0.2411 -0.9654 -0.0730
  691TIP3    H123488   3.186   0.664   6.427 -0.0040 -3.1307  1.8078
  691TIP3    H223489   3.086   0.601   6.332  0.3596 -0.3803 -0.5668
  692TIP3   OH223490   2.026   6.041   4.587  0.2014  0.7706  0.1726
  692TIP3    H123491   1.958   6.085   4.536  1.0488  1.9016 -0.0383
  692TIP3    H223492   2.100   6.102   4.585  0.7260  0.2222  1.6141
  693TIP3   OH223493   2.358   5.606   1.717  0.2958 -0.1409 -0.6926
  693TIP3    H123494   2.398   5.672   1.773  1.1846  0.1397 -1.6184
  693TIP3    H223495   2.427   5.540   1.704  0.1304 -0.1622 -1.5025
  694TIP3   OH223496   5.312   5.141  11.993  0.4617  0.2067  0.1201
  694TIP3    H123497   5.293   5.053  11.959  1.4744 -0.1125  0.3402
  694TIP3    H223498   5.233   5.165  12.042  0.2853 -0.7120  0.3131
  695TIP3   OH223499   1.823   3.649  16.953 -0.1313  0.5800  0.2197
  695TIP3    H123500   1.866   3.675  17.035 -0.1894 -0.1028  0.4659
  695TIP3    H223501   1.780   3.566  16.973  1.4904 -0.6209 -1.0279
  696TIP3   OH223502   0.075   6.100  12.569  0.3724  0.3950  0.5675
  696TIP3    H123503   0.005   6.163  12.551  1.4356  0.7498 -3.1562
  696TIP3    H223504   0.144   6.152  12.610  0.7727  1.5130 -1.3972
  697TIP3   OH223505   5.346   5.126   1.198  0.2859  0.6771  0.0953
  697TIP3    H123506   5.412   5.062   1.225 -0.3937 -0.9677 -1.8371
  697TIP3    H223507   5.262   5.086   1.222 -0.0964  1.7797  0.6464
  698TIP3   OH223508   0.352   1.344   2.815 -0.2469  0.3725  0.2742
  698TIP3    H123509   0.414   1.321   2.883 -0.8973  0.1049  0.7919
  698TIP3    H223510   0.386   1.303   2.735 -0.6911 -1.3312  0.9057
  699TIP3   OH223511   3.354   1.618   1.262  0.4741 -0.2404  0.5096
  699TIP3    H123512   3.339   1.632   1.169 -0.5400  0.4437  0.7565
  699TIP3    H223513   3.362   1.523   1.272 -2.4225 -0.6069  0.1115
  700TIP3   OH223514   1.330   2.730  16.831  0.0956  0.4554  0.6173
  700TIP3    H123515   1.263   2.753  16.894 -0.3280 -1.2264  0.8395
  700TIP3    H223516   1.285   2.731  16.746 -0.4404 -1.3672  0.8447
  701TIP3   OH223517   3.468   0.384   2.502 -0.2922  0.3424 -0.0237
  701TIP3    H123518   3.397   0.380   2.566  1.7444  0.7997  2.4465
  701TIP3    H223519   3.521   0.460   2.530 -0.2282  1.6987 -3.3654
  702TIP3   OH223520   0.755   2.787  14.073 -0.4432 -0.2691 -0.1793
  702TIP3    H123521   0.731   2.879  14.064  0.6627  0.4158  2.7735
  702TIP3    H223522   0.780   2.760  13.985 -0.6210  2.2915 -1.0915
  703TIP3   OH223523   0.222   5.875   3.157  0.3394  0.5206 -0.1634
  703TIP3    H123524   0.302   5.869   3.104  0.1320  1.8952 -0.6731
  703TIP3    H223525   0.244   5.828   3.238  1.1813 -0.3085 -0.8426
  704TIP3   OH223526   1.796   5.847   4.468  0.1038 -0.2436  0.2145
  704TIP3    H123527   1.739   5.801   4.406  1.2358  0.6029 -1.5725
  704TIP3    H223528   1.737   5.881   4.535 -0.8751 -3.6929  1.3509
  705TIP3   OH223529   3.095   1.793  12.519 -0.0034 -0.1885 -0.6619
  705TIP3    H123530   3.168   1.819  12.463 -0.4123 -0.9654 -1.5830
  705TIP3    H223531   3.111   1.700  12.538 -1.1421 -0.5741 -1.5119
  706TIP3   OH223532   4.347   6.548  16.090 -0.4980  0.1828 -0.4452
  706TIP3    H123533   4.347   6.564  15.996  1.8226 -3.0871 -1.1702
  706TIP3    H223534   4.284   6.477  16.103  0.8727 -0.9989  0.0202
  707TIP3   OH223535   3.497   1.828  11.878  0.0318  0.4188  0.2673
  707TIP3    H123536   3.586   1.798  11.861  0.3573  1.5381 -0.0953
  707TIP3    H223537   3.467   1.773  11.950  0.5491 -0.8195 -0.4267
  708TIP3   OH223538   2.480   4.914   4.617 -0.3905  0.3076 -0.3991
  708TIP3    H123539   2.532   4.834   4.607 -0.6043  0.1703 -0.4266
  708TIP3    H223540   2.543   4.982   4.638 -0.0942  0.3217 -1.2941
  709TIP3   OH223541   6.163   5.101  16.326  0.0690  0.2360  0.5879
  709TIP3    H123542   6.140   5.101  16.233 -0.8950 -1.2363  0.7926
  709TIP3    H223543   6.095   5.153  16.367  2.1013  3.4712  0.2003
  710TIP3   OH223544   3.659   2.039  13.069 -0.0026 -0.3325 -0.1816
  710TIP3    H123545   3.612   2.093  13.132  0.0934 -1.7606  1.1931
  710TIP3    H223546   3.710   2.100  13.017 -0.3542  0.9275  0.9080
  711TIP3   OH223547   6.399   3.702   2.771  0.1217  0.3707 -0.1893
  711TIP3    H123548   6.364   3.731   2.687  0.6290 -0.0805 -0.5695
  711TIP3    H223549   6.487   3.670   2.750 -0.6251 -2.0719  0.0419
  712TIP3   OH223550   4.888   3.668   2.873  0.2669 -0.4156 -0.1227
  712TIP3    H123551   4.817   3.678   2.810  1.1513 -2.6316 -1.5984
  712TIP3    H223552   4.845   3.657   2.957 -1.0451  0.0752 -0.7080
  713TIP3   OH223553   1.181   4.707   3.986 -1.0339  0.9613 -0.2317
  713TIP3    H123554   1.117   4.772   3.957  0.2507  2.1943 -0.4380
  713TIP3    H223555   1.248   4.759   4.032  0.7887  0.0180 -1.6863
  714TIP3   OH223556   5.225   3.009  12.336 -0.0705 -0.1814 -0.2794
  714TIP3    H123557   5.291   3.050  12.280 -0.1712 -2.0480 -1.8864
  714TIP3    H223558   5.271   2.992  12.418  0.7243  0.7241 -0.5135
  715TIP3   OH223559   5.828   2.682   1.215 -0.3279  0.0296  0.2288
  715TIP3    H123560   5.909   2.678   1.166 -1.1369 -1.3387 -1.0826
  715TIP3    H223561   5.759   2.665   1.150 -1.7549  1.8704  1.1426
  716TIP3   OH223562   4.753   1.832  13.534  0.3606 -0.1012  0.5007
  716TIP3    H123563   4.764   1.866  13.623  0.2780  3.8534 -0.8284
  716TIP3    H223564   4.843   1.818  13.502  0.4535  0.3773  0.5534
  717TIP3   OH223565   3.792   3.353  12.746 -0.3008 -0.0612 -0.3684
  717TIP3    H123566   3.762   3.282  12.690  0.2134  0.1640 -0.9392
  717TIP3    H223567   3.786   3.431  12.691  0.2127  0.1671 -0.1053
  718TIP3   OH223568   2.824   1.494   4.942 -0.4534  0.0450  0.0978
  718TIP3    H123569   2.837   1.404   4.971 -0.7363 -0.1584 -0.3790
  718TIP3    H223570   2.817   1.545   5.022 -1.1571 -0.4906  0.3872
  719TIP3   OH223571   1.584   5.583  16.717  0.4612 -0.0715  0.5985
  719TIP3    H123572   1.622   5.609  16.801  1.4558  0.4792  0.0031
  719TIP3    H223573   1.582   5.487  16.721 -0.6487 -0.0292  1.7132
  720TIP3   OH223574   0.353   2.311  13.580 -0.1318  0.0046 -0.0478
  720TIP3    H123575   0.307   2.331  13.499  2.0566  1.4207 -1.0276
  720TIP3    H223576   0.403   2.231  13.562 -1.4565 -1.0566  0.7457
  721TIP3   OH223577   3.695   0.711  12.547 -0.1689  0.7131 -0.0156
  721TIP3    H123578   3.647   0.793  12.533 -0.3512  0.6480  0.2237
  721TIP3    H223579   3.675   0.658  12.469  0.4542  1.1336 -0.4761
  722TIP3   OH223580   2.064   1.060  15.296 -0.2054  0.4879  0.5021
  722TIP3    H123581   2.154   1.090  15.311 -0.0183 -0.1960  0.7506
  722TIP3    H223582   2.029   1.043  15.383 -1.0307  1.9922  0.5166
  723TIP3   OH223583   5.448   5.986   2.963  0.5408  0.2892  0.2000
  723TIP3    H123584   5.391   5.937   3.022  1.6007 -1.1281  0.0989
  723TIP3    H223585   5.446   6.076   2.997 -2.5390  0.5576 -0.4377
  724TIP3   OH223586   0.901   1.403   4.797  0.1497  0.6049 -0.0216
  724TIP3    H123587   0.875   1.485   4.839 -0.9879 -0.4379  1.4238
  724TIP3    H223588   0.825   1.346   4.808  0.6726 -0.4607 -1.5712
  725TIP3   OH223589   2.115   6.452  13.464  0.1040  0.2318  0.3890
  725TIP3    H123590   2.159   6.536  13.478  2.9946 -0.8411 -1.5099
  725TIP3    H223591   2.176   6.387  13.499 -1.0670 -1.2214 -0.1663
  726TIP3   OH223592   5.040   0.074  12.240  0.3077  0.0336  0.6853
  726TIP3    H123593   5.082   0.010  12.184 -0.4787  0.1181 -0.0215
  726TIP3    H223594   5.006   0.023  12.314  0.1499 -0.2891  0.3903
  727TIP3   OH223595   5.661   4.113   5.149  0.2510 -0.0549  0.0144
  727TIP3    H123596   5.605   4.150   5.217 -0.1611 -1.2644  0.3530
  727TIP3    H223597   5.655   4.019   5.162  0.2089 -0.3061 -1.6793
  728TIP3   OH223598   2.959   3.114   6.771 -0.5430 -0.0657 -0.4728
  728TIP3    H123599   2.924   3.031   6.802 -0.4983 -0.2104 -0.8127
  728TIP3    H223600   3.053   3.099   6.763 -0.6845 -0.3379 -1.6637
  729TIP3   OH223601   1.391   0.712  16.878 -0.2537 -0.0982  0.2839
  729TIP3    H123602   1.425   0.795  16.845  0.1750  0.6778  2.5036
  729TIP3    H223603   1.433   0.646  16.825  0.5497  1.0588 -0.5647
  730TIP3   OH223604   6.421   2.136  12.797 -0.0441  0.2891  0.2566
  730TIP3    H123605   6.425   2.094  12.883  1.6028  0.5572  0.3260
  730TIP3    H223606   6.450   2.069  12.736 -0.1162  0.4592  0.0351
  731TIP3   OH223607   0.297   6.247  17.127  0.4907  0.5525  0.8247
  731TIP3    H123608   0.208   6.277  17.146 -0.4178 -1.8390  0.5788
  731TIP3    H223609   0.310   6.172  17.184  2.5812  1.1503  1.2182
  732TIP3   OH223610   4.178   5.025   3.137 -1.0740 -0.2991 -0.0803
  732TIP3    H123611   4.177   4.989   3.049 -0.3073  0.8354 -0.5723
  732TIP3    H223612   4.244   5.095   3.134 -0.2835 -0.9115  1.6565
  733TIP3   OH223613   1.153   5.407   0.127  0.3674  0.0885  0.4283
  733TIP3    H123614   1.246   5.411   0.148 -0.1823  2.0595  3.0886
  733TIP3    H223615   1.131   5.314   0.134  2.2479 -0.5514 -1.1909
  734TIP3   OH223616   0.217   5.360   4.703  0.7065 -0.4263  0.2097
  734TIP3    H123617   0.209   5.274   4.663 -1.2419 -1.4826  2.6376
  734TIP3    H223618   0.197   5.421   4.632 -0.8213 -2.1247 -0.9179
  735TIP3   OH223619   1.011   1.225   5.879  0.7601  0.1277 -0.3715
  735TIP3    H123620   1.015   1.320   5.865  1.7076  0.1626  0.0246
  735TIP3    H223621   1.102   1.197   5.872  0.3134 -1.0043 -2.0885
  736TIP3   OH223622   3.221   5.301   4.179  0.2630  0.7287  0.5975
  736TIP3    H123623   3.204   5.366   4.111  0.1766 -0.0475 -0.1517
  736TIP3    H223624   3.149   5.310   4.241 -1.3673 -0.5735 -1.0098
  737TIP3   OH223625   5.916   4.795   5.613 -0.1553 -0.2707 -0.3379
  737TIP3    H123626   5.861   4.864   5.577 -0.7374 -0.2501  0.5508
  737TIP3    H223627   5.891   4.790   5.706  1.1083 -0.4855  0.0087
  738TIP3   OH223628   5.331   3.345  14.549 -0.2684 -0.3007 -0.2715
  738TIP3    H123629   5.390   3.288  14.598 -0.0682  0.6726  0.6576
  738TIP3    H223630   5.387   3.413  14.512 -0.8742  1.1836  1.4167
  739TIP3   OH223631   0.479   2.906   0.508  0.7843  0.3728  0.5934
  739TIP3    H123632   0.409   2.850   0.543 -0.0438  1.6119  0.9688
  739TIP3    H223633   0.536   2.923   0.583  2.0354 -1.3347  0.1116
  740TIP3   OH223634   5.088   3.155   3.898  0.4083 -0.0995  0.1213
  740TIP3    H123635   5.114   3.064   3.909 -0.4101 -0.7876 -2.8274
  740TIP3    H223636   5.133   3.201   3.969  0.6879 -2.7718  1.8281
  741TIP3   OH223637   4.737   1.176  16.015  0.0816 -0.5817  0.4340
  741TIP3    H123638   4.771   1.261  16.043 -0.4206 -0.7003  1.4625
  741TIP3    H223639   4.798   1.147  15.947  0.2956  0.5636  0.1162
  742TIP3   OH223640   2.289   6.244  14.964  0.0341  0.1034  0.3214
  742TIP3    H123641   2.353   6.234  15.034  0.0884 -1.2564  0.0996
  742TIP3    H223642   2.221   6.180  14.984  0.2013 -0.5405 -1.0207
  743TIP3   OH223643   2.698   5.145   0.607  0.1508 -0.1759 -0.0553
  743TIP3    H123644   2.647   5.215   0.567 -2.0869 -0.7269  1.6301
  743TIP3    H223645   2.710   5.080   0.537 -2.6967 -0.6302 -0.2269
  744TIP3   OH223646   6.413   3.910  10.777 -0.3258 -0.1148  0.2758
  744TIP3    H123647   6.398   3.936  10.868  1.9127  1.6338  0.2474
  744TIP3    H223648   6.501   3.944  10.757  0.4726 -2.9299 -1.6596
  745TIP3   OH223649   3.302   2.279   2.961  0.3597  0.0779  0.1245
  745TIP3    H123650   3.226   2.222   2.949 -0.8772  1.1654  2.2190
  745TIP3    H223651   3.322   2.312   2.873 -0.8365 -1.1430 -0.6351
  746TIP3   OH223652   1.693   4.074  12.596 -0.1772  0.3457  0.3417
  746TIP3    H123653   1.688   3.979  12.607 -0.8369  0.0028 -2.1922
  746TIP3    H223654   1.628   4.093  12.528 -0.3657  2.6975  1.0979
  747TIP3   OH223655   1.013   1.518   3.611 -0.1838  0.5239  0.7391
  747TIP3    H123656   0.975   1.470   3.538 -2.1249  0.5818  1.6226
  747TIP3    H223657   0.950   1.589   3.628  0.0324  0.3123  2.6293
  748TIP3   OH223658   1.603   3.629   5.507 -0.0484  0.0277  0.0061
  748TIP3    H123659   1.652   3.697   5.553  0.0424 -0.9872  1.4583
  748TIP3    H223660   1.513   3.659   5.509  0.0962  0.4818 -0.0723
  749TIP3   OH223661   5.451   3.907   4.508  0.2221 -0.1650 -0.1942
  749TIP3    H123662   5.472   3.879   4.419  0.6471 -0.7396  0.0803
  749TIP3    H223663   5.526   3.880   4.560  0.2229  0.6632  0.2461
  750TIP3   OH223664   1.935   6.520   0.790  0.3915  0.0361 -0.0776
  750TIP3    H123665   1.937   6.508   0.695 -0.2495  0.8361 -0.2050
  750TIP3    H223666   1.920   6.614   0.802  0.1029 -0.1116  0.8077
  751TIP3   OH223667   4.538   2.795   1.564  0.1743  0.3175 -0.5790
  751TIP3    H123668   4.613   2.766   1.615  0.2430  0.0753 -0.8158
  751TIP3    H223669   4.576   2.840   1.489  0.0622  1.8376  0.2434
  752TIP3   OH223670   6.513   1.686   3.334 -0.0816 -0.1967  0.3640
  752TIP3    H123671   6.449   1.757   3.326  0.6743  0.5972  1.1968
  752TIP3    H223672   6.560   1.705   3.415  1.0048 -0.9419 -0.0729
  753TIP3   OH223673   2.889   5.035   3.897  0.1496 -0.0925 -0.8584
  753TIP3    H123674   2.957   4.996   3.952  0.3235  0.7881 -0.4211
  753TIP3    H223675   2.898   4.991   3.813  0.5973 -0.7027 -0.4986
  754TIP3   OH223676   5.810   2.267  14.576  0.1839  0.1120 -0.2456
  754TIP3    H123677   5.750   2.289  14.505  2.4375 -0.2013 -2.3613
  754TIP3    H223678   5.820   2.172  14.572  0.1503  0.0556  0.6798
  755TIP3   OH223679   1.003   0.577  15.540  0.3166 -0.2289 -0.0954
  755TIP3    H123680   0.991   0.487  15.509  0.8683 -0.5559  0.6000
  755TIP3    H223681   1.080   0.572  15.598 -0.7867  0.2967  1.4880
  756TIP3   OH223682   1.399   5.983   4.803 -0.1897 -0.2705  0.1053
  756TIP3    H123683   1.431   6.019   4.886  0.5974 -2.2927  0.7288
  756TIP3    H223684   1.332   5.920   4.828 -0.0410 -0.7973 -0.7890
  757TIP3   OH223685   3.563   0.248  13.683  0.1662 -0.5642 -0.2107
  757TIP3    H123686   3.653   0.226  13.708  0.6896 -0.3653 -1.7802
  757TIP3    H223687   3.538   0.319  13.741  1.2733 -0.1693 -0.1929
  758TIP3   OH223688   3.171   0.010  12.314 -0.0722  0.4124 -0.2854
  758TIP3    H123689   3.232   0.031  12.385  0.0422 -0.6239 -0.0680
  758TIP3    H223690   3.223   0.023  12.234  0.4259 -0.3756 -0.1063
  759TIP3   OH223691   4.084   4.631  16.565 -0.1365  0.4218  0.0205
  759TIP3    H123692   4.079   4.665  16.476 -0.8266 -0.2733 -0.2135
  759TIP3    H223693   4.004   4.663  16.607 -1.0192 -1.2428 -0.3322
  760TIP3   OH223694   0.706   6.328   2.584 -0.3802  1.3014 -0.4373
  760TIP3    H123695   0.655   6.341   2.504  0.3413  0.7870 -0.9941
  760TIP3    H223696   0.641   6.334   2.654 -1.0923  1.3716 -1.0833
  761TIP3   OH223697   2.820   5.567   1.962 -0.4169  0.1899 -0.8400
  761TIP3    H123698   2.860   5.652   1.942 -2.0693  0.9839 -0.9914
  761TIP3    H223699   2.894   5.507   1.972  0.8097  1.6896 -0.5076
  762TIP3   OH223700   6.030   0.157  14.074 -0.4700  0.1683  0.0171
  762TIP3    H123701   6.101   0.174  14.135  0.2623 -0.0612 -0.7612
  762TIP3    H223702   5.960   0.216  14.102  0.3103  0.9888  0.2937
  763TIP3   OH223703   5.159   5.356   2.631 -0.3673 -0.0692 -0.7061
  763TIP3    H123704   5.132   5.273   2.672  0.5926  0.2127  0.5711
  763TIP3    H223705   5.226   5.391   2.690 -0.2264  1.2653 -1.6132
  764TIP3   OH223706   3.452   3.166   1.936  0.3393 -0.3978  0.0959
  764TIP3    H123707   3.363   3.153   1.904 -0.6362  1.4199  1.8607
  764TIP3    H223708   3.501   3.196   1.860 -0.5599 -1.3606 -0.8834
  765TIP3   OH223709   2.357   4.576  16.950 -0.5913  0.1652 -0.1506
  765TIP3    H123710   2.320   4.660  16.974 -2.8551 -0.2913 -1.7275
  765TIP3    H223711   2.299   4.511  16.990  1.1056 -0.7131  1.0384
  766TIP3   OH223712   1.824   2.194   2.355  0.0225  0.5627 -0.0046
  766TIP3    H123713   1.805   2.150   2.272 -0.1296  0.2300  0.2039
  766TIP3    H223714   1.739   2.210   2.395  0.0005  2.1739 -0.6383
  767TIP3   OH223715   1.708   0.677  15.837 -0.5956  0.0009  0.5255
  767TIP3    H123716   1.687   0.601  15.891  1.5378 -0.7654  0.3500
  767TIP3    H223717   1.764   0.731  15.893  1.3758 -0.6466 -0.7419
  768TIP3   OH223718   4.286   1.670   1.975 -0.1273  0.0524 -0.1665
  768TIP3    H123719   4.207   1.629   1.940  0.5687 -1.2549 -0.2719
  768TIP3    H223720   4.274   1.764   1.958 -1.0895 -0.2556 -1.3092
  769TIP3   OH223721   0.057   0.456  14.009 -0.1260 -0.5205  0.4384
  769TIP3    H123722   0.144   0.464  14.046 -0.7993  0.6578  1.8721
  769TIP3    H223723   0.053   0.367  13.975  1.7911 -0.4177 -0.1170
  770TIP3   OH223724   2.355   4.332   4.383  0.3173  0.1707 -0.0462
  770TIP3    H123725   2.392   4.264   4.440 -0.2446  0.2731  0.4547
  770TIP3    H223726   2.284   4.287   4.336 -0.4819  0.5618  0.7635
  771TIP3   OH223727   2.261   0.700   2.689  0.2406  0.6968 -0.8126
  771TIP3    H123728   2.349   0.722   2.659  1.0045  0.0634  0.8583
  771TIP3    H223729   2.271   0.618   2.737 -1.7141 -0.8184 -2.7582
  772TIP3   OH223730   2.262   4.579  14.275  0.1501 -0.7681  0.0884
  772TIP3    H123731   2.203   4.567  14.200 -1.6066  0.5509  1.1807
  772TIP3    H223732   2.343   4.613  14.235 -1.0275  0.7214 -1.1875
  773TIP3   OH223733   4.551   6.331   1.344  0.0289 -0.7855 -0.1466
  773TIP3    H123734   4.539   6.308   1.252 -2.6269 -1.5330  0.3001
  773TIP3    H223735   4.597   6.256   1.382  0.2433 -0.9130 -0.6587
  774TIP3   OH223736   1.745   2.400   5.785  0.3538  0.1077  0.3423
  774TIP3    H123737   1.806   2.372   5.853 -1.5848  1.1338  2.6750
  774TIP3    H223738   1.686   2.326   5.772 -0.5069  0.5881  1.3422
  775TIP3   OH223739   2.392   1.718   3.102  0.2195 -0.2370 -0.1569
  775TIP3    H123740   2.446   1.741   3.027  0.1957 -0.2186 -0.1687
  775TIP3    H223741   2.443   1.654   3.151 -0.6842 -1.9707 -1.3678
  776TIP3   OH223742   6.038   6.727  14.282  0.2728 -0.3184 -0.7589
  776TIP3    H123743   6.019   6.635  14.264 -0.5367 -0.5298  0.9955
  776TIP3    H223744   5.957   6.761  14.319  0.8627  0.8771 -0.5384
  777TIP3   OH223745   4.521   4.518   1.478 -0.1461 -0.2975 -0.1282
  777TIP3    H123746   4.591   4.521   1.412 -1.4264 -2.0441 -1.6732
  777TIP3    H223747   4.469   4.597   1.462  1.0293  0.6639  0.5946
  778TIP3   OH223748   2.000   0.893   1.603 -0.5511  0.1571  0.2419
  778TIP3    H123749   1.942   0.933   1.668  1.6868  0.4069  2.2257
  778TIP3    H223750   1.990   0.948   1.525 -2.0085  0.9276  0.9342
  779TIP3   OH223751   3.887   4.320  10.510  0.7835  0.2777  0.4703
  779TIP3    H123752   3.914   4.228  10.502  0.4527  0.1913  0.3293
  779TIP3    H223753   3.965   4.365  10.543  0.6734 -0.2172  1.4645
  780TIP3   OH223754   0.317   3.279   3.039 -0.2854  0.5289 -0.1703
  780TIP3    H123755   0.243   3.220   3.031 -1.9480  2.3688  0.8217
  780TIP3    H223756   0.304   3.324   3.122  2.6744  0.0386  0.6819
  781TIP3   OH223757   1.017   2.893  13.091 -0.2212 -0.2864 -0.0567
  781TIP3    H123758   1.061   2.909  13.174 -1.1920  3.1643 -0.0644
  781TIP3    H223759   0.935   2.850  13.114  1.0666 -2.6845  0.3411
  782TIP3   OH223760   5.406   1.240  10.741 -0.4186  0.3620  0.3223
  782TIP3    H123761   5.365   1.217  10.825  0.3600 -2.1210  0.1018
  782TIP3    H223762   5.388   1.333  10.730 -2.8000  0.1739  1.9793
  783TIP3   OH223763   2.882   1.006   1.653 -0.8863 -0.2188  0.1775
  783TIP3    H123764   2.869   1.064   1.728  0.7346  0.2399  0.1296
  783TIP3    H223765   2.803   0.952   1.651 -2.4615  1.9348  0.2502
  784TIP3   OH223766   2.748   5.007  12.947  0.7706  0.1954  0.1433
  784TIP3    H123767   2.798   5.084  12.976 -0.6278  0.0922  3.2058
  784TIP3    H223768   2.760   4.944  13.018 -0.7600 -1.1706 -0.7744
  785TIP3   OH223769   2.162   1.662  16.104  0.9631  0.4031 -0.2937
  785TIP3    H123770   2.197   1.575  16.125  1.3131  0.5270 -0.3508
  785TIP3    H223771   2.093   1.676  16.168 -0.3971 -0.7131 -1.4436
  786TIP3   OH223772   3.602   3.705  10.721  0.3008 -0.1760 -0.2941
  786TIP3    H123773   3.514   3.674  10.745  0.3037  0.0038 -0.0463
  786TIP3    H223774   3.586   3.786  10.673  0.3156 -0.3223 -0.5476
  787TIP3   OH223775   4.261   0.116  16.099  0.2162  0.1336  0.4313
  787TIP3    H123776   4.357   0.113  16.098  0.2133 -0.0753  0.6173
  787TIP3    H223777   4.237   0.149  16.012  0.5734  3.8744  1.5749
  788TIP3   OH223778   3.146   4.316  14.456  0.0001 -0.5166 -0.8341
  788TIP3    H123779   3.071   4.366  14.489  0.2747  0.8053 -2.1134
  788TIP3    H223780   3.109   4.232  14.430 -1.0130  0.0234 -1.2086
  789TIP3   OH223781   2.602   3.251  17.234  0.5190 -0.2876  0.2164
  789TIP3    H123782   2.668   3.289  17.291  1.4376  0.1745 -1.1081
  789TIP3    H223783   2.550   3.194  17.291  1.3139  0.2635  1.5149
  790TIP3   OH223784   4.253   4.647   1.381 -0.1320 -0.1822  0.5702
  790TIP3    H123785   4.228   4.636   1.289  0.6437 -1.5600  0.5025
  790TIP3    H223786   4.238   4.740   1.398  0.2724  0.2468 -1.1267
  791TIP3   OH223787   2.464   4.891  15.677  0.4267  0.0378  0.2459
  791TIP3    H123788   2.518   4.811  15.678  0.2929 -0.0935 -1.2738
  791TIP3    H223789   2.523   4.959  15.643 -0.1939  0.0133 -0.9079
  792TIP3   OH223790   6.789   6.003   2.777 -0.2876 -0.3900  0.3206
  792TIP3    H123791   6.811   6.091   2.744 -2.1328 -0.7014 -2.0014
  792TIP3    H223792   6.870   5.953   2.767 -0.0434  0.2680 -1.2285
  793TIP3   OH223793   1.091   2.727   5.190  0.5689  0.3190 -0.3420
  793TIP3    H123794   0.999   2.749   5.174  0.8076  3.9910  1.9607
  793TIP3    H223795   1.136   2.752   5.110 -0.2109  0.4601 -0.7469
  794TIP3   OH223796   2.950   5.974  12.614 -0.1214 -0.0065  0.0808
  794TIP3    H123797   2.947   5.993  12.520  0.0076  1.8771  0.4328
  794TIP3    H223798   3.041   5.991  12.639 -0.1108 -0.6728  0.5414
  795TIP3   OH223799   1.443   3.810   0.812 -0.2648  0.1385 -0.0947
  795TIP3    H123800   1.361   3.793   0.858  0.1773 -0.3458  0.5213
  795TIP3    H223801   1.418   3.819   0.721 -0.8197 -1.5676 -0.1431
  796TIP3   OH223802   3.818   3.516  11.397 -0.0648 -0.7637  0.7222
  796TIP3    H123803   3.820   3.564  11.480  1.3249 -0.3535  0.4724
  796TIP3    H223804   3.885   3.449  11.405 -0.4240 -1.1982  0.1957
  797TIP3   OH223805   2.038   3.274  15.731 -0.0624  0.0045  0.0436
  797TIP3    H123806   2.033   3.312  15.643 -1.5108  2.7267  1.1639
  797TIP3    H223807   2.109   3.210  15.726  1.4411  1.6864 -2.5235
  798TIP3   OH223808   5.079   1.776   6.111 -0.0688  0.6990  0.0361
  798TIP3    H123809   5.088   1.693   6.065 -0.3404  0.4302  0.4529
  798TIP3    H223810   4.991   1.807   6.088  0.2789  1.2060 -0.6470
  799TIP3   OH223811   6.310   2.352  17.222  0.0239  0.4233  0.7849
  799TIP3    H123812   6.225   2.386  17.248 -1.1020 -2.4931  1.2489
  799TIP3    H223813   6.333   2.288  17.290  0.5144 -1.9622 -1.4490
  800TIP3   OH223814   3.250   1.962   0.654 -0.3121 -0.0404  0.4490
  800TIP3    H123815   3.264   2.031   0.719  1.6901  0.8758 -0.8385
  800TIP3    H223816   3.318   1.898   0.672 -0.1711 -0.1116 -0.3145
  801TIP3   OH223817   6.484   6.194   4.756  0.8045  0.4136 -0.1617
  801TIP3    H123818   6.466   6.258   4.825  0.6415 -1.9919  2.1543
  801TIP3    H223819   6.402   6.148   4.743  0.9068  0.6279 -1.8338
  802TIP3   OH223820   0.067   6.262   3.768  0.7514  0.4240  0.1156
  802TIP3    H123821   0.027   6.242   3.684  0.5784 -0.3003  0.3646
  802TIP3    H223822   0.094   6.177   3.803 -0.9742  0.4423  1.6781
  803TIP3   OH223823   0.871   1.305  11.907  0.0261 -0.2433  0.7841
  803TIP3    H123824   0.965   1.305  11.889 -0.4945 -0.7927 -2.7702
  803TIP3    H223825   0.838   1.227  11.861 -2.1610 -0.0963  1.9751
  804TIP3   OH223826   0.525   0.598  14.378 -0.4655  0.1602  0.3151
  804TIP3    H123827   0.441   0.645  14.377 -1.0941 -0.9137 -0.5677
  804TIP3    H223828   0.555   0.604  14.468 -1.6788  0.2787  0.7321
  805TIP3   OH223829   1.238   1.634  13.711  0.0449  0.3421 -0.0674
  805TIP3    H123830   1.256   1.652  13.619  0.6061 -0.4857 -0.1268
  805TIP3    H223831   1.247   1.718  13.755  0.0952  0.6780 -0.7227
  806TIP3   OH223832   3.569   6.635  16.843  0.3076 -0.2030 -0.0047
  806TIP3    H123833   3.653   6.591  16.831 -1.0806 -2.7122 -1.2346
  806TIP3    H223834   3.512   6.596  16.777 -0.6918  4.7852 -2.6242
  807TIP3   OH223835   0.134   6.335  14.921 -0.2918  0.1752  0.1154
  807TIP3    H123836   0.040   6.351  14.910 -0.6738 -0.6314  1.8665
  807TIP3    H223837   0.138   6.247  14.958  1.4130 -1.9571 -4.3878
  808TIP3   OH223838   6.389   2.101   1.984 -0.0839  0.0333  0.4975
  808TIP3    H123839   6.339   2.020   1.973  0.3488 -0.0648 -0.8847
  808TIP3    H223840   6.480   2.073   1.984  0.0443  0.3921  1.4427
  809TIP3   OH223841   6.392   2.384  12.676  0.4702 -0.1691 -0.2396
  809TIP3    H123842   6.408   2.312  12.738 -2.1763 -0.0071  0.7877
  809TIP3    H223843   6.339   2.446  12.726 -0.5750  0.6320 -2.2529
  810TIP3   OH223844   4.858   6.366  13.471  0.1729 -0.4174  0.1472
  810TIP3    H123845   4.916   6.368  13.394 -0.6767  2.1904 -0.5491
  810TIP3    H223846   4.776   6.328  13.438  0.2239 -0.4585  0.0689
  811TIP3   OH223847   4.712   0.434  16.839  0.4698  0.4489 -0.3627
  811TIP3    H123848   4.742   0.519  16.806 -0.3814  0.9826  0.2003
  811TIP3    H223849   4.630   0.417  16.793 -0.1516  0.6686  0.6394
  812TIP3   OH223850   4.548   4.473  15.794 -0.3819 -0.5921 -0.3121
  812TIP3    H123851   4.586   4.528  15.725 -1.2309 -0.1139 -0.4213
  812TIP3    H223852   4.453   4.487  15.786 -0.4945 -0.4588  1.0101
  813TIP3   OH223853   6.281   3.153  16.389  0.6127 -0.4508 -0.0809
  813TIP3    H123854   6.355   3.200  16.428 -0.0044  0.9682 -0.5635
  813TIP3    H223855   6.315   3.064  16.375  2.4468  0.3092 -0.8511
  814TIP3   OH223856   4.682   4.831   3.318  0.5088 -0.1955  0.2073
  814TIP3    H123857   4.685   4.826   3.222  0.2933  0.5572  0.1612
  814TIP3    H223858   4.644   4.916   3.337  3.0180  0.8397  0.9685
  815TIP3   OH223859   4.622   4.895  14.233  0.4061  0.2328 -0.5137
  815TIP3    H123860   4.599   4.860  14.147  2.0754  0.9774 -1.3153
  815TIP3    H223861   4.554   4.863  14.291 -2.0379  1.5016 -2.5018
  816TIP3   OH223862   4.889   1.348  15.664 -0.2162 -0.5122 -0.8671
  816TIP3    H123863   4.822   1.291  15.626 -0.0009 -1.0677 -0.4256
  816TIP3    H223864   4.840   1.419  15.706 -0.5248 -0.8928 -0.5842
  817TIP3   OH223865   4.041   2.565   3.802 -0.3629  0.8654 -0.1553
  817TIP3    H123866   4.079   2.563   3.714 -0.4196  1.5442 -0.2026
  817TIP3    H223867   4.087   2.637   3.846 -0.7132  0.8799  0.1953
  818TIP3   OH223868   1.514   5.620   4.831 -0.0608  0.0189  0.6866
  818TIP3    H123869   1.564   5.662   4.761 -0.7008 -0.1954  0.0811
  818TIP3    H223870   1.430   5.598   4.790  0.0818 -1.4174  1.1099
  819TIP3   OH223871   2.258   4.118   0.467  0.6573  0.3873 -0.1533
  819TIP3    H123872   2.233   4.202   0.506 -0.1399  0.0697  0.0392
  819TIP3    H223873   2.330   4.140   0.407  1.2146  1.0338  0.7182
  820TIP3   OH223874   1.860   6.006   5.315  0.2293 -0.0244  0.4385
  820TIP3    H123875   1.765   6.008   5.304  0.2603  2.0085  0.2649
  820TIP3    H223876   1.895   6.021   5.227  0.7244 -0.3805  0.5677
  821TIP3   OH223877   2.853   1.720  11.405  0.0978  0.1367 -0.3032
  821TIP3    H123878   2.770   1.766  11.417  0.4354  0.3523  1.4661
  821TIP3    H223879   2.917   1.773  11.454  1.2153 -0.2276 -1.3101
  822TIP3   OH223880   6.516   0.549   1.434  0.1623  0.4027 -0.4712
  822TIP3    H123881   6.533   0.458   1.410 -3.6534  0.0865 -2.8507
  822TIP3    H223882   6.510   0.549   1.529  1.2207 -1.5818 -0.3681
  823TIP3   OH223883   4.735   1.371   2.886 -0.8617  0.1652 -0.2436
  823TIP3    H123884   4.659   1.366   2.944 -1.3187  0.6819 -0.7912
  823TIP3    H223885   4.714   1.440   2.824 -0.5589 -0.6566 -1.2892
  824TIP3   OH223886   1.744   6.426  15.259  0.1313 -0.2173  0.4576
  824TIP3    H123887   1.836   6.425  15.283  0.5131  0.3414 -0.8853
  824TIP3    H223888   1.737   6.363  15.187  0.3376  2.5402 -2.1802
  825TIP3   OH223889   4.312   3.890  14.924 -0.2287 -0.0080  0.1064
  825TIP3    H123890   4.251   3.876  14.851 -0.1030 -0.3379  0.0622
  825TIP3    H223891   4.397   3.866  14.889 -0.1272  0.0952  0.2816
  826TIP3   OH223892   0.646   4.456   1.117 -0.1687 -0.4846 -0.3615
  826TIP3    H123893   0.633   4.550   1.131 -1.1500 -0.3018 -2.2312
  826TIP3    H223894   0.741   4.446   1.109 -0.0247  0.2617  0.2999
  827TIP3   OH223895   2.241   5.815  16.687  0.4137 -0.1406 -0.2804
  827TIP3    H123896   2.208   5.875  16.754 -0.2819 -1.4637  0.6312
  827TIP3    H223897   2.166   5.799  16.631 -0.1661 -2.0032  0.9230
  828TIP3   OH223898   2.533   3.117  14.269  0.1915 -0.4600 -0.4925
  828TIP3    H123899   2.620   3.134  14.233 -0.0937 -0.4171 -1.1709
  828TIP3    H223900   2.514   3.026  14.245 -0.4181 -0.1203 -1.3485
  829TIP3   OH223901   6.382   3.913  12.053  0.5030  0.5927  0.0902
  829TIP3    H123902   6.348   3.898  11.965  1.2340  1.7108 -0.4215
  829TIP3    H223903   6.305   3.928  12.107 -0.0114 -1.1167 -0.1310
  830TIP3   OH223904   4.580   1.023  11.553  0.0515 -0.2587  0.1012
  830TIP3    H123905   4.596   0.949  11.612 -0.7843 -1.3287 -0.9748
  830TIP3    H223906   4.605   1.100  11.604  0.4546 -1.2399  1.4335
  831TIP3   OH223907   3.159   3.494   2.244  0.0094 -0.1312  0.1322
  831TIP3    H123908   3.197   3.479   2.158  1.6592  0.6626  0.6965
  831TIP3    H223909   3.066   3.475   2.233  0.3970 -1.2047 -1.5190
  832TIP3   OH223910   2.630   3.767  14.854 -0.3188 -0.4975 -0.1218
  832TIP3    H123911   2.628   3.811  14.939  0.6774 -0.6022 -0.0373
  832TIP3    H223912   2.540   3.772  14.823 -0.3782  0.9633  0.2035
  833TIP3   OH223913   0.114   5.857  11.968  0.2881  0.4831 -0.2889
  833TIP3    H123914   0.200   5.820  11.950 -1.4948 -2.8851 -3.6118
  833TIP3    H223915   0.086   5.815  12.049  0.6081 -1.0100 -0.9181
  834TIP3   OH223916   2.881   2.297  12.267 -0.8808  0.0406 -0.5993
  834TIP3    H123917   2.846   2.382  12.240 -1.8502 -1.0518 -3.0559
  834TIP3    H223918   2.811   2.258  12.320 -0.5976  0.5885  0.1892
  835TIP3   OH223919   4.445   6.522   3.419 -0.4241  0.8363  0.6673
  835TIP3    H123920   4.501   6.595   3.394  1.7979 -0.8786  0.3171
  835TIP3    H223921   4.360   6.562   3.435  0.4114  3.3243 -0.5399
  836TIP3   OH223922   0.387   5.179   3.451  0.9360 -0.5393  0.6784
  836TIP3    H123923   0.342   5.139   3.525  0.2848 -0.7573  0.1693
  836TIP3    H223924   0.319   5.189   3.384  1.1832  0.9446  0.6052
  837TIP3   OH223925   4.947   2.610  15.021  0.0754  0.2937 -0.3602
  837TIP3    H123926   4.966   2.658  14.940 -0.1510 -0.3582 -0.8080
  837TIP3    H223927   4.947   2.677  15.089  1.4156  0.6901 -0.7204
  838TIP3   OH223928   5.583   6.230   3.762 -0.1447 -0.6951 -0.2171
  838TIP3    H123929   5.612   6.187   3.682  0.3268  0.0800 -0.4824
  838TIP3    H223930   5.512   6.288   3.734  0.1036 -0.3303 -0.1085
  839TIP3   OH223931   6.728   1.654  13.215 -0.0044  0.2782 -0.5418
  839TIP3    H123932   6.763   1.669  13.127 -0.5204  1.3402 -0.5786
  839TIP3    H223933   6.636   1.633  13.200  0.5781 -2.8020 -0.4732
  840TIP3   OH223934   1.701   6.156  14.574  0.3700 -0.1264 -0.4545
  840TIP3    H123935   1.707   6.250  14.556  0.7438 -0.5638 -2.8793
  840TIP3    H223936   1.710   6.114  14.489 -1.7596 -2.3187  0.2674
  841TIP3   OH223937   6.233   1.351  10.435 -0.0025 -0.4456 -0.2300
  841TIP3    H123938   6.272   1.429  10.395 -1.5661  0.7788  0.5415
  841TIP3    H223939   6.153   1.382  10.477  0.5101 -2.0287  2.1463
  842TIP3   OH223940   2.115   0.028   3.870 -0.1738 -0.2815  0.3724
  842TIP3    H123941   2.152   0.111   3.841  2.4780 -1.4501  0.0943
  842TIP3    H223942   2.155  -0.038   3.813 -0.9952 -1.8986  1.5653
  843TIP3   OH223943   2.804   2.313   4.216 -0.2722  0.4747 -0.0944
  843TIP3    H123944   2.799   2.349   4.128  0.9069  1.6413  0.2863
  843TIP3    H223945   2.897   2.315   4.238 -0.0271 -3.1905 -0.1641
  844TIP3   OH223946   2.540   1.279  14.804 -0.0793 -0.4235 -0.8980
  844TIP3    H123947   2.453   1.290  14.766 -0.0730 -1.1108 -1.1172
  844TIP3    H223948   2.585   1.362  14.784 -0.6440 -0.1017 -0.8649
  845TIP3   OH223949   5.078   1.105   0.537  0.1799 -0.2357  0.2892
  845TIP3    H123950   5.129   1.159   0.477  0.9942 -0.5877  0.6524
  845TIP3    H223951   5.110   1.129   0.624  1.0551 -1.7804  0.4269
  846TIP3   OH223952   4.803   3.704   4.568  0.3219  0.5069 -0.0294
  846TIP3    H123953   4.749   3.770   4.525  0.9886  0.8290 -0.3850
  846TIP3    H223954   4.780   3.710   4.660 -0.8033  0.1160 -0.2663
  847TIP3   OH223955   3.466   1.898  15.797  0.2224 -0.3163 -0.3093
  847TIP3    H123956   3.546   1.867  15.839  1.9485  1.6512 -1.9489
  847TIP3    H223957   3.490   1.911  15.705 -1.1652  2.7747 -0.3627
  848TIP3   OH223958   4.305   5.334   3.127 -0.1532  0.4106  0.3366
  848TIP3    H123959   4.263   5.332   3.041 -1.9198 -0.5249  1.1581
  848TIP3    H223960   4.257   5.402   3.175  0.4093  0.5050  0.7781
  849TIP3   OH223961   5.180   5.486  15.192 -0.1522  0.0179  0.3438
  849TIP3    H123962   5.156   5.459  15.103  0.4323  0.0710  0.1641
  849TIP3    H223963   5.247   5.553  15.179 -0.7930  0.7555  0.8115
  850TIP3   OH223964   0.913   5.183   3.368 -0.2669  0.1901  0.1832
  850TIP3    H123965   0.855   5.251   3.401 -1.3522 -1.1718  1.1736
  850TIP3    H223966   0.860   5.103   3.368  1.0816 -0.7515 -0.5553
  851TIP3   OH223967   4.927   4.098  10.952 -0.2453  0.2424  0.3268
  851TIP3    H123968   4.850   4.072  10.902 -1.1574  1.0426  1.2686
  851TIP3    H223969   4.981   4.019  10.955  0.0641  0.2698 -2.2403
  852TIP3   OH223970   1.774   6.672  12.170 -0.2833  0.1384 -0.1697
  852TIP3    H123971   1.764   6.604  12.236 -0.1014  1.0619  0.8347
  852TIP3    H223972   1.692   6.721  12.174 -0.1416  0.3969 -0.4138
  853TIP3   OH223973   2.186   1.964  12.377 -0.4241 -0.1352 -0.1566
  853TIP3    H123974   2.184   2.031  12.445  0.5285 -0.2338 -0.0103
  853TIP3    H223975   2.105   1.976  12.328 -0.8919  0.2487  0.6956
  854TIP3   OH223976   2.163   0.253   5.240  0.0179  0.0951  0.7521
  854TIP3    H123977   2.185   0.186   5.305 -0.3389  0.3493  1.1367
  854TIP3    H223978   2.071   0.237   5.219 -0.0148  0.3414  0.7036
  855TIP3   OH223979   1.798   1.433   0.538  0.1572  0.3345 -1.0014
  855TIP3    H123980   1.793   1.416   0.444  1.7613  0.8111 -1.1992
  855TIP3    H223981   1.752   1.359   0.578 -1.1815  0.4902 -2.1609
  856TIP3   OH223982   4.165   4.976   1.186 -0.4140  0.5056  0.0520
  856TIP3    H123983   4.217   4.899   1.160 -1.1212  0.1257 -0.2734
  856TIP3    H223984   4.095   4.940   1.240 -0.2286  1.0395  0.6574
  857TIP3   OH223985   1.018   3.251   0.877 -0.2381  0.2473 -0.2879
  857TIP3    H123986   0.965   3.211   0.946 -1.2239 -0.3712 -1.3532
  857TIP3    H223987   0.983   3.339   0.868  0.7269  0.7670  0.8282
  858TIP3   OH223988   6.521   5.054  14.581 -0.0616  0.6982 -0.1274
  858TIP3    H123989   6.429   5.029  14.576 -0.7082  3.0600 -1.7522
  858TIP3    H223990   6.540   5.093  14.495  2.3188  0.7233  0.3431
  859TIP3   OH223991   1.556   3.547   0.016 -0.1717 -0.1804 -0.3970
  859TIP3    H123992   1.549   3.640   0.040  2.1758  0.5176 -2.0587
  859TIP3    H223993   1.590   3.505   0.095  1.0957  0.8568 -0.3502
  860TIP3   OH223994   1.220   4.021   0.811  0.1200 -0.3313 -0.2321
  860TIP3    H123995   1.192   4.036   0.721  0.6127  0.4560 -0.2566
  860TIP3    H223996   1.266   4.101   0.836 -0.7505 -0.1861  1.0085
  861TIP3   OH223997   2.174   5.675  14.443 -0.1230 -0.3668  0.2708
  861TIP3    H123998   2.119   5.602  14.415 -1.9568  1.2479 -0.6647
  861TIP3    H223999   2.189   5.726  14.363 -0.1617  1.0445  1.1169
  862TIP3   OH224000   0.915   6.586   3.040 -0.1791  0.4183 -0.5451
  862TIP3    H124001   0.933   6.622   3.127 -0.8045 -1.4197  0.4001
  862TIP3    H224002   0.821   6.565   3.042 -0.4153  1.2011 -2.0171
  863TIP3   OH224003   6.712   6.262   4.096  0.4248 -0.0184 -0.0974
  863TIP3    H124004   6.799   6.228   4.116  0.0047 -0.4441  1.1335
  863TIP3    H224005   6.669   6.191   4.047  0.8658  0.3218 -0.9981
  864TIP3   OH224006   2.110   5.208  11.943 -1.0215 -0.2683  0.6029
  864TIP3    H124007   2.175   5.243  11.882 -1.2314  0.6760  0.9077
  864TIP3    H224008   2.029   5.253  11.920 -1.8944 -2.2905 -0.5552
  865TIP3   OH224009   5.493   4.028   0.946  0.2969 -0.1042  0.1011
  865TIP3    H124010   5.454   4.079   0.875 -0.2208  0.9550  1.1055
  865TIP3    H224011   5.426   3.963   0.968 -0.4094  0.8607  0.9323
  866TIP3   OH224012   1.955   0.560  15.733 -0.3357 -0.4613 -0.5681
  866TIP3    H124013   1.874   0.605  15.757  0.1865  0.2773 -0.1615
  866TIP3    H224014   1.926   0.484  15.683 -1.3660 -1.0801  0.9029
  867TIP3   OH224015   0.533   6.000  11.000 -0.3989 -0.0379  0.2063
  867TIP3    H124016   0.619   5.972  10.970 -1.1748 -0.8501 -1.4078
  867TIP3    H224017   0.525   5.967  11.089  0.8428 -0.1962  0.2632
  868TIP3   OH224018   4.345   5.078   4.715 -0.4600 -0.0275 -0.4220
  868TIP3    H124019   4.406   5.006   4.696 -0.4656 -0.4615  1.0555
  868TIP3    H224020   4.274   5.037   4.765 -2.1405  0.4190 -2.3167
  869TIP3   OH224021   2.873   0.321   3.802  0.0406 -0.4034 -0.0621
  869TIP3    H124022   2.888   0.329   3.708  0.6930 -1.0275 -0.0258
  869TIP3    H224023   2.781   0.346   3.814 -0.0690 -0.3790 -0.8689
  870TIP3   OH224024   4.311   1.210   0.774  0.3808  0.3232  0.1861
  870TIP3    H124025   4.307   1.274   0.704 -2.6986  0.2294  0.1415
  870TIP3    H224026   4.325   1.262   0.853 -0.8311  0.9671  0.0017
  871TIP3   OH224027   5.105   2.930  11.443 -0.2564 -0.3606  0.4407
  871TIP3    H124028   5.154   2.850  11.465 -0.0687 -0.3261  0.1575
  871TIP3    H224029   5.027   2.926  11.498  0.2646 -0.2093  1.2256
  872TIP3   OH224030   3.608   1.246   4.143 -0.3065  0.5615 -0.2964
  872TIP3    H124031   3.635   1.161   4.109 -0.6564  0.7302 -1.0086
  872TIP3    H224032   3.643   1.310   4.081 -3.8493  0.7167 -2.4305
  873TIP3   OH224033   6.405   5.158   0.086  0.2400 -0.2769  0.7638
  873TIP3    H124034   6.396   5.158   0.181 -0.7654 -1.9124  0.7164
  873TIP3    H224035   6.368   5.074   0.058 -1.1087  0.8553 -1.2010
  874TIP3   OH224036   4.144   0.039  12.664 -1.1345  0.2915 -0.5827
  874TIP3    H124037   4.182  -0.029  12.609 -1.2073 -0.7435  0.5970
  874TIP3    H224038   4.052   0.043  12.636 -1.2552 -0.4662 -0.3247
  875TIP3   OH224039   1.508   6.711   2.714  0.5397 -0.1160  0.4981
  875TIP3    H124040   1.530   6.630   2.761 -1.1861 -2.3662 -2.2114
  875TIP3    H224041   1.569   6.712   2.640  0.8592  1.3802  0.7608
  876TIP3   OH224042   4.312   5.083   0.401  0.8929 -0.2645 -0.0415
  876TIP3    H124043   4.256   5.077   0.324  1.0137 -1.6833 -0.0470
  876TIP3    H224044   4.251   5.091   0.474  0.7035 -0.9165 -0.1230
  877TIP3   OH224045   4.049   3.414  12.898  0.0199 -0.1803 -0.1427
  877TIP3    H124046   4.002   3.374  12.825 -1.3091 -0.8434  1.0216
  877TIP3    H224047   4.038   3.508  12.886 -1.2530 -0.3165 -0.1466
  878TIP3   OH224048   1.911   5.463  17.210  0.1995 -0.1765 -0.6912
  878TIP3    H124049   1.832   5.508  17.180  0.0324  0.0810  0.1082
  878TIP3    H224050   1.955   5.435  17.130  0.1681  1.1918 -1.2165
  879TIP3   OH224051   5.299   1.252  12.986 -0.4764 -0.0024 -0.6719
  879TIP3    H124052   5.287   1.332  13.037 -1.7185 -0.5994 -0.0086
  879TIP3    H224053   5.212   1.230  12.954 -0.4673 -2.0281  0.5711
  880TIP3   OH224054   3.705   3.619   5.660 -0.2189 -0.6666  0.1026
  880TIP3    H124055   3.689   3.697   5.714  1.3271 -0.8524  0.8866
  880TIP3    H224056   3.643   3.627   5.588  1.3117  2.4706 -1.0647
  881TIP3   OH224057   3.889   0.158   3.341 -0.3880  0.1758  0.2565
  881TIP3    H124058   3.887   0.183   3.433  0.7422  0.4574  0.2288
  881TIP3    H224059   3.962   0.208   3.304 -0.5353 -0.2726 -0.6882
  882TIP3   OH224060   4.894   4.272   3.791  0.5973 -0.0548  0.1925
  882TIP3    H124061   4.901   4.177   3.804  0.5207  0.1768  2.1212
  882TIP3    H224062   4.953   4.310   3.856 -0.6944  1.2653  0.6426
  883TIP3   OH224063   4.774   5.311  11.540  0.0595 -0.5271 -0.2457
  883TIP3    H124064   4.829   5.389  11.545 -1.4661  0.5690  0.4181
  883TIP3    H224065   4.715   5.328  11.466 -0.7560 -0.6907  0.3492
  884TIP3   OH224066   1.524   6.077   4.444  0.3561 -0.2438  0.1634
  884TIP3    H124067   1.438   6.118   4.438  0.2735 -0.5374 -0.7580
  884TIP3    H224068   1.556   6.072   4.354  0.1470 -2.6490  0.1557
  885TIP3   OH224069   0.179   2.891  15.952 -0.4921  0.7699  0.5932
  885TIP3    H124070   0.267   2.869  15.983 -0.2971  0.8001  0.0841
  885TIP3    H224071   0.137   2.933  16.026  0.6097  2.5807  0.2558
  886TIP3   OH224072   3.636   4.797   1.563  0.0848 -0.1958 -0.2359
  886TIP3    H124073   3.561   4.839   1.521  0.8418  0.4812 -0.9477
  886TIP3    H224074   3.603   4.712   1.593 -0.6014 -0.5184 -1.8172
  887TIP3   OH224075   3.465   0.254   3.581 -0.0424 -0.4274 -0.0414
  887TIP3    H124076   3.521   0.227   3.653  0.9399  0.6508 -0.3643
  887TIP3    H224077   3.465   0.350   3.585 -0.2952 -0.3565 -1.2250
  888TIP3   OH224078   0.062   3.198  14.441  0.0593  0.4032  0.5782
  888TIP3    H124079   0.008   3.272  14.470 -1.6500 -0.5409 -0.0095
  888TIP3    H224080   0.029   3.124  14.492  1.7555  0.0200  1.1781
  889TIP3   OH224081   1.853   2.489   0.376 -0.5520  0.1467 -0.1612
  889TIP3    H124082   1.921   2.435   0.417 -0.5506  0.5330  0.3627
  889TIP3    H224083   1.897   2.572   0.358 -0.5457 -0.0328 -0.9885
  890TIP3   OH224084   1.868   1.970   4.907  0.0692 -0.1131 -0.1333
  890TIP3    H124085   1.949   1.949   4.859 -0.3297 -0.6396 -0.5860
  890TIP3    H224086   1.816   1.890   4.903  0.1733 -0.2996  1.5148
  891TIP3   OH224087   0.733   2.842  15.818  0.3216 -0.2990 -0.1027
  891TIP3    H124088   0.783   2.907  15.867  1.4288 -1.5028  0.4159
  891TIP3    H224089   0.689   2.789  15.884  0.4873 -0.9019 -0.4635
  892TIP3   OH224090   5.174   3.892  14.423 -1.1838 -0.2147 -0.0585
  892TIP3    H124091   5.082   3.878  14.404 -1.3841  1.6337 -0.7010
  892TIP3    H224092   5.210   3.925  14.340  0.1146 -1.1077  0.1203
  893TIP3   OH224093   0.861   1.824   0.483 -0.2256 -0.0352 -0.5152
  893TIP3    H124094   0.810   1.809   0.404 -0.2854  1.0768 -0.7116
  893TIP3    H224095   0.929   1.757   0.481 -0.7404 -0.5470 -1.0653
  894TIP3   OH224096   2.586   1.884  10.580  0.0737  0.1877  0.0915
  894TIP3    H124097   2.556   1.924  10.661 -0.2931  0.0117  0.0474
  894TIP3    H224098   2.519   1.818  10.560 -0.8452  1.4925 -1.3521
  895TIP3   OH224099   1.954   6.318  11.173  0.5284 -0.0543 -0.0438
  895TIP3    H124100   1.956   6.231  11.212  2.1172  0.6608  1.6315
  895TIP3    H224101   2.045   6.335  11.148 -0.1639  0.1917 -2.6649
  896TIP3   OH224102   3.362   4.891  16.410  0.0421 -0.4556  0.0039
  896TIP3    H124103   3.293   4.956  16.424  0.5607 -0.1877  1.4834
  896TIP3    H224104   3.315   4.812  16.384 -0.6715  0.2075 -0.8449
  897TIP3   OH224105   1.813   0.541  11.917 -0.1501  0.6773  0.3964
  897TIP3    H124106   1.756   0.467  11.895 -0.0070 -0.0499  2.2328
  897TIP3    H224107   1.887   0.502  11.964 -0.5860  2.0153  2.3512
  898TIP3   OH224108   4.580   1.011   3.174 -0.1890  0.1968  0.4100
  898TIP3    H124109   4.621   0.967   3.248 -1.5471 -1.9987 -0.0450
  898TIP3    H224110   4.516   1.069   3.213  0.7169  0.8120  1.0034
  899TIP3   OH224111   4.354   1.854  14.893 -0.4823 -0.1350 -0.0832
  899TIP3    H124112   4.348   1.849  14.797 -1.7336 -0.6899  0.0005
  899TIP3    H224113   4.361   1.948  14.912 -0.2040 -0.0236 -0.7124
  900TIP3   OH224114   5.617   0.967   3.019  0.5475 -0.2790 -0.3252
  900TIP3    H124115   5.627   0.982   2.925 -1.9087 -0.1399 -0.6335
  900TIP3    H224116   5.698   1.000   3.057  2.0038 -1.1341 -2.4371
  901TIP3   OH224117   0.752   5.660   3.524  0.0655 -0.4351 -0.3825
  901TIP3    H124118   0.679   5.721   3.531 -0.1208 -0.8191  3.0401
  901TIP3    H224119   0.795   5.683   3.442 -1.8865  2.1051 -0.8202
  902TIP3   OH224120   6.651   4.243   5.459 -0.3110  0.0463 -0.5616
  902TIP3    H124121   6.613   4.330   5.471 -0.8946  0.1127 -2.6161
  902TIP3    H224122   6.585   4.194   5.410  0.1453 -1.4691  0.2834
  903TIP3   OH224123   0.412   0.957  11.750 -0.9978  0.2454 -0.3757
  903TIP3    H124124   0.472   1.004  11.807 -0.2074 -1.2370  0.0755
  903TIP3    H224125   0.373   0.890  11.807  0.9076 -2.2618 -1.7959
  904TIP3   OH224126   0.578   4.237   3.380 -0.6318  0.5012 -0.6551
  904TIP3    H124127   0.594   4.330   3.397 -0.4481  0.4802 -0.7053
  904TIP3    H224128   0.568   4.231   3.285  0.4632  0.3152 -0.7828
  905TIP3   OH224129   1.787   1.297  14.473 -0.5712 -0.1297 -0.4460
  905TIP3    H124130   1.724   1.332  14.536 -0.1669 -0.9898  0.4599
  905TIP3    H224131   1.871   1.298  14.520 -0.1867 -0.4172 -1.1087
  906TIP3   OH224132   3.442   2.539  12.846  0.7484 -0.1989 -0.4375
  906TIP3    H124133   3.460   2.631  12.864 -0.6076 -0.1869  1.1588
  906TIP3    H224134   3.377   2.540  12.776  0.4800  0.0988 -0.1889
  907TIP3   OH224135   4.836   1.624  16.915 -0.6336 -0.1777  0.6302
  907TIP3    H124136   4.840   1.563  16.990 -0.3190  0.2595  0.9729
  907TIP3    H224137   4.880   1.577  16.845 -0.0112 -0.1781  1.0170
  908TIP3   OH224138   0.497   3.911   3.426 -0.4669 -0.2783  0.0789
  908TIP3    H124139   0.539   3.842   3.374 -0.3312 -1.0957  1.2312
  908TIP3    H224140   0.407   3.881   3.438 -0.5055 -0.0820  0.2944
  909TIP3   OH224141   5.858   2.905   3.277  0.1376 -0.1200  0.5736
  909TIP3    H124142   5.763   2.905   3.285 -0.0030  1.4820 -0.5856
  909TIP3    H224143   5.874   2.891   3.184  0.9140  1.9598  0.3454
  910TIP3   OH224144   0.362   6.595  14.478  0.2686 -0.0473  0.1450
  910TIP3    H124145   0.346   6.500  14.479  0.5368 -0.1505 -1.9248
  910TIP3    H224146   0.440   6.606  14.532  0.6457 -1.1015 -0.1565
  911TIP3   OH224147   5.232   5.821  11.034  0.2424  0.1122  0.0839
  911TIP3    H124148   5.160   5.766  11.000 -0.4815  0.7451  0.5691
  911TIP3    H224149   5.250   5.882  10.963 -0.7582  0.9453  0.5247
  912TIP3   OH224150   5.576   5.891  11.644 -0.7894  0.0705  0.0022
  912TIP3    H124151   5.593   5.806  11.602 -0.7816 -1.0985  2.2022
  912TIP3    H224152   5.527   5.868  11.724  0.0875  2.0487  1.1664
  913TIP3   OH224153   1.300   3.052   1.075  0.4204  0.0210 -0.0184
  913TIP3    H124154   1.233   2.984   1.085  0.2093  0.3525  0.9688
  913TIP3    H224155   1.299   3.074   0.982 -2.0956  1.2553  0.2124
  914TIP3   OH224156   4.331   3.328   6.271  0.1908 -0.1657 -0.0373
  914TIP3    H124157   4.319   3.257   6.333  2.7554 -2.2819 -1.7637
  914TIP3    H224158   4.388   3.391   6.316 -0.0883 -0.3957  0.6394
  915TIP3   OH224159   3.134   2.192  15.751 -0.0937 -0.1052  0.2002
  915TIP3    H124160   3.074   2.120  15.772  0.2610 -0.7585 -0.9452
  915TIP3    H224161   3.187   2.159  15.679  1.9125  0.3352  1.4181
  916TIP3   OH224162   5.156   3.762  16.420 -0.4429 -0.3733  0.3914
  916TIP3    H124163   5.226   3.708  16.384  0.9887 -0.1064  2.5917
  916TIP3    H224164   5.186   3.852  16.409 -0.5749 -0.2382  1.0602
  917TIP3   OH224165   1.002   3.271  13.023  0.8172 -0.2868  0.6690
  917TIP3    H124166   1.077   3.249  12.968  0.8669 -0.0818  0.6550
  917TIP3    H224167   1.035   3.338  13.083  0.2182  0.9832 -0.3829
  918TIP3   OH224168   2.056   5.240  15.741 -0.3770  0.0811 -0.9495
  918TIP3    H124169   2.141   5.207  15.770 -1.0695 -0.8319  0.1165
  918TIP3    H224170   2.054   5.331  15.771  0.8771  0.6692 -2.4615
  919TIP3   OH224171   4.144   3.821  16.591 -0.2434  0.7850 -0.3181
  919TIP3    H124172   4.220   3.803  16.536 -1.1642 -1.0110 -1.0791
  919TIP3    H224173   4.088   3.743  16.582 -1.2476  1.1828  1.7880
  920TIP3   OH224174   5.310   1.164  14.249 -0.2896 -0.4218  0.7711
  920TIP3    H124175   5.388   1.154  14.303  1.4193 -1.7833 -1.7460
  920TIP3    H224176   5.311   1.255  14.220  1.2105 -0.7410 -0.3074
  921TIP3   OH224177   5.088   0.983   1.582 -0.0359 -0.4574 -0.2425
  921TIP3    H124178   5.107   1.042   1.655 -0.8903  0.5866 -0.8249
  921TIP3    H224179   5.134   0.902   1.603  1.8164  0.6669  0.2312
  922TIP3   OH224180   3.788   0.336   0.554  0.5649 -0.0548 -0.0302
  922TIP3    H124181   3.778   0.268   0.488  1.2818 -1.1561  0.9692
  922TIP3    H224182   3.811   0.414   0.504 -1.1661 -0.2828 -1.2909
  923TIP3   OH224183   4.645   1.531   5.216  0.2817 -0.4564 -0.3986
  923TIP3    H124184   4.622   1.442   5.189  1.1011 -1.2140  1.2537
  923TIP3    H224185   4.741   1.531   5.221  0.2451  0.2558  0.4930
  924TIP3   OH224186   5.867   2.652   6.147  0.1515 -0.3648 -0.2425
  924TIP3    H124187   5.911   2.721   6.196 -2.1266  0.4231  0.8145
  924TIP3    H224188   5.873   2.575   6.203 -1.7655  0.3387  1.0454
  925TIP3   OH224189   2.004   3.222   0.531 -0.1303 -0.1907 -0.3314
  925TIP3    H124190   2.045   3.296   0.576  1.0233 -0.5098 -0.8053
  925TIP3    H224191   1.952   3.178   0.598  0.7186 -0.0551  0.4343
  926TIP3   OH224192   6.015   2.179  11.658  0.0668 -0.3633  0.1693
  926TIP3    H124193   6.061   2.251  11.615  0.7375 -0.3415  0.9000
  926TIP3    H224194   6.051   2.100  11.617 -0.1427 -0.3118 -0.1188
  927TIP3   OH224195   6.392   1.978  13.951 -0.4658  0.3734 -0.6782
  927TIP3    H124196   6.449   1.950  14.022 -0.8619 -0.0491 -0.5210
  927TIP3    H224197   6.424   2.065  13.927  1.7383 -0.7558 -2.1427
  928TIP3   OH224198   5.610   5.044   0.177 -0.3919  0.7486 -0.0537
  928TIP3    H124199   5.520   5.049   0.209 -1.6358  1.1254 -3.1842
  928TIP3    H224200   5.623   4.951   0.159 -0.5616  0.8198 -0.5649
  929TIP3   OH224201   0.589   2.439   1.296 -0.0767  0.7570  0.4055
  929TIP3    H124202   0.596   2.345   1.285  0.7237  0.7043  1.2392
  929TIP3    H224203   0.500   2.460   1.270 -0.1737 -0.1908 -0.0445
  930TIP3   OH224204   1.217   1.760   0.638  0.0717  0.0226 -0.0812
  930TIP3    H124205   1.149   1.726   0.580 -0.5787  0.3871  0.4547
  930TIP3    H224206   1.217   1.701   0.713 -0.7042  0.8787  0.6136
  931TIP3   OH224207   5.827   1.769   5.759  0.1753 -0.1737 -0.2744
  931TIP3    H124208   5.813   1.702   5.691  0.8495  0.1995 -0.7962
  931TIP3    H224209   5.853   1.847   5.710  2.3236 -0.3521  0.4948
  932TIP3   OH224210   3.106   0.005   2.054 -0.5804  0.1126 -0.4087
  932TIP3    H124211   3.156   0.087   2.060  0.6422 -0.6560  0.5193
  932TIP3    H224212   3.152  -0.046   1.987 -0.6508 -0.2547 -0.1804
  933TIP3   OH224213   1.043   1.371   3.892  0.0070  0.7880 -0.3711
  933TIP3    H124214   1.027   1.456   3.933 -2.3558 -0.1656  0.8484
  933TIP3    H224215   1.009   1.380   3.804 -0.1050  1.1450 -0.2936
  934TIP3   OH224216   4.426   1.107  15.438 -0.7314  0.5842  0.5550
  934TIP3    H124217   4.442   1.067  15.523  0.0444 -0.8875 -0.2351
  934TIP3    H224218   4.399   1.035  15.382  1.6248  0.9067 -1.1734
  935TIP3   OH224219   2.401   2.335   4.923  0.4731  0.1187 -0.5183
  935TIP3    H124220   2.408   2.399   4.852 -1.8959 -0.4982 -1.3863
  935TIP3    H224221   2.437   2.381   4.999 -0.2101  2.1537 -1.3272
  936TIP3   OH224222   1.902   0.834  15.243  0.3871 -0.1696 -0.3184
  936TIP3    H124223   1.973   0.895  15.263  0.8391 -1.0982  1.0253
  936TIP3    H224224   1.941   0.771  15.183  0.5606 -0.4042  0.0408
  937TIP3   OH224225   5.942   3.360  13.131 -0.2319 -0.1956  0.0343
  937TIP3    H124226   6.021   3.318  13.167 -0.7364 -1.6269 -0.4570
  937TIP3    H224227   5.976   3.429  13.074  0.6565 -0.4857  0.1963
  938TIP3   OH224228   2.493   3.987   0.731  0.3095  0.1369  0.1635
  938TIP3    H124229   2.510   4.010   0.639 -1.5252 -0.2097 -0.3035
  938TIP3    H224230   2.542   4.053   0.781  0.5059  0.9747 -1.0714
  939TIP3   OH224231   3.017   3.449  12.325  0.3927  0.9193 -0.2301
  939TIP3    H124232   3.106   3.481  12.339 -0.0229  1.3717  1.5344
  939TIP3    H224233   2.984   3.503  12.253  0.9089  2.0149  0.3369
  940TIP3   OH224234   1.090   3.187  15.503  0.7670 -0.5800 -0.2313
  940TIP3    H124235   1.132   3.217  15.583  0.7272  0.6201 -0.6432
  940TIP3    H224236   1.162   3.163  15.445  0.8074 -0.9882 -0.0161
  941TIP3   OH224237   1.377   6.556  13.474  0.1662  0.0711  0.6382
  941TIP3    H124238   1.382   6.645  13.508  0.2861  0.2626  0.1271
  941TIP3    H224239   1.460   6.516  13.502  0.1782  0.1644  0.7407
  942TIP3   OH224240   4.990   3.537   3.360 -0.2573 -0.3343  0.6005
  942TIP3    H124241   4.922   3.568   3.419  0.2514  1.6109  0.2486
  942TIP3    H224242   4.996   3.605   3.292  1.8466 -0.5642  0.4880
  943TIP3   OH224243   0.663   0.700   1.634  0.3001 -0.1009 -0.4416
  943TIP3    H124244   0.621   0.759   1.572 -0.8538 -0.3047  0.1278
  943TIP3    H224245   0.592   0.664   1.685  1.2396  0.3048  1.2340
  944TIP3   OH224246   4.587   0.298  13.071  0.0300  0.6803 -0.1915
  944TIP3    H124247   4.512   0.243  13.052  0.6007 -0.4831  0.8216
  944TIP3    H224248   4.663   0.242  13.057  0.6437  1.3236  0.4529
  945TIP3   OH224249   5.557   1.976   2.927 -0.3265  0.2613  0.0129
  945TIP3    H124250   5.568   1.897   2.873 -0.3032  1.9782 -2.6907
  945TIP3    H224251   5.636   1.980   2.980 -0.6553 -1.8819  0.7582
  946TIP3   OH224252   0.241   5.519  12.237  0.3801 -0.7370  0.2835
  946TIP3    H124253   0.288   5.584  12.185 -1.2557 -0.2165 -0.5909
  946TIP3    H224254   0.309   5.458  12.267  1.6308  0.1438 -0.7018
  947TIP3   OH224255   0.415   3.807   2.275 -0.2390 -0.0104  0.1948
  947TIP3    H124256   0.479   3.759   2.223  3.0981  1.3540  2.6966
  947TIP3    H224257   0.420   3.897   2.242  0.5924  0.4926  1.6124
  948TIP3   OH224258   1.772   0.063   3.191 -0.4422  0.6046 -0.3305
  948TIP3    H124259   1.716  -0.014   3.179 -0.5204  0.7249 -0.7476
  948TIP3    H224260   1.713   0.137   3.180 -0.1935  0.7332 -0.8089
  949TIP3   OH224261   3.201   1.341   0.898 -0.1632 -0.3042  0.6087
  949TIP3    H124262   3.185   1.250   0.872 -0.4545 -0.4949  1.4183
  949TIP3    H224263   3.296   1.350   0.898 -0.1335 -0.6177  0.5717
  950TIP3   OH224264   3.111   6.698   4.606  0.8784 -0.0691  0.6783
  950TIP3    H124265   3.098   6.770   4.668 -0.6391 -0.0107  0.3320
  950TIP3    H224266   3.147   6.740   4.528 -0.5299  0.4515  0.2704
  951TIP3   OH224267   6.457   5.480   3.380  0.3496  0.3935  0.1561
  951TIP3    H124268   6.415   5.402   3.342  1.8980 -0.7229  0.6478
  951TIP3    H224269   6.527   5.501   3.318  0.7275  0.6439  0.6701
  952TIP3   OH224270   1.960   2.549   1.425  0.6418  0.3345 -0.3652
  952TIP3    H124271   1.907   2.552   1.346 -0.2560  1.4126  0.2454
  952TIP3    H224272   2.041   2.592   1.402  1.6447 -2.0102 -1.5381
  953TIP3   OH224273   3.266   1.028   3.432  0.0898 -0.4181 -0.3505
  953TIP3    H124274   3.232   0.988   3.352  0.5575 -0.4901 -0.5138
  953TIP3    H224275   3.346   1.074   3.404  0.0102 -0.0655 -0.0107
  954TIP3   OH224276   1.305   5.103  15.264 -0.4498  0.1203  0.1102
  954TIP3    H124277   1.345   5.017  15.271 -0.1480  0.2821  0.3963
  954TIP3    H224278   1.257   5.100  15.181  1.6539  0.5440 -1.2035
  955TIP3   OH224279   3.883   5.768  17.083 -0.5842 -0.4941  0.3292
  955TIP3    H124280   3.860   5.745  16.993 -2.7593 -1.6273  1.0977
  955TIP3    H224281   3.864   5.690  17.134  2.2421 -0.4652  1.6074
  956TIP3   OH224282   6.462   0.766  12.390  0.3989  0.2188 -0.0032
  956TIP3    H124283   6.547   0.807  12.378 -0.2954  1.2073 -2.0092
  956TIP3    H224284   6.403   0.814  12.331 -1.5186 -0.5243  1.2063
  957TIP3   OH224285   0.802   4.770  15.881 -0.0920  0.0086  0.8924
  957TIP3    H124286   0.856   4.786  15.804  1.1359 -0.0445  1.7182
  957TIP3    H224287   0.811   4.676  15.898 -2.4101 -0.5264 -0.3571
  958TIP3   OH224288   6.104   2.745   3.104  0.5713  0.1143  0.5978
  958TIP3    H124289   6.054   2.664   3.112  1.0089 -0.0667  1.8029
  958TIP3    H224290   6.184   2.719   3.058 -0.0998  0.2619 -0.6930
  959TIP3   OH224291   0.352   4.700  14.665  0.0222  0.4713 -0.1791
  959TIP3    H124292   0.286   4.715  14.732  1.6762 -0.0221  1.6701
  959TIP3    H224293   0.396   4.784  14.655  1.0984  0.0683  0.9099
  960TIP3   OH224294   0.082   0.394   5.690  0.3204 -0.3987  0.3575
  960TIP3    H124295   0.055   0.432   5.774  2.0157 -2.1150  1.7654
  960TIP3    H224296   0.127   0.313   5.713  1.8938 -0.3567 -2.1276
  961TIP3   OH224297   4.816   4.304  16.887  0.1373 -0.1978 -0.1003
  961TIP3    H124298   4.900   4.258  16.890  0.7519  0.8899  1.4028
  961TIP3    H224299   4.825   4.365  16.814  0.7042 -0.0586  0.0743
  962TIP3   OH224300   4.558   1.852  14.378  0.2598 -0.1870 -0.1046
  962TIP3    H124301   4.589   1.943  14.382  0.4709 -0.1793 -1.4318
  962TIP3    H224302   4.616   1.805  14.437 -1.0342  0.8228  2.0889
  963TIP3   OH224303   5.990   4.211  13.783  0.1490 -0.1031  0.4036
  963TIP3    H124304   6.013   4.158  13.707 -0.4631  0.3085 -0.0786
  963TIP3    H224305   6.073   4.245  13.815  0.3157  0.5679 -0.7100
  964TIP3   OH224306   0.239   2.359   4.264  0.4823 -0.1713  0.4080
  964TIP3    H124307   0.327   2.390   4.243  0.2216 -0.3708 -1.0848
  964TIP3    H224308   0.251   2.266   4.285  0.5053 -0.4329 -0.7388
  965TIP3   OH224309   5.380   6.680   0.997 -0.0461 -0.1068 -0.1360
  965TIP3    H124310   5.353   6.683   1.089  1.3807 -1.3354  0.3582
  965TIP3    H224311   5.357   6.592   0.969  1.0364 -0.3028 -0.4507
  966TIP3   OH224312   4.322   4.038  15.838 -0.8700  0.0078  0.4689
  966TIP3    H124313   4.374   3.981  15.781  0.2636 -0.3624  1.8325
  966TIP3    H224314   4.277   4.097  15.778  1.0919  0.3143 -0.7877
  967TIP3   OH224315   2.776   5.782   4.825 -0.0964 -0.2339 -0.3944
  967TIP3    H124316   2.867   5.759   4.848  0.0972 -0.0721 -0.9791
  967TIP3    H224317   2.785   5.863   4.775 -0.7245  0.8928  1.2196
  968TIP3   OH224318   2.047   5.690   2.673  0.0562  0.1427 -0.4609
  968TIP3    H124319   2.055   5.784   2.659  0.9132  0.2696  0.6824
  968TIP3    H224320   1.958   5.678   2.706  0.6440  0.8818  1.5294
  969TIP3   OH224321   3.848   5.809  16.125  0.6163 -0.0458 -0.6217
  969TIP3    H124322   3.769   5.781  16.169  1.6258  0.3376  1.5682
  969TIP3    H224323   3.838   5.779  16.035 -2.2664  0.5643 -0.5763
  970TIP3   OH224324   6.091   4.345  12.365 -0.3585 -0.1213 -0.0328
  970TIP3    H124325   6.056   4.328  12.278  2.2059 -0.1046 -1.1557
  970TIP3    H224326   6.145   4.268  12.385  2.5348  1.6707 -0.4062
  971TIP3   OH224327   3.872   2.555  13.327  0.1557  0.4175  0.1380
  971TIP3    H124328   3.824   2.577  13.406  1.3436  1.6207  0.5632
  971TIP3    H224329   3.833   2.472  13.297 -0.5261  0.1062  1.7894
  972TIP3   OH224330   1.159   0.464  11.070  0.6182 -0.1576  0.0265
  972TIP3    H124331   1.071   0.503  11.068  0.5725 -0.2424  0.3346
  972TIP3    H224332   1.195   0.482  10.983 -0.4404 -1.8231 -0.8181
  973TIP3   OH224333   6.346   1.091  11.921  0.2425  0.7498 -0.3890
  973TIP3    H124334   6.272   1.124  11.972  0.5766 -1.0615  1.4120
  973TIP3    H224335   6.312   1.083  11.832 -1.3178  1.1942  0.1349
  974TIP3   OH224336   5.366   5.869   0.568  0.2970  0.1498 -0.6961
  974TIP3    H124337   5.451   5.853   0.527  1.4583 -0.9858  1.9371
  974TIP3    H224338   5.302   5.844   0.502  2.0416 -1.4003 -1.8820
  975TIP3   OH224339   6.462   3.247  16.586  0.0595  0.4307  0.3414
  975TIP3    H124340   6.486   3.279  16.673 -1.7745  0.2651  0.9651
  975TIP3    H224341   6.425   3.160  16.603 -0.8812  0.6463 -0.4987
  976TIP3   OH224342   6.669   3.293  11.153  0.1642 -0.2586  0.1486
  976TIP3    H124343   6.672   3.238  11.075  0.7660 -2.3896  1.5930
  976TIP3    H224344   6.759   3.291  11.187  0.0243  1.0262  0.6710
  977TIP3   OH224345   3.523   6.594  12.413 -0.5932  0.2595  0.7686
  977TIP3    H124346   3.498   6.533  12.344  2.0979  0.0957 -0.1792
  977TIP3    H224347   3.550   6.538  12.486 -1.6861  0.4140  1.3136
  978TIP3   OH224348   4.681   1.693   2.644  0.8242 -0.6490  0.4654
  978TIP3    H124349   4.619   1.767   2.639  0.4672 -0.8432  1.7535
  978TIP3    H224350   4.663   1.643   2.564  0.4546  0.1684  0.0110
  979TIP3   OH224351   2.810   1.110   0.157 -0.5703  0.2527  0.0281
  979TIP3    H124352   2.811   1.015   0.164  0.7302  0.3517  2.2455
  979TIP3    H224353   2.878   1.131   0.093 -0.7971 -0.2853 -0.3961
  980TIP3   OH224354   1.965   5.089   2.859 -0.0319  0.2680 -0.4096
  980TIP3    H124355   2.034   5.023   2.855  1.2284  1.5390 -0.4655
  980TIP3    H224356   1.954   5.117   2.768 -1.9195 -1.1560 -0.6830
  981TIP3   OH224357   6.589   5.133  14.316 -0.0233  0.6153  0.0572
  981TIP3    H124358   6.567   5.040  14.325 -0.8984  0.8295  0.2096
  981TIP3    H224359   6.607   5.144  14.223  0.2412  0.2621  0.0633
  982TIP3   OH224360   5.671   1.400  14.330 -0.1275 -0.0477  0.2598
  982TIP3    H124361   5.629   1.432  14.409  0.6764 -1.3910  1.2656
  982TIP3    H224362   5.645   1.307  14.325 -0.3265  0.0558 -1.1630
  983TIP3   OH224363   2.623   5.076  11.930 -0.2483  0.1671 -0.8190
  983TIP3    H124364   2.661   5.074  11.843  0.9167 -0.8287 -0.3163
  983TIP3    H224365   2.596   5.167  11.943  0.1298  0.4549 -1.9608
  984TIP3   OH224366   6.419   0.722   3.579  0.0875  0.1555  0.4999
  984TIP3    H124367   6.419   0.626   3.576  2.5796  0.0811 -2.4769
  984TIP3    H224368   6.447   0.743   3.668 -1.5872 -1.7641  1.5917
  985TIP3   OH224369   0.088   3.100   0.442 -0.0792 -0.3138  0.1580
  985TIP3    H124370   0.021   3.119   0.507  0.4940  0.1908  0.6065
  985TIP3    H224371   0.115   3.186   0.409  0.9758 -0.4527  0.6198
  986TIP3   OH224372   3.976   4.391  11.444  0.4110  0.8519 -0.3108
  986TIP3    H124373   3.999   4.298  11.440  1.8235  1.2092 -1.6386
  986TIP3    H224374   3.950   4.413  11.355  1.7270  2.0965 -0.4219
  987TIP3   OH224375   0.603   1.083  12.323  0.1532 -0.2413 -0.4330
  987TIP3    H124376   0.583   1.029  12.246  0.1103 -0.1255 -0.5034
  987TIP3    H224377   0.603   1.173  12.289  0.8009 -0.2374 -0.4424
  988TIP3   OH224378   3.823   6.386   0.929 -0.2907 -0.9989  0.0836
  988TIP3    H124379   3.811   6.480   0.942 -0.7194 -0.8258 -1.3706
  988TIP3    H224380   3.752   6.346   0.980 -0.5307 -0.4908  0.1584
  989TIP3   OH224381   3.773   2.632   2.991  0.2239 -0.0149 -0.7417
  989TIP3    H124382   3.712   2.559   2.981  0.3416 -0.1611 -0.4124
  989TIP3    H224383   3.723   2.709   2.965 -0.6591  0.0963  1.1344
  990TIP3   OH224384   5.471   4.985  12.152 -0.2161  0.6005  0.0626
  990TIP3    H124385   5.423   5.055  12.107  0.5513  1.2906  0.3005
  990TIP3    H224386   5.562   4.997  12.125  0.1941  0.7483  1.4338
  991TIP3   OH224387   3.019   2.661   1.322 -0.1623  0.2408  0.3409
  991TIP3    H124388   3.074   2.733   1.291  0.0988  0.1401  0.5634
  991TIP3    H224389   3.000   2.609   1.244  1.2572 -0.5291  0.4639
  992TIP3   OH224390   1.175   0.640  13.765  0.1382  0.1732 -0.3879
  992TIP3    H124391   1.098   0.584  13.766  0.7645 -0.7080 -0.1182
  992TIP3    H224392   1.217   0.621  13.681  0.5710 -0.0832 -0.1186
  993TIP3   OH224393   5.774   1.881   1.467 -0.6468  0.3102  0.0992
  993TIP3    H124394   5.683   1.866   1.442 -0.5861 -2.1724  1.0993
  993TIP3    H224395   5.779   1.856   1.559  1.1879 -0.3505 -0.1291
  994TIP3   OH224396   6.648   3.451  13.148 -0.1904  0.5160 -0.0613
  994TIP3    H124397   6.621   3.362  13.171 -0.5183  1.1447  2.2314
  994TIP3    H224398   6.592   3.475  13.075  0.5313 -1.4505 -1.3567
  995TIP3   OH224399   2.346   6.145   1.148  0.6016  0.3610 -0.0604
  995TIP3    H124400   2.337   6.052   1.167  0.6825  0.2688 -0.4512
  995TIP3    H224401   2.422   6.150   1.090 -0.2358  0.5011 -1.1898
  996TIP3   OH224402   2.137   3.709   0.970  0.5201  0.1345  0.0229
  996TIP3    H124403   2.164   3.796   1.000 -0.7916  0.2375  0.9993
  996TIP3    H224404   2.186   3.649   1.026 -0.2976  0.3031  0.9558
  997TIP3   OH224405   3.986   5.020  10.739 -0.0309  0.3065  0.6697
  997TIP3    H124406   3.920   5.044  10.804 -0.9151  2.0316 -0.7695
  997TIP3    H224407   3.939   4.973  10.671  0.6429 -0.3618  0.6471
  998TIP3   OH224408   6.398   3.857  16.589 -0.1359 -0.0295  0.0870
  998TIP3    H124409   6.386   3.886  16.498  1.7850 -0.4074 -0.3264
  998TIP3    H224410   6.316   3.881  16.632 -1.1284  0.1119 -1.7514
  999TIP3   OH224411   1.345   4.999   5.044 -0.1314 -0.3413 -0.4069
  999TIP3    H124412   1.257   5.027   5.021  0.0912 -0.8272 -1.9813
  999TIP3    H224413   1.390   5.079   5.071 -0.6142  0.1644 -1.0780
 1000TIP3   OH224414   1.748   2.003  12.982  0.0894  0.2998 -0.6990
 1000TIP3    H124415   1.695   1.934  12.942 -0.5469  0.1509  0.3422
 1000TIP3    H224416   1.737   2.079  12.926 -1.5491  0.3732 -0.3112
 1001TIP3   OH224417   0.709   5.449   3.766  0.2786  0.2024  0.2475
 1001TIP3    H124418   0.766   5.506   3.818 -0.0347 -1.6379  2.7993
 1001TIP3    H224419   0.635   5.430   3.824 -0.2542 -1.7367 -0.9766
 1002TIP3   OH224420   6.544   6.688  10.946  0.2054 -0.1875 -0.4113
 1002TIP3    H124421   6.510   6.769  10.984 -3.4940 -2.2695  1.2869
 1002TIP3    H224422   6.524   6.695  10.853  0.2032  0.9154 -0.3465
 1003TIP3   OH224423   6.448   6.227   2.153 -0.6928  0.2626  0.4069
 1003TIP3    H124424   6.409   6.145   2.122 -0.3007 -0.9676  2.9232
 1003TIP3    H224425   6.531   6.201   2.193 -1.3819  1.5450  2.9181
 1004TIP3   OH224426   1.755   4.620   0.931 -0.4501  0.1422 -0.4488
 1004TIP3    H124427   1.792   4.702   0.897  0.4672  0.5286  1.3930
 1004TIP3    H224428   1.662   4.640   0.942 -0.4045  0.6297 -0.8607
 1005TIP3   OH224429   1.060   3.716   1.464 -0.1217  0.6029 -0.0025
 1005TIP3    H124430   0.969   3.746   1.456 -0.5850 -0.2962  1.3939
 1005TIP3    H224431   1.054   3.636   1.517  1.3635 -0.2091 -0.9865
 1006TIP3   OH224432   6.267   1.196   0.991  0.1416 -0.5541  0.0240
 1006TIP3    H124433   6.239   1.280   0.955 -0.4586 -0.5299  0.5366
 1006TIP3    H224434   6.189   1.141   0.989  0.6358 -1.2661 -0.7422
 1007TIP3   OH224435   0.967   1.811  11.955 -0.2239 -0.1842 -0.2996
 1007TIP3    H124436   0.951   1.716  11.954 -2.4227  0.1226 -0.6338
 1007TIP3    H224437   0.986   1.833  11.864  1.8908 -0.4882  0.0283
 1008TIP3   OH224438   6.150   6.556   0.825  0.1261  0.2641  0.2993
 1008TIP3    H124439   6.106   6.511   0.897  0.2331  0.0157  0.2103
 1008TIP3    H224440   6.209   6.491   0.788  0.2500  0.4643  0.1402
 1009TIP3   OH224441   3.334   3.531   2.014  0.3310 -0.3078  0.3210
 1009TIP3    H124442   3.400   3.536   1.944 -0.8002  1.9929 -0.6914
 1009TIP3    H224443   3.377   3.570   2.090  0.1397  1.4253 -0.4054
 1010TIP3   OH224444   1.819   3.687   3.608  0.2607 -0.6489  0.2501
 1010TIP3    H124445   1.739   3.689   3.661  0.3728  0.3523  0.4131
 1010TIP3    H224446   1.800   3.627   3.537 -0.7893 -0.1228  0.0711
 1011TIP3   OH224447   0.012   3.556  13.673  0.1100 -0.1433  0.1941
 1011TIP3    H124448  -0.053   3.486  13.674 -1.7085  1.2938  4.8036
 1011TIP3    H224449  -0.016   3.613  13.601  0.3886 -2.8272 -2.2442
 1012TIP3   OH224450   2.364   2.553  17.049 -0.2985  0.5586 -0.2540
 1012TIP3    H124451   2.288   2.590  17.094 -0.0399 -0.6745  1.2925
 1012TIP3    H224452   2.439   2.588  17.097  0.1008  0.9729 -1.1484
 1013TIP3   OH224453   1.855   6.462  13.655 -0.0654  0.2469  0.5391
 1013TIP3    H124454   1.891   6.486  13.740  0.6843  0.9758  0.0318
 1013TIP3    H224455   1.835   6.369  13.663  0.5817  0.1668  1.3104
 1014TIP3   OH224456   0.471   4.714   1.654  0.3591 -0.0335 -0.3959
 1014TIP3    H124457   0.535   4.674   1.596 -0.0789 -0.3331 -0.6736
 1014TIP3    H224458   0.460   4.803   1.619  1.1374  0.2620  0.0690
 1015TIP3   OH224459   1.465   5.988  16.393  0.5328  0.0180  0.2465
 1015TIP3    H124460   1.373   5.991  16.366  0.6191  0.1175 -0.0352
 1015TIP3    H224461   1.475   6.062  16.453  0.4058 -0.0489  0.3509
 1016TIP3   OH224462   3.629   2.680   0.326  0.6264 -0.1417  0.0665
 1016TIP3    H124463   3.683   2.746   0.370 -1.0839  0.4379  1.4169
 1016TIP3    H224464   3.635   2.603   0.383  0.3313 -0.1913  0.0342
 1017TIP3   OH224465   2.276   5.077  12.862  0.0664  0.4414  0.6455
 1017TIP3    H124466   2.212   5.053  12.796 -1.2333 -0.1835  2.0852
 1017TIP3    H224467   2.269   5.172  12.868  0.0640  0.4859  0.0348
 1018TIP3   OH224468   2.661   0.442   2.566 -0.1183 -0.8997  0.6250
 1018TIP3    H124469   2.713   0.365   2.588  1.3808 -0.1197 -0.0344
 1018TIP3    H224470   2.634   0.427   2.475  3.2364  0.8656 -0.8283
 1019TIP3   OH224471   0.134   2.463  16.901  0.1703  0.5367 -0.0038
 1019TIP3    H124472   0.150   2.449  16.994 -1.2012 -0.4877  0.1052
 1019TIP3    H224473   0.117   2.376  16.866 -1.2967  1.0979 -0.7999
 1020TIP3   OH224474   3.647   3.727   5.280  0.6312 -0.3187 -0.5270
 1020TIP3    H124475   3.630   3.685   5.364  0.0643  0.1124 -0.4218
 1020TIP3    H224476   3.568   3.711   5.229  0.5418  0.3279 -0.5992
 1021TIP3   OH224477   2.370   0.658   6.305  0.1997 -0.5863  0.6431
 1021TIP3    H124478   2.440   0.625   6.249 -0.3459 -2.4115  0.9582
 1021TIP3    H224479   2.292   0.612   6.276 -0.7627  0.8862  0.7601
 1022TIP3   OH224480   0.696   1.189   2.677 -0.7418 -0.1458  0.6081
 1022TIP3    H124481   0.603   1.200   2.658 -1.0276 -0.8790  1.4750
 1022TIP3    H224482   0.715   1.254   2.744 -0.2774  0.9375 -0.5417
 1023TIP3   OH224483   0.996   1.514  11.563  0.1110 -0.4685 -0.6439
 1023TIP3    H124484   0.989   1.594  11.510 -1.5236  1.0617  1.6489
 1023TIP3    H224485   1.080   1.523  11.609 -0.3237  0.2799  0.0374
 1024TIP3   OH224486   0.399   0.727  12.589 -0.2207 -0.0458 -0.0066
 1024TIP3    H124487   0.382   0.720  12.683 -0.2301  0.7884  0.0650
 1024TIP3    H224488   0.367   0.645  12.552 -3.2012  0.8827  0.2874
 1025TIP3   OH224489   4.473   1.698  13.814  0.0033 -0.0362  0.3935
 1025TIP3    H124490   4.403   1.658  13.865 -0.8696 -1.2489 -1.6626
 1025TIP3    H224491   4.536   1.628  13.801 -0.7126 -0.3237 -1.7855
 1026TIP3   OH224492   2.883   4.263   1.924 -0.0257  0.1748 -0.0059
 1026TIP3    H124493   2.961   4.319   1.935 -0.7918  1.2402  0.2113
 1026TIP3    H224494   2.900   4.215   1.843  1.6477 -0.9846  0.9602
 1027TIP3   OH224495   4.423   1.255   0.406  0.0732  0.3706 -0.0934
 1027TIP3    H124496   4.474   1.321   0.360  1.1376 -0.2537  0.1650
 1027TIP3    H224497   4.399   1.296   0.489  1.4413  0.1557  0.4213
 1028TIP3   OH224498   2.102   1.036   5.926 -0.2352  0.3508  0.5865
 1028TIP3    H124499   2.103   1.094   5.849 -2.1126 -0.7480 -0.3517
 1028TIP3    H224500   2.103   1.095   6.001 -1.7725  1.6417 -0.3290
 1029TIP3   OH224501   4.089   1.484  13.853  0.2887 -0.1750  0.2446
 1029TIP3    H124502   4.029   1.527  13.793  2.9720  0.1192 -2.4665
 1029TIP3    H224503   4.160   1.546  13.865  2.5595 -2.3313 -0.9634
 1030TIP3   OH224504   0.729   2.487   0.622  0.0649  0.4391 -0.4425
 1030TIP3    H124505   0.775   2.408   0.593 -1.0693 -0.5964  0.4810
 1030TIP3    H224506   0.742   2.489   0.717 -0.6856  0.8460 -0.3367
 1031TIP3   OH224507   6.589   1.260  12.329 -0.8716  0.3633  0.3958
 1031TIP3    H124508   6.533   1.211  12.389 -0.8751 -1.3938 -0.9554
 1031TIP3    H224509   6.677   1.247  12.363 -1.0505  1.1471  1.1877
 1032TIP3   OH224510   6.420   0.590   5.280 -0.1576 -0.9386  0.1685
 1032TIP3    H124511   6.498   0.536   5.299  0.8194  1.0191  2.2343
 1032TIP3    H224512   6.390   0.559   5.195  3.7659 -0.8700 -1.4934
 1033TIP3   OH224513   2.357   3.187   4.662  0.5611 -0.0760  0.5209
 1033TIP3    H124514   2.440   3.145   4.684  0.1524 -0.2424  1.8410
 1033TIP3    H224515   2.342   3.248   4.735  0.5194  1.4584 -0.7136
 1034TIP3   OH224516   5.070   4.451  14.181 -0.1477  0.1697 -0.6475
 1034TIP3    H124517   4.996   4.511  14.177 -0.1087  0.2005 -0.9911
 1034TIP3    H224518   5.094   4.437  14.089  0.9069  0.9458 -0.4998
 1035TIP3   OH224519   5.306   2.042   1.737 -0.6719 -0.0121 -0.1761
 1035TIP3    H124520   5.353   1.986   1.676 -1.3936 -0.4675 -0.3329
 1035TIP3    H224521   5.370   2.107   1.765 -0.3110  0.1532 -1.3535
 1036TIP3   OH224522   5.618   6.106   5.358 -0.1666 -0.1297  0.2458
 1036TIP3    H124523   5.620   6.202   5.351 -1.9350  0.1082  2.0872
 1036TIP3    H224524   5.526   6.085   5.372  0.3303 -2.0119  0.9671
 1037TIP3   OH224525   6.672   3.674   2.753 -0.6436  0.1613 -0.0654
 1037TIP3    H124526   6.711   3.722   2.680  0.1131  0.1033  0.2798
 1037TIP3    H224527   6.728   3.597   2.763 -0.7503  0.1572  0.5519
 1038TIP3   OH224528   2.561   6.710  14.976 -0.3156  0.0420  0.5393
 1038TIP3    H124529   2.650   6.680  14.961 -0.6241 -1.2215  1.0732
 1038TIP3    H224530   2.510   6.672  14.904 -0.3601  1.0857  0.0128
 1039TIP3   OH224531   3.889   4.982   1.271 -0.3847  0.4993  0.1651
 1039TIP3    H124532   3.878   4.931   1.351 -1.7417 -1.3221 -1.1072
 1039TIP3    H224533   3.815   5.043   1.271 -1.2043 -0.4674 -0.3522
 1040TIP3   OH224534   3.374   6.655   0.475 -0.2333  0.0577 -0.3670
 1040TIP3    H124535   3.432   6.730   0.473  1.8467 -1.4397  0.1834
 1040TIP3    H224536   3.431   6.580   0.458 -1.8370 -1.5853  1.0513
 1041TIP3   OH224537   1.800   6.561  11.193 -0.0700  0.2077 -0.1843
 1041TIP3    H124538   1.852   6.620  11.247  0.0262  0.3772 -0.4641
 1041TIP3    H224539   1.861   6.492  11.167  0.5904  1.5098 -2.2707
 1042TIP3   OH224540   6.624   4.078  16.299 -0.6294  0.2266 -0.3151
 1042TIP3    H124541   6.551   4.110  16.352 -2.5341  0.5732 -2.9249
 1042TIP3    H224542   6.582   4.031  16.227  1.8999 -2.7767 -0.0297
 1043TIP3   OH224543   6.392   0.430  13.405  0.1124  0.2645  0.7867
 1043TIP3    H124544   6.422   0.353  13.358 -2.1020  0.0793 -0.4428
 1043TIP3    H224545   6.410   0.410  13.497  1.5994 -0.7404  0.3059
 1044TIP3   OH224546   1.412   6.752   4.040 -0.0465 -0.2740  0.4469
 1044TIP3    H124547   1.475   6.763   4.111 -0.5811 -0.8881  1.0290
 1044TIP3    H224548   1.329   6.783   4.075 -0.4361 -1.1090  0.2960
 1045TIP3   OH224549   4.917   0.979   3.933 -0.4390 -0.0907  0.3029
 1045TIP3    H124550   4.986   1.039   3.906 -0.2528 -0.5198 -0.2046
 1045TIP3    H224551   4.914   0.914   3.863 -2.2408  0.6287 -0.3578
 1046TIP3   OH224552   0.207   0.676  14.499  0.4234  0.0299  0.5275
 1046TIP3    H124553   0.280   0.649  14.555 -0.5134  1.8406  2.7843
 1046TIP3    H224554   0.137   0.614  14.520  0.2052  0.4585  1.1064
 1047TIP3   OH224555   3.968   3.707  15.211 -0.1168  0.1002  0.0925
 1047TIP3    H124556   3.964   3.770  15.139  0.5495 -4.0340 -4.0365
 1047TIP3    H224557   3.880   3.669  15.214  0.0616 -0.2597  0.9803
 1048TIP3   OH224558   0.251   2.669   1.979 -0.6947 -0.2879 -0.6093
 1048TIP3    H124559   0.335   2.627   1.963 -0.4370  0.0224 -0.0937
 1048TIP3    H224560   0.191   2.626   1.918 -0.3648 -1.1450 -0.3509
 1049TIP3   OH224561   6.642   5.028   4.057  0.0763 -0.2178  0.7613
 1049TIP3    H124562   6.648   4.974   4.135 -2.6682 -1.0524  0.5229
 1049TIP3    H224563   6.692   4.981   3.991 -0.6737 -1.5097  1.0743
 1050TIP3   OH224564   3.006   4.188   4.991  0.4086 -0.2320  0.0457
 1050TIP3    H124565   3.055   4.217   5.069  1.0812 -1.0819 -0.0444
 1050TIP3    H224566   3.037   4.246   4.921  0.6120 -0.1767  0.1802
 1051TIP3   OH224567   0.220   5.914   0.391  0.4070  0.2438 -0.1206
 1051TIP3    H124568   0.137   5.901   0.438  0.6305 -1.2067 -0.0841
 1051TIP3    H224569   0.214   6.003   0.356  0.0753  1.2759  2.3308
 1052TIP3   OH224570   5.406   4.903  16.263  0.2467  0.2745  0.3226
 1052TIP3    H124571   5.376   4.960  16.334  2.8171  2.1829  0.0292
 1052TIP3    H224572   5.328   4.888  16.210 -1.1320  1.0902  2.0089
 1053TIP3   OH224573   5.061   1.526  14.003  0.5869  0.5319  0.2053
 1053TIP3    H124574   4.971   1.499  14.019  1.3535 -1.2343  1.9925
 1053TIP3    H224575   5.060   1.564  13.915 -1.6305 -0.5850 -0.3139
 1054TIP3   OH224576   0.516   6.326  15.137 -0.3281 -0.4386 -0.1726
 1054TIP3    H124577   0.582   6.394  15.150 -1.9308  0.9987  1.1482
 1054TIP3    H224578   0.525   6.268  15.212  0.2217 -0.9854 -0.6485
 1055TIP3   OH224579   0.708   3.957   6.635  0.0937 -0.4603  0.7867
 1055TIP3    H124580   0.759   4.038   6.628  0.9769 -1.1200 -1.0559
 1055TIP3    H224581   0.773   3.889   6.655 -0.2747 -1.0682 -0.0223
 1056TIP3   OH224582   1.070   6.581  16.355  0.4760 -0.2712 -0.6338
 1056TIP3    H124583   1.064   6.637  16.432  2.3266 -0.9244  0.0271
 1056TIP3    H224584   0.978   6.564  16.331 -0.1223  1.3115  0.3815
 1057TIP3   OH224585   3.863   3.422  15.278  0.0376 -0.3010 -0.1659
 1057TIP3    H124586   3.867   3.373  15.360  0.1410  1.6146  1.0409
 1057TIP3    H224587   3.803   3.372  15.223 -1.1698 -0.9118  1.6032
 1058TIP3   OH224588   4.241   5.111  10.357 -0.0164 -0.2109 -0.2121
 1058TIP3    H124589   4.200   5.029  10.382 -0.7687  0.6175  1.3585
 1058TIP3    H224590   4.168   5.172  10.347  0.7035  0.9142  1.2011
 1059TIP3   OH224591   5.043   0.202  15.270 -0.4008  0.2634 -0.0850
 1059TIP3    H124592   5.054   0.271  15.204 -0.6701  1.1644  0.7939
 1059TIP3    H224593   4.948   0.196  15.282 -0.3697 -0.1654 -0.0538
 1060TIP3   OH224594   2.960   5.977   3.485 -0.5090  0.3296  0.3637
 1060TIP3    H124595   2.938   5.898   3.435 -1.1747  0.4328  0.4942
 1060TIP3    H224596   2.943   5.953   3.576  1.9856 -0.3290  0.7503
 1061TIP3   OH224597   1.917   4.686  13.472 -0.4001 -0.1901 -0.0898
 1061TIP3    H124598   1.879   4.767  13.437 -1.0063 -0.9616 -1.2834
 1061TIP3    H224599   1.927   4.704  13.565 -0.1725  1.3921 -0.3767
 1062TIP3   OH224600   0.669   6.026   0.933 -0.2602  0.1490 -0.1604
 1062TIP3    H124601   0.590   6.081   0.932  0.0347  0.6411  1.1373
 1062TIP3    H224602   0.728   6.070   0.994  1.0101 -0.2536 -1.0584
 1063TIP3   OH224603   6.423   3.519  10.541 -0.1919  0.4356  0.3444
 1063TIP3    H124604   6.497   3.575  10.566 -0.9054  1.1532  0.8896
 1063TIP3    H224605   6.355   3.539  10.606  0.0095 -2.1043  1.4878
 1064TIP3   OH224606   1.128   3.366  12.465  0.0258 -0.2277 -0.4136
 1064TIP3    H124607   1.060   3.307  12.432 -0.0464  0.0153 -0.6987
 1064TIP3    H224608   1.105   3.382  12.556 -0.2724 -0.1829 -0.4972
 1065TIP3   OH224609   6.141   4.288  11.925  0.5220  0.4840  0.4566
 1065TIP3    H124610   6.089   4.368  11.930  1.5824  1.5490 -2.8572
 1065TIP3    H224611   6.224   4.311  11.967  0.9783  1.3624 -0.8424
 1066TIP3   OH224612   5.748   6.789  17.058 -0.4091  0.5919  0.0992
 1066TIP3    H124613   5.770   6.881  17.070 -0.9433  0.8816 -0.9800
 1066TIP3    H224614   5.655   6.789  17.036 -0.6606 -0.3040  1.0935
 1067TIP3   OH224615   2.314   1.423  13.223  0.4819  0.7311 -0.2531
 1067TIP3    H124616   2.362   1.440  13.142  0.8049 -0.2925 -0.2893
 1067TIP3    H224617   2.223   1.447  13.203  0.1081 -1.6104 -1.6649
 1068TIP3   OH224618   3.984   0.576   1.344 -0.2505 -0.2112 -0.2727
 1068TIP3    H124619   3.914   0.632   1.378 -2.4180  0.0260 -4.4120
 1068TIP3    H224620   4.057   0.635   1.330 -0.9870  0.6713 -0.5112
 1069TIP3   OH224621   5.584   6.045   5.932 -0.3164  0.7328 -0.4401
 1069TIP3    H124622   5.625   5.997   6.004 -1.0866 -0.3635 -0.7047
 1069TIP3    H224623   5.649   6.111   5.908 -0.1687  1.3375  1.4413
 1070TIP3   OH224624   6.070   1.063  16.660  0.0100 -0.2058  0.1402
 1070TIP3    H124625   6.010   1.133  16.634  0.2580 -0.4432 -1.1866
 1070TIP3    H224626   6.111   1.095  16.740 -1.1042  0.4189  0.4908
 1071TIP3   OH224627   0.932   5.380   5.904  0.1080 -0.2720  0.8188
 1071TIP3    H124628   0.850   5.422   5.929 -0.6213 -0.9704 -0.3172
 1071TIP3    H224629   0.986   5.452   5.870 -1.9472 -0.3561 -3.2578
 1072TIP3   OH224630   0.578   2.493   0.104 -0.2339  0.6686 -0.0891
 1072TIP3    H124631   0.571   2.503   0.009  0.3292  1.6654 -0.0392
 1072TIP3    H224632   0.541   2.407   0.122  2.5559 -0.9762 -1.5715
 1073TIP3   OH224633   2.596   1.856   1.367  0.1320 -0.0491  0.4654
 1073TIP3    H124634   2.570   1.887   1.280  1.6131  0.9292  0.3352
 1073TIP3    H224635   2.514   1.831   1.409 -0.8577  1.5447 -0.4216
 1074TIP3   OH224636   1.316   1.855  15.943 -0.2858  0.3870 -0.3026
 1074TIP3    H124637   1.386   1.895  15.995  1.4462 -0.4033 -1.9085
 1074TIP3    H224638   1.240   1.911  15.959  1.1846  2.4185  0.0470
 1075TIP3   OH224639   0.947   4.028   1.200  0.6365 -0.7296  0.4753
 1075TIP3    H124640   0.992   4.079   1.267  1.7627 -2.7933  1.4091
 1075TIP3    H224641   0.855   4.051   1.210  1.1937  2.3685 -0.3664
 1076TIP3   OH224642   0.367   2.969  16.604  0.5927  0.1208 -0.4547
 1076TIP3    H124643   0.401   2.900  16.662 -0.2938  0.3293  0.3392
 1076TIP3    H224644   0.425   3.044  16.620 -0.0549  0.3967  0.7016
 1077TIP3   OH224645   6.487   4.468   3.382 -0.0036  0.1095  0.3925
 1077TIP3    H124646   6.453   4.379   3.374  0.8247 -0.1778 -0.1395
 1077TIP3    H224647   6.583   4.457   3.379  0.1920  1.3050 -3.8647
 1078TIP3   OH224648   0.532   3.336  16.251 -0.0749  0.1011  0.2097
 1078TIP3    H124649   0.525   3.334  16.346  1.0147  1.5231  0.3607
 1078TIP3    H224650   0.615   3.380  16.234 -1.1833  1.7466 -1.3916
 1079TIP3   OH224651   3.148   2.665   4.700  0.6907  0.1632 -0.0113
 1079TIP3    H124652   3.155   2.761   4.707 -0.1517  0.1288  2.3571
 1079TIP3    H224653   3.158   2.634   4.790 -0.0269 -1.9183 -0.5916
 1080TIP3   OH224654   1.848   4.112   1.248 -0.0316  0.0725 -0.0685
 1080TIP3    H124655   1.799   4.030   1.262 -0.4964  0.2907 -0.4006
 1080TIP3    H224656   1.940   4.085   1.253 -0.1697 -0.6345 -1.0728
 1081TIP3   OH224657   4.499   3.725  12.217  0.0857  0.3626 -0.4312
 1081TIP3    H124658   4.494   3.708  12.311  2.1314  0.3680 -0.2661
 1081TIP3    H224659   4.584   3.689  12.191 -0.5701  0.0851 -2.3488
 1082TIP3   OH224660   5.520   5.689   0.883 -0.4068  0.0139  0.3860
 1082TIP3    H124661   5.606   5.710   0.848  0.5319 -0.4209  2.3199
 1082TIP3    H224662   5.462   5.754   0.843  0.4654 -0.7037 -2.2241
 1083TIP3   OH224663   4.958   3.588   6.021  0.1386 -0.2736  0.0590
 1083TIP3    H124664   4.908   3.554   5.946 -0.2859 -2.2114  1.1672
 1083TIP3    H224665   4.933   3.532   6.094 -0.5612  2.4388  2.0448
 1084TIP3   OH224666   2.852   2.122   6.408 -0.1036 -0.2878 -0.2865
 1084TIP3    H124667   2.909   2.191   6.441 -1.9984  0.9032  0.6256
 1084TIP3    H224668   2.764   2.149   6.433 -0.8792 -3.3864  0.7414
 1085TIP3   OH224669   3.268   5.414   3.467 -0.1859  0.3146  0.3784
 1085TIP3    H124670   3.359   5.441   3.476 -0.4162  1.4434 -0.4152
 1085TIP3    H224671   3.267   5.354   3.393 -0.1070  0.3909  0.3158
 1086TIP3   OH224672   5.182   2.447  11.239 -0.1798 -0.1018  0.1659
 1086TIP3    H124673   5.129   2.390  11.184 -0.0340  0.3925 -0.4990
 1086TIP3    H224674   5.127   2.465  11.315 -0.5422 -0.4711 -0.0073
 1087TIP3   OH224675   4.957   1.098   4.780 -0.2671 -0.0005 -0.1682
 1087TIP3    H124676   5.011   1.152   4.838  0.8783 -0.4161 -0.8161
 1087TIP3    H224677   4.867   1.127   4.798  0.3297  2.8443 -1.1860
 1088TIP3   OH224678   6.504   2.708   5.192  0.2451  0.8508 -0.2791
 1088TIP3    H124679   6.566   2.735   5.259  1.4930 -0.3007 -0.9126
 1088TIP3    H224680   6.528   2.759   5.115  1.3754 -0.5873 -0.9310
 1089TIP3   OH224681   4.813   2.377  13.089  0.0318 -0.0325  0.0515
 1089TIP3    H124682   4.783   2.411  13.174  2.5341  0.7227  0.7312
 1089TIP3    H224683   4.907   2.365  13.100  0.1962 -1.3658 -2.1858
 1090TIP3   OH224684   5.792   0.096  13.204 -0.9655  0.5055 -0.1214
 1090TIP3    H124685   5.742   0.164  13.249  1.8798  2.5315  0.2397
 1090TIP3    H224686   5.882   0.128  13.204  0.0462 -1.9093 -2.6161
 1091TIP3   OH224687   5.738   2.368  12.475  0.2084 -0.5481  0.0008
 1091TIP3    H124688   5.789   2.312  12.534 -0.6172 -2.3987 -0.9503
 1091TIP3    H224689   5.791   2.372  12.396 -1.3224 -3.1334 -1.2852
 1092TIP3   OH224690   3.406   5.789  12.506 -0.6343 -0.4007 -0.1498
 1092TIP3    H124691   3.426   5.706  12.548  1.5293  0.0718 -0.0857
 1092TIP3    H224692   3.460   5.789  12.426  1.2869  1.8427  1.0121
 1093TIP3   OH224693   5.880   0.583  16.156  0.3830  0.2385  0.1531
 1093TIP3    H124694   5.884   0.594  16.061 -0.7589 -0.3961  0.0052
 1093TIP3    H224695   5.921   0.497  16.171 -0.7349 -0.3315  0.0546
 1094TIP3   OH224696   6.553   4.029   5.000  0.1257  0.2194 -0.0159
 1094TIP3    H124697   6.613   4.097   4.968 -0.2927  1.7102  2.1440
 1094TIP3    H224698   6.466   4.063   4.980 -0.0658 -0.6733 -0.7440
 1095TIP3   OH224699   3.916   2.354   1.099  0.5173  0.1826 -0.7175
 1095TIP3    H124700   3.871   2.438   1.101  0.8909  0.4335  2.5993
 1095TIP3    H224701   3.994   2.370   1.047  0.0316  1.5573 -1.0780
 1096TIP3   OH224702   6.616   3.305  15.837 -0.1403 -0.8318  0.2245
 1096TIP3    H124703   6.554   3.373  15.864 -0.3679 -0.9695  0.0535
 1096TIP3    H224704   6.677   3.298  15.910  0.9489  0.7984 -0.4859
 1097TIP3   OH224705   0.225   3.423  15.100  0.7753  0.5900  0.1121
 1097TIP3    H124706   0.304   3.469  15.070  0.8872 -0.4884 -1.3452
 1097TIP3    H224707   0.152   3.476  15.068  0.9075  0.5351 -0.2789
 1098TIP3   OH224708   2.755   1.724  15.573 -0.2417  0.0345 -0.3175
 1098TIP3    H124709   2.837   1.756  15.611 -0.6929  1.4210 -0.4435
 1098TIP3    H224710   2.781   1.654  15.514  1.1863  2.1235 -2.3604
 1099TIP3   OH224711   2.502   0.688  15.336 -0.6492  0.1913  0.2378
 1099TIP3    H124712   2.587   0.700  15.294 -0.3714 -0.1268  0.7037
 1099TIP3    H224713   2.497   0.758  15.401 -1.2265  0.8955 -0.5440
 1100TIP3   OH224714   1.837   3.880  15.418  0.4838 -0.0010 -0.4217
 1100TIP3    H124715   1.852   3.912  15.329  0.7629  0.5432 -0.1829
 1100TIP3    H224716   1.889   3.938  15.474  0.8170 -0.7349  0.0424
 1101TIP3   OH224717   5.237   2.707  15.108  1.2848 -0.3246  0.4214
 1101TIP3    H124718   5.188   2.784  15.078 -0.3844 -2.1050 -1.8025
 1101TIP3    H224719   5.327   2.725  15.081  1.3206  1.5806  1.5938
 1102TIP3   OH224720   4.186   4.207  12.928 -0.3347 -0.1424 -1.6932
 1102TIP3    H124721   4.225   4.201  13.015  0.3349  0.0515 -1.9680
 1102TIP3    H224722   4.261   4.198  12.868 -0.7391  0.0793 -2.2398
 1103TIP3   OH224723   1.220   0.173  15.047 -0.7067  0.4541  0.2988
 1103TIP3    H124724   1.241   0.224  15.126 -0.6721  1.6900 -0.4940
 1103TIP3    H224725   1.201   0.086  15.081 -0.3578  0.8655  1.6532
 1104TIP3   OH224726   1.277   6.490  15.842 -0.6105 -0.5354  0.3832
 1104TIP3    H124727   1.216   6.480  15.915 -0.7257 -0.9058  0.2384
 1104TIP3    H224728   1.292   6.401  15.812  2.3619 -0.8337  2.3406
 1105TIP3   OH224729   4.959   4.571  14.671  0.4813  0.6400 -0.0644
 1105TIP3    H124730   5.018   4.646  14.659  1.0464  0.1704 -0.2379
 1105TIP3    H224731   4.876   4.611  14.698  1.1615  1.2546  1.2416
 1106TIP3   OH224732   1.741   2.556   1.603 -0.2570 -0.3780 -0.2550
 1106TIP3    H124733   1.818   2.548   1.548 -0.7820  0.3613 -1.1137
 1106TIP3    H224734   1.751   2.640   1.647 -0.1887 -0.6422  0.2468
 1107TIP3   OH224735   2.575   0.178   6.155  0.5471  0.1706  0.0389
 1107TIP3    H124736   2.619   0.153   6.073  0.7515  0.0939  0.1722
 1107TIP3    H224737   2.493   0.218   6.126  1.0766  1.0781 -0.2540
 1108TIP3   OH224738   5.801   4.390   6.270 -0.6182 -0.1016  0.0460
 1108TIP3    H124739   5.841   4.459   6.217 -1.0551 -0.2884 -0.5389
 1108TIP3    H224740   5.707   4.406   6.264 -0.7554 -1.0336 -0.5107
 1109TIP3   OH224741   6.227   3.445   0.122 -0.4814  0.2543 -0.0074
 1109TIP3    H124742   6.202   3.445   0.030 -3.4270  0.9175  0.6702
 1109TIP3    H224743   6.171   3.377   0.161 -2.3450  2.7093  1.8993
 1110TIP3   OH224744   5.505   1.552   2.635  0.0231  0.1770  0.0447
 1110TIP3    H124745   5.457   1.479   2.596 -0.0704  0.1937  0.1260
 1110TIP3    H224746   5.565   1.582   2.566 -0.1829  0.2442 -0.1077
 1111TIP3   OH224747   4.567   6.451  11.818  0.5383  0.7249  0.2318
 1111TIP3    H124748   4.662   6.449  11.829  0.4919  0.4203  0.6116
 1111TIP3    H224749   4.554   6.492  11.733  1.2018 -2.9527 -1.8733
 1112TIP3   OH224750   6.413   6.302   5.256  0.4138  0.4614  0.2826
 1112TIP3    H124751   6.368   6.335   5.334  1.5095  1.5133  0.4874
 1112TIP3    H224752   6.428   6.209   5.276  1.5969  0.9381  1.7995
 1113TIP3   OH224753   6.263   3.768  15.272  0.5142 -0.2817 -0.2342
 1113TIP3    H124754   6.287   3.846  15.222  1.4898  1.9997  3.3806
 1113TIP3    H224755   6.343   3.715  15.275  1.0271  0.5051  0.3973
 1114TIP3   OH224756   2.189   5.776   5.528  0.3522  0.0003  0.4381
 1114TIP3    H124757   2.240   5.720   5.586  0.2985 -0.0527  0.4345
 1114TIP3    H224758   2.123   5.717   5.490  0.2740  0.0732  0.4610
 1115TIP3   OH224759   4.005   1.119  11.942 -0.2369  0.3740 -0.4284
 1115TIP3    H124760   3.932   1.129  11.882 -1.7515 -1.1726  1.0487
 1115TIP3    H224761   3.966   1.082  12.022  2.4676 -3.2095 -0.4882
 1116TIP3   OH224762   4.773   3.487  16.306 -0.1313  0.3286 -0.0014
 1116TIP3    H124763   4.730   3.436  16.238  0.2239  0.3067 -0.2139
 1116TIP3    H224764   4.838   3.427  16.343 -0.3929  0.3067  0.4269
 1117TIP3   OH224765   3.381   4.369   0.734  0.4516 -0.6092  0.2988
 1117TIP3    H124766   3.290   4.391   0.715  0.5811 -1.1690 -1.1079
 1117TIP3    H224767   3.398   4.410   0.818  0.2384  3.4889 -1.3969
 1118TIP3   OH224768   0.793   0.855   5.367  0.3598 -0.3038 -0.5582
 1118TIP3    H124769   0.707   0.896   5.362  0.3309 -0.3420 -0.3896
 1118TIP3    H224770   0.851   0.915   5.319  0.8198  1.3012  1.7949
 1119TIP3   OH224771   1.485   1.382   0.477 -0.2216 -0.3494  0.5518
 1119TIP3    H124772   1.404   1.333   0.463 -1.2070  1.6641 -1.1853
 1119TIP3    H224773   1.546   1.316   0.510 -2.1202 -2.2492  0.5134
 1120TIP3   OH224774   5.687   2.029  15.159 -0.5593 -1.0403  0.1959
 1120TIP3    H124775   5.612   2.009  15.215 -0.7229  1.4496  0.9450
 1120TIP3    H224776   5.750   2.071  15.217  1.0652 -2.2324 -0.6357
 1121TIP3   OH224777   4.915   2.768  12.191  0.8679 -0.2341  0.2183
 1121TIP3    H124778   4.828   2.808  12.195 -0.4426 -2.8950  0.9942
 1121TIP3    H224779   4.957   2.794  12.273  0.6676  0.7141  0.0359
 1122TIP3   OH224780   2.972   0.096  13.132 -0.3282 -0.3033 -0.2061
 1122TIP3    H124781   3.043   0.149  13.166  0.2165 -0.9651 -0.2853
 1122TIP3    H224782   2.926   0.152  13.070  1.2303 -0.4503 -1.5346
 1123TIP3   OH224783   6.565   4.562   2.623 -0.3465  0.7024 -0.0685
 1123TIP3    H124784   6.592   4.506   2.550 -0.1246  1.0884 -0.2830
 1123TIP3    H224785   6.597   4.515   2.701  0.8806  1.0994 -0.3112
 1124TIP3   OH224786   1.402   5.148  13.114  0.4372  0.0106  0.5399
 1124TIP3    H124787   1.433   5.105  13.035  0.1327  2.2335 -0.8807
 1124TIP3    H224788   1.307   5.138  13.112  0.2828  1.4496 -0.2782
 1125TIP3   OH224789   5.675   0.224  11.404  0.5677 -0.3218 -0.0913
 1125TIP3    H124790   5.593   0.197  11.364 -0.8388  1.4983  1.3669
 1125TIP3    H224791   5.719   0.142  11.427 -1.6105 -1.3770  0.5718
 1126TIP3   OH224792   3.851   2.732   4.788 -0.0578  0.3688 -0.3922
 1126TIP3    H124793   3.839   2.655   4.845  0.8524  0.5317  0.0301
 1126TIP3    H224794   3.795   2.799   4.828 -0.3396  0.1303 -0.3784
 1127TIP3   OH224795   4.696   0.323  17.109  0.0399  0.0911 -0.0766
 1127TIP3    H124796   4.608   0.286  17.098 -0.3313  0.8464  0.2595
 1127TIP3    H224797   4.714   0.366  17.025  2.0200 -3.8619 -1.9531
 1128TIP3   OH224798   2.971   0.825  15.471 -0.5971  0.6369 -0.3053
 1128TIP3    H124799   2.912   0.862  15.405  0.4027  0.6243 -1.2472
 1128TIP3    H224800   3.002   0.901  15.521 -3.4634  0.4260  2.0661
 1129TIP3   OH224801   6.226   2.187   1.403  0.1708  0.2398  0.1913
 1129TIP3    H124802   6.296   2.125   1.384 -2.3361 -3.5705  2.1260
 1129TIP3    H224803   6.165   2.179   1.330 -0.3217  0.1197  0.6046
 1130TIP3   OH224804   0.289   6.313  12.032  0.4348 -0.2642 -0.6002
 1130TIP3    H124805   0.313   6.259  11.957 -2.0931 -1.3695 -0.7034
 1130TIP3    H224806   0.217   6.368  12.000  1.3884  1.5162  0.1828
 1131TIP3   OH224807   2.324   1.414  14.997  0.5969 -0.2032  0.1727
 1131TIP3    H124808   2.352   1.383  14.912 -0.8110 -0.7194 -0.1278
 1131TIP3    H224809   2.376   1.493  15.012  1.1441 -0.3252 -0.9759
 1132TIP3   OH224810   0.250   4.639  16.456 -0.3597 -0.0072 -0.2517
 1132TIP3    H124811   0.331   4.682  16.427  0.1304 -0.1106  0.8837
 1132TIP3    H224812   0.260   4.549  16.427  1.2917 -0.7563  2.2314
 1133TIP3   OH224813   5.622   2.317   5.747  0.2881  0.4003  0.2410
 1133TIP3    H124814   5.641   2.382   5.814 -1.5287  0.4239  0.7761
 1133TIP3    H224815   5.581   2.245   5.794  3.3296 -1.7994 -0.1197
 1134TIP3   OH224816   4.678   1.777   2.306  0.2172  0.5316  0.1796
 1134TIP3    H124817   4.678   1.868   2.275 -0.8722  1.1427  1.7859
 1134TIP3    H224818   4.596   1.741   2.272  1.7035 -0.6299 -2.3830
 1135TIP3   OH224819   1.719   5.324  12.119 -0.1925 -0.4406  0.3085
 1135TIP3    H124820   1.671   5.243  12.133  0.2791 -0.4773  1.9050
 1135TIP3    H224821   1.783   5.303  12.051 -1.7335 -0.6622 -1.1333
 1136TIP3   OH224822   1.318   5.968   5.306  0.2941  0.3652  0.0665
 1136TIP3    H124823   1.256   5.898   5.284 -1.0905  1.2496  0.9738
 1136TIP3    H224824   1.298   6.038   5.245  0.7103  0.4918  0.0751
 1137TIP3   OH224825   3.415   5.882   4.718 -0.5979 -0.1263 -0.1437
 1137TIP3    H124826   3.432   5.942   4.645 -1.0319  0.5920  0.3324
 1137TIP3    H224827   3.479   5.812   4.706 -1.5100 -0.7144 -1.9612
 1138TIP3   OH224828   5.867   2.501  14.697 -0.3842  0.0367 -0.0311
 1138TIP3    H124829   5.854   2.416  14.656 -0.4533  0.4734 -0.9500
 1138TIP3    H224830   5.785   2.548  14.680 -1.2141 -0.4484  2.3559
 1139TIP3   OH224831   0.006   4.360   5.236 -0.2406 -0.0928 -0.3697
 1139TIP3    H124832  -0.002   4.317   5.321 -0.4899  2.1545  0.8130
 1139TIP3    H224833   0.088   4.409   5.241 -1.1198  1.4891 -0.6942
 1140TIP3   OH224834   3.674   3.389  16.717  0.0483 -0.0865  0.5107
 1140TIP3    H124835   3.733   3.350  16.653 -1.0930  1.0632 -1.3281
 1140TIP3    H224836   3.720   3.465  16.751  0.7718 -0.8614  1.3307
 1141TIP3   OH224837   6.134   1.592  14.499  0.2612 -0.0419  0.8924
 1141TIP3    H124838   6.133   1.547  14.415 -3.6510  0.1782  0.6239
 1141TIP3    H224839   6.142   1.522  14.564  0.1498 -0.5441  0.3688
 1142TIP3   OH224840   1.966   1.256   3.600  0.3183 -0.1512  0.1752
 1142TIP3    H124841   1.915   1.329   3.636 -0.7934 -0.3895 -0.8413
 1142TIP3    H224842   1.922   1.177   3.634  0.5473 -0.3572 -0.0006
 1143TIP3   OH224843   4.045   2.719  11.526 -0.4832 -0.2326 -0.1156
 1143TIP3    H124844   4.058   2.701  11.619 -0.5896  0.0104 -0.0523
 1143TIP3    H224845   4.036   2.814  11.521  0.5997 -0.1350 -0.5071
 1144TIP3   OH224846   5.090   3.771   4.221  0.1347  0.5119 -0.4148
 1144TIP3    H124847   5.098   3.718   4.301  1.4174  0.8571 -0.2957
 1144TIP3    H224848   5.075   3.707   4.151 -2.1137  0.2672  0.2004
 1145TIP3   OH224849   5.846   6.071   2.599  0.0010 -0.1322 -0.0720
 1145TIP3    H124850   5.801   6.079   2.683  1.2857 -0.1792  0.6491
 1145TIP3    H224851   5.868   5.978   2.592 -1.7534 -0.4882 -1.3726
 1146TIP3   OH224852   4.683   0.881   1.480  0.2100 -0.0658 -0.0906
 1146TIP3    H124853   4.717   0.960   1.522 -2.7934  1.4216 -0.1489
 1146TIP3    H224854   4.748   0.859   1.414  2.8386  0.2209  2.2269
 1147TIP3   OH224855   5.611   5.558  15.434  0.2299 -0.0492  0.0655
 1147TIP3    H124856   5.569   5.575  15.350 -0.5118 -1.7394  0.0452
 1147TIP3    H224857   5.648   5.470  15.424 -0.5320 -0.5972  1.7407
 1148TIP3   OH224858   4.358   1.768  16.403 -0.2456  0.0109 -0.0197
 1148TIP3    H124859   4.448   1.795  16.382  0.3361 -1.4113  0.5262
 1148TIP3    H224860   4.362   1.673  16.405 -2.0521 -0.1320 -1.1601
 1149TIP3   OH224861   0.954   6.173   3.080 -0.4965  0.2830 -0.1157
 1149TIP3    H124862   0.870   6.211   3.107  0.1695  0.1935  2.2567
 1149TIP3    H224863   0.991   6.239   3.021 -1.1710  1.4771  0.7294
 1150TIP3   OH224864   6.393   0.499   3.358  0.3179  0.5971  0.5570
 1150TIP3    H124865   6.370   0.592   3.352 -0.3428  0.3878 -0.5475
 1150TIP3    H224866   6.340   0.466   3.431  0.6369  1.1079  1.0219
 1151TIP3   OH224867   3.927   4.509  11.880  0.3149  0.3778  0.3131
 1151TIP3    H124868   4.020   4.507  11.903  0.7611  0.8222 -1.2901
 1151TIP3    H224869   3.887   4.569  11.942  1.1148  0.2792  0.9368
 1152TIP3   OH224870   3.357   3.092  12.995  0.4319  0.3032  0.4774
 1152TIP3    H124871   3.270   3.131  12.990  0.5589  0.5721  0.3292
 1152TIP3    H224872   3.362   3.055  13.083 -0.7305 -1.8509 -0.2879
 1153TIP3   OH224873   2.778   4.592   1.842 -0.1136 -0.4359 -0.3832
 1153TIP3    H124874   2.815   4.678   1.860 -0.9864 -0.4357  1.7115
 1153TIP3    H224875   2.825   4.533   1.901 -0.2325 -1.2273 -1.0580
 1154TIP3   OH224876   0.859   0.448   4.872 -0.0026 -0.0873 -0.8742
 1154TIP3    H124877   0.770   0.481   4.860  0.1383 -0.1537 -2.3034
 1154TIP3    H224878   0.865   0.373   4.813  0.1230 -1.8929  1.3203
 1155TIP3   OH224879   6.245   1.041   3.571 -0.0882 -0.0489 -0.0533
 1155TIP3    H124880   6.222   1.120   3.522  0.0543  0.0414  0.0246
 1155TIP3    H224881   6.337   1.025   3.548  0.0417  0.1106  0.3439
 1156TIP3   OH224882   3.913   2.736   5.790  0.5543 -0.2350  0.3579
 1156TIP3    H124883   3.835   2.779   5.825  1.1450 -0.0029  1.4659
 1156TIP3    H224884   3.887   2.644   5.780 -0.2022  0.0497 -0.4027
 1157TIP3   OH224885   6.051   6.240  15.655  0.3465 -0.3083  0.1444
 1157TIP3    H124886   6.041   6.330  15.686  0.5035 -0.4687  0.6793
 1157TIP3    H224887   6.141   6.216  15.677  0.3645 -0.5328 -0.1640
 1158TIP3   OH224888   1.654   5.774   4.252 -0.1449 -0.1165  0.6925
 1158TIP3    H124889   1.663   5.859   4.210  0.9929 -0.0813  0.9686
 1158TIP3    H224890   1.569   5.778   4.296  1.3976  2.3529  3.8736
 1159TIP3   OH224891   1.716   5.530  14.132  0.5870 -0.1828 -0.0464
 1159TIP3    H124892   1.695   5.453  14.079 -0.4801  0.5842 -0.7663
 1159TIP3    H224893   1.774   5.582  14.076  2.5778 -1.1320  1.0125
 1160TIP3   OH224894   5.179   2.983  14.326 -0.1895 -0.2005  0.3264
 1160TIP3    H124895   5.182   3.066  14.373 -1.2595  0.5446 -0.8779
 1160TIP3    H224896   5.098   2.941  14.355 -1.6517  0.9445 -1.8795
 1161TIP3   OH224897   1.336   5.704  13.123  1.0455 -0.5759 -0.2621
 1161TIP3    H124898   1.364   5.614  13.139  1.8537 -0.7425 -2.2980
 1161TIP3    H224899   1.333   5.711  13.027 -0.3209  1.1746 -0.1314
 1162TIP3   OH224900   1.586   6.785   0.299  0.3192 -0.4789 -0.5464
 1162TIP3    H124901   1.656   6.828   0.250 -0.2978  0.4452 -0.6452
 1162TIP3    H224902   1.557   6.851   0.362  1.7729 -1.9392  1.8229
 1163TIP3   OH224903   2.371   3.360   5.137  0.2928  0.5185 -0.4530
 1163TIP3    H124904   2.460   3.356   5.171  0.0373 -0.3983  0.1391
 1163TIP3    H224905   2.320   3.401   5.207 -0.0322 -0.3879 -0.1447
 1164TIP3   OH224906   1.535   1.154  16.982  0.4138 -0.1620 -0.0888
 1164TIP3    H124907   1.597   1.203  16.928  0.4085  0.1074  0.1472
 1164TIP3    H224908   1.590   1.110  17.047  0.3320  0.4416  0.4087
 1165TIP3   OH224909   6.557   5.429   5.569 -0.3090 -0.3120  0.1719
 1165TIP3    H124910   6.639   5.469   5.598 -0.2657 -0.9051  0.9082
 1165TIP3    H224911   6.542   5.358   5.632 -2.0439  0.5778  0.8158
 1166TIP3   OH224912   1.432   2.822   3.398  0.5905  0.6827  0.4333
 1166TIP3    H124913   1.383   2.882   3.454 -0.6400  1.1072 -1.0036
 1166TIP3    H224914   1.518   2.863   3.388  1.7795 -0.6252  3.9052
 1167TIP3   OH224915   2.196   0.351   5.579 -0.5071  1.1949  0.6983
 1167TIP3    H124916   2.104   0.371   5.597 -1.1615  0.2690 -1.3295
 1167TIP3    H224917   2.196   0.260   5.552  1.1722  0.9183  1.5133
 1168TIP3   OH224918   2.613   5.996  12.388 -0.0325  0.1887 -0.3575
 1168TIP3    H124919   2.702   5.961  12.395 -0.5655 -1.0977  0.3221
 1168TIP3    H224920   2.592   5.990  12.294  0.7575  0.9548 -0.5938
 1169TIP3   OH224921   4.915   3.492   1.432  0.4001 -0.8367 -0.3734
 1169TIP3    H124922   4.880   3.575   1.398  2.0634  0.2230  0.3450
 1169TIP3    H224923   4.838   3.437   1.446 -0.7759  0.6593 -0.6832
 1170TIP3   OH224924   5.057   0.913   4.267 -0.2694  0.1249  0.3535
 1170TIP3    H124925   4.965   0.936   4.254 -0.2650  0.1266  0.3255
 1170TIP3    H224926   5.085   0.880   4.182 -0.5469 -0.8961  0.6385
 1171TIP3   OH224927   6.318   0.176  11.736 -0.9895 -0.6026 -0.1539
 1171TIP3    H124928   6.411   0.195  11.745 -1.1828 -0.5774  2.9799
 1171TIP3    H224929   6.291   0.222  11.656  1.0681  1.8736  0.4509
 1172TIP3   OH224930   3.710   3.101  16.810 -0.0488 -0.7033 -0.1489
 1172TIP3    H124931   3.782   3.123  16.751 -0.3643  0.3234 -0.1747
 1172TIP3    H224932   3.644   3.169  16.793 -1.0702 -1.6930 -0.2141
 1173TIP3   OH224933   5.912   5.810   5.075 -0.0993 -0.1780  0.0587
 1173TIP3    H124934   5.987   5.868   5.064 -0.2840 -0.1247 -0.9618
 1173TIP3    H224935   5.951   5.722   5.080  0.2920  0.0490  2.8343
 1174TIP3   OH224936   6.751   3.546   5.888 -0.2121  0.2473 -0.2747
 1174TIP3    H124937   6.693   3.477   5.921  0.0770 -0.4141 -1.1053
 1174TIP3    H224938   6.747   3.615   5.955 -0.4543 -0.6017  0.6115
 1175TIP3   OH224939   2.540   3.017   4.029  0.4679  0.6273  0.1633
 1175TIP3    H124940   2.583   3.044   4.110 -1.6610  2.5299  0.7784
 1175TIP3    H224941   2.450   3.048   4.038 -0.3068 -0.6396 -2.2217
 1176TIP3   OH224942   3.993   2.809   1.061 -0.6952  0.6209 -0.9091
 1176TIP3    H124943   4.059   2.740   1.050 -0.3000  0.6601  0.8890
 1176TIP3    H224944   4.027   2.883   1.011 -0.0910  0.1684 -1.1796
 1177TIP3   OH224945   0.415   3.082  11.995 -0.3335  0.4009 -0.6466
 1177TIP3    H124946   0.393   3.027  12.071 -0.1988  2.4662  0.9807
 1177TIP3    H224947   0.367   3.042  11.922 -3.3336  0.2718  1.2028
 1178TIP3   OH224948   2.969   0.439   1.222 -0.6591 -0.0453 -0.3047
 1178TIP3    H124949   2.995   0.361   1.271 -0.4173 -2.4929 -3.9112
 1178TIP3    H224950   3.032   0.443   1.150  0.8561  5.0381  0.8907
 1179TIP3   OH224951   2.338   5.637   2.645  0.3372 -0.0271 -0.4393
 1179TIP3    H124952   2.386   5.635   2.728 -0.4166 -0.0292  0.0054
 1179TIP3    H224953   2.246   5.641   2.671  0.1667  2.7205 -1.2543
 1180TIP3   OH224954   3.638   0.901   2.983 -0.1151  0.2268 -0.2447
 1180TIP3    H124955   3.682   0.963   2.925 -1.0645 -0.1697 -1.4213
 1180TIP3    H224956   3.602   0.835   2.924 -0.1016 -0.8289  0.8987
 1181TIP3   OH224957   3.864   2.643   4.535  0.4728  0.0133  0.0731
 1181TIP3    H124958   3.836   2.719   4.586  1.0930  0.8736 -0.8481
 1181TIP3    H224959   3.868   2.572   4.600  1.5235  1.1409  1.2943
 1182TIP3   OH224960   4.097   4.339  16.523  0.1107  0.0031  0.0041
 1182TIP3    H124961   4.176   4.305  16.481 -0.8687  1.0910 -2.9499
 1182TIP3    H224962   4.113   4.433  16.532 -0.8859  0.2579 -0.7753
 1183TIP3   OH224963   0.828   4.383  11.926  0.4333 -0.3296  0.0115
 1183TIP3    H124964   0.758   4.332  11.967  0.2944  1.2152  1.8140
 1183TIP3    H224965   0.783   4.443  11.867  0.1500  0.8981  1.4239
 1184TIP3   OH224966   0.907   6.222  17.240  0.6277  0.0811  0.0808
 1184TIP3    H124967   0.819   6.186  17.245  0.8281 -1.5483 -4.0293
 1184TIP3    H224968   0.964   6.151  17.272  0.6316 -0.7825 -1.7255
 1185TIP3   OH224969   1.741   6.758   3.813 -0.2949  0.2868  0.3668
 1185TIP3    H124970   1.656   6.779   3.776  0.0980  1.9521  0.3638
 1185TIP3    H224971   1.764   6.673   3.774 -1.0042  0.8110 -1.2695
 1186TIP3   OH224972   6.036   5.284  11.910  0.2750  0.0989 -0.3274
 1186TIP3    H124973   6.032   5.377  11.887  3.0918  0.2912 -0.4258
 1186TIP3    H224974   6.094   5.246  11.844 -1.7552 -2.0212 -1.0017
 1187TIP3   OH224975   5.317   5.887  10.586  0.3684 -0.2474 -0.7957
 1187TIP3    H124976   5.337   5.979  10.570 -0.7287  0.1808  0.1794
 1187TIP3    H224977   5.401   5.842  10.571  1.3487  1.1096  0.3254
 1188TIP3   OH224978   5.837   2.418  13.244  0.1197 -0.4370 -0.4942
 1188TIP3    H124979   5.878   2.385  13.323 -1.6692 -0.2947  0.5325
 1188TIP3    H224980   5.821   2.511  13.262 -1.5680 -0.7057 -0.4183
 1189TIP3   OH224981   4.746   3.016   2.256  0.2423 -0.2434 -0.5869
 1189TIP3    H124982   4.711   3.099   2.224 -0.5415 -0.8670 -1.3828
 1189TIP3    H224983   4.756   3.029   2.351  1.5453  1.2460 -0.8743
 1190TIP3   OH224984   6.039   1.331  12.233  0.1837  0.2486 -0.1621
 1190TIP3    H124985   6.024   1.248  12.278 -0.0162 -1.4006 -2.9857
 1190TIP3    H224986   6.075   1.305  12.148  1.2084  3.1543 -0.7262
 1191TIP3   OH224987   0.687   0.274  15.978  0.2923 -0.5300  0.0118
 1191TIP3    H124988   0.668   0.368  15.983  0.3138 -0.5241 -0.0178
 1191TIP3    H224989   0.712   0.250  16.067 -0.2322 -0.6212  0.1375
 1192TIP3   OH224990   4.209   2.133   2.001 -0.2687 -0.8112  0.5812
 1192TIP3    H124991   4.212   2.228   1.988 -0.0076 -0.5356  2.3086
 1192TIP3    H224992   4.299   2.110   2.025 -0.4435 -1.4149  0.6664
 1193TIP3   OH224993   5.858   4.510  12.269 -0.1604 -0.3300 -0.0988
 1193TIP3    H124994   5.820   4.452  12.203  1.0551 -0.2055 -0.9384
 1193TIP3    H224995   5.858   4.596  12.228  1.8753 -0.4877 -0.5249
 1194TIP3   OH224996   3.803   4.650  12.062  0.2030 -0.0328 -0.3658
 1194TIP3    H124997   3.826   4.619  12.150 -0.9670  1.1811  0.4122
 1194TIP3    H224998   3.707   4.645  12.059  0.2846 -2.7462 -2.6413
 1195TIP3   OH224999   5.298   4.002  11.237  0.0776  0.5248 -0.5096
 1195TIP3    H125000   5.284   3.982  11.330  1.3509 -0.2040 -0.4436
 1195TIP3    H225001   5.222   3.966  11.192  0.0143 -0.1603  0.1334
 1196TIP3   OH225002   3.071   0.263   1.430 -0.6893 -0.7357 -0.6116
 1196TIP3    H125003   3.093   0.333   1.491  0.4168 -0.4957 -1.2608
 1196TIP3    H225004   3.036   0.193   1.485 -1.1067  0.0276  0.1240
 1197TIP3   OH225005   3.927   2.745   5.384 -1.0808  0.3396 -0.4310
 1197TIP3    H125006   3.881   2.802   5.446 -1.6399  1.1383 -1.5401
 1197TIP3    H225007   3.994   2.701   5.437 -1.4223  1.1187  0.6964
 1198TIP3   OH225008   5.096   0.872   0.713  0.8856  0.4595 -0.2256
 1198TIP3    H125009   5.087   0.828   0.629 -0.0815  1.8002 -0.8484
 1198TIP3    H225010   5.171   0.830   0.754  0.6000 -1.0763 -1.2097
 1199TIP3   OH225011   5.375   0.989   3.618 -0.1072 -1.0928  0.6327
 1199TIP3    H125012   5.458   1.025   3.586  0.0503  1.4549  3.4179
 1199TIP3    H225013   5.309   1.027   3.560  0.4194  0.1132  0.7880
 1200TIP3   OH225014   1.063   3.758  12.027  0.4264  0.5721 -0.5241
 1200TIP3    H125015   1.107   3.778  11.945  1.4008  0.9639  0.0803
 1200TIP3    H225016   1.116   3.690  12.068 -0.8322 -0.6502 -0.8543
 1201TIP3   OH225017   6.069   4.323  13.159  0.2267  0.0924 -0.0849
 1201TIP3    H125018   6.102   4.241  13.197  0.5682  0.2035 -0.1391
 1201TIP3    H225019   6.050   4.378  13.235  0.5729  0.1837 -0.0611
 1202TIP3   OH225020   1.140   6.463  16.688  0.1798  0.3512 -0.0605
 1202TIP3    H125021   1.110   6.398  16.625 -0.5837  0.2044  0.4555
 1202TIP3    H225022   1.163   6.539  16.633  1.3621 -0.4183 -0.6923
 1203TIP3   OH225023   1.299   6.427  15.444 -0.1431 -0.1922  0.2398
 1203TIP3    H125024   1.370   6.486  15.470 -0.6392  0.1595  0.8334
 1203TIP3    H225025   1.344   6.348  15.412  0.5150 -0.3854  1.5517
 1204TIP3   OH225026   5.253   0.691   3.079  0.5916  0.1518 -0.2870
 1204TIP3    H125027   5.251   0.712   3.173 -2.3257 -0.0114 -0.2051
 1204TIP3    H225028   5.345   0.681   3.058  1.4917  2.4707  2.0536
 1205TIP3   OH225029   5.847   3.105   4.559 -0.7145  0.5148  0.3283
 1205TIP3    H125030   5.878   3.125   4.647 -0.2728  0.1879  0.2454
 1205TIP3    H225031   5.912   3.045   4.523 -0.4628  1.2850 -0.5240
 1206TIP3   OH225032   4.808   3.016   0.554 -0.1998 -0.1146  0.3083
 1206TIP3    H125033   4.725   3.006   0.602 -2.4014 -2.6044 -3.4732
 1206TIP3    H225034   4.808   3.108   0.527 -2.5300 -0.3154 -0.6711
 1207TIP3   OH225035   1.211   0.677  11.593 -0.0129 -0.0172 -0.0360
 1207TIP3    H125036   1.148   0.620  11.548 -0.5846  0.0406  0.6712
 1207TIP3    H225037   1.212   0.757  11.542  0.1156 -0.3265 -0.5260
 1208TIP3   OH225038   1.407   0.309  16.649 -0.2343 -0.2840  0.3649
 1208TIP3    H125039   1.427   0.253  16.574 -2.2113 -0.8437  0.1895
 1208TIP3    H225040   1.378   0.248  16.717 -1.6178  0.4191  0.4506
 1209TIP3   OH225041   5.848   4.690  15.853  0.3158 -0.3658  0.8404
 1209TIP3    H125042   5.823   4.616  15.797 -0.7701 -0.2066  1.1043
 1209TIP3    H225043   5.938   4.670  15.879  0.1333 -1.4614  0.6822
 1210TIP3   OH225044   4.152   3.801   1.614  0.2454  0.0622  0.1169
 1210TIP3    H125045   4.229   3.791   1.671  2.2927  2.9878 -1.8329
 1210TIP3    H225046   4.090   3.852   1.667  0.3498 -0.7805  1.0867
 1211TIP3   OH225047   0.793   3.583   1.290 -0.0486 -0.3665 -0.0283
 1211TIP3    H125048   0.791   3.666   1.337  0.1288 -1.0706  1.2643
 1211TIP3    H225049   0.857   3.597   1.221  1.1866  0.0791  1.1606
 1212TIP3   OH225050   3.725   0.296  13.377 -0.6547 -0.2285 -0.7161
 1212TIP3    H125051   3.654   0.234  13.395 -0.6501  0.0833  0.5252
 1212TIP3    H225052   3.767   0.264  13.298 -1.2816 -1.2321 -0.6521
 1213TIP3   OH225053   6.022   5.043  12.817 -0.4741 -0.3040  0.3290
 1213TIP3    H125054   5.929   5.067  12.811  0.1451  2.1341 -1.0695
 1213TIP3    H225055   6.064   5.118  12.858  1.0001 -1.0054  0.1794
 1214TIP3   OH225056   0.822   0.682   1.089  0.7280  0.0338 -0.4038
 1214TIP3    H125057   0.896   0.734   1.058  1.1743  0.3994  1.1751
 1214TIP3    H225058   0.766   0.744   1.136 -2.2585  0.4423 -4.0529
 1215TIP3   OH225059   2.612   4.120  10.683 -0.1266 -0.1284 -0.3984
 1215TIP3    H125060   2.532   4.076  10.713  0.8802 -2.5717 -1.0464
 1215TIP3    H225061   2.645   4.064  10.612  2.6491  0.2961  0.4537
 1216TIP3   OH225062   1.538   0.223   0.762  0.0477 -0.4543  0.0292
 1216TIP3    H125063   1.560   0.312   0.734 -1.4023  0.5580  1.8101
 1216TIP3    H225064   1.565   0.219   0.854  0.2857 -1.9358 -0.0770
 1217TIP3   OH225065   0.105   1.449  14.607 -0.0900 -0.2723  0.1241
 1217TIP3    H125066   0.180   1.486  14.653 -2.0102 -0.0117  3.3996
 1217TIP3    H225067   0.136   1.366  14.571  2.3502  1.0022 -0.9212
 1218TIP3   OH225068   0.388   0.752   1.055 -0.2740  0.2505 -0.3568
 1218TIP3    H125069   0.446   0.751   1.131 -2.1264  0.6722  1.1443
 1218TIP3    H225070   0.396   0.664   1.018  0.4691 -0.0513  0.4820
 1219TIP3   OH225071   0.743   5.035   1.825 -0.4500  0.7770  0.3025
 1219TIP3    H125072   0.722   5.072   1.911 -1.7249 -0.4482  0.5515
 1219TIP3    H225073   0.682   5.077   1.765 -0.6815  0.4338  0.2902
 1220TIP3   OH225074   2.940   5.456  13.699  0.5011  0.2704  0.3709
 1220TIP3    H125075   2.900   5.375  13.731 -0.3682  0.1315 -0.9921
 1220TIP3    H225076   2.867   5.516  13.687  0.9191  0.6448 -0.3584
 1221TIP3   OH225077   5.540   1.882   3.606  0.0157 -0.3479 -0.5100
 1221TIP3    H125078   5.513   1.909   3.518  0.3563 -1.3200 -0.9352
 1221TIP3    H225079   5.601   1.950   3.634 -1.2827  0.7851 -0.3805
 1222TIP3   OH225080   3.835   3.238  11.088  0.2770  0.1860 -0.0279
 1222TIP3    H125081   3.810   3.169  11.027  0.8271 -0.2741  0.2531
 1222TIP3    H225082   3.865   3.310  11.032 -1.2220  0.5859 -0.3553
 1223TIP3   OH225083   4.691   5.040  11.475 -0.2804 -0.9088 -0.7409
 1223TIP3    H125084   4.665   5.006  11.561 -0.3400  1.0329  0.0464
 1223TIP3    H225085   4.747   5.115  11.494 -1.1806  0.2476 -2.3652
 1224TIP3   OH225086   1.308   5.413  15.172  0.4356 -0.3414  0.0962
 1224TIP3    H125087   1.366   5.407  15.096  0.3206  1.2586 -0.1460
 1224TIP3    H225088   1.363   5.385  15.246  1.9546  2.1887  0.0559
 1225TIP3   OH225089   1.948   0.279   0.172  0.2873 -0.3232 -0.4037
 1225TIP3    H125090   1.950   0.373   0.153  1.0612  0.0273  1.2189
 1225TIP3    H225091   2.029   0.262   0.220 -0.5346 -1.5096  0.6484
 1226TIP3   OH225092   4.962   3.075  13.001 -0.1994  0.2762  0.1841
 1226TIP3    H125093   4.883   3.128  13.005 -0.0928  0.4673 -0.1959
 1226TIP3    H225094   4.968   3.046  12.909 -0.4086 -0.6303  0.4433
 1227TIP3   OH225095   3.072   0.418  10.621 -0.3500  0.1667 -0.2871
 1227TIP3    H125096   3.099   0.344  10.568 -0.2136  0.1698 -0.2209
 1227TIP3    H225097   3.048   0.486  10.558  0.3665  0.3736 -0.3430
 1228TIP3   OH225098   3.095   0.571  17.181  0.0775 -0.3155  0.8964
 1228TIP3    H125099   3.188   0.550  17.192 -0.6047 -3.0285  2.5880
 1228TIP3    H225100   3.052   0.526  17.254 -2.6939 -0.2032 -0.5594
 1229TIP3   OH225101   4.440   0.146   4.079 -0.4978 -0.0139  0.1376
 1229TIP3    H125102   4.455   0.240   4.072 -0.1886 -0.1866 -2.9047
 1229TIP3    H225103   4.525   0.110   4.104  0.1151  0.3473 -1.3117
 1230TIP3   OH225104   1.519   3.993   2.201 -0.5972 -0.0943  0.0906
 1230TIP3    H125105   1.568   4.035   2.130  1.6700 -0.9442  1.0543
 1230TIP3    H225106   1.451   3.943   2.156 -0.1002  0.4841 -1.3892
 1231TIP3   OH225107   5.006   1.496  16.728 -0.5107 -0.6729  0.2145
 1231TIP3    H125108   4.926   1.443  16.717  0.2145 -1.4504 -1.7682
 1231TIP3    H225109   5.072   1.433  16.757 -0.1068 -0.4618 -0.2534
 1232TIP3   OH225110   5.717   2.743   1.455 -0.1424  0.0909  0.5252
 1232TIP3    H125111   5.768   2.744   1.374 -1.1634 -0.4216 -0.1326
 1232TIP3    H225112   5.653   2.673   1.443 -1.1157  0.8226  1.2710
 1233TIP3   OH225113   5.282   2.559  16.103  0.3336 -0.2901 -0.8582
 1233TIP3    H125114   5.281   2.464  16.091 -0.0201 -0.3652 -0.2857
 1233TIP3    H225115   5.365   2.578  16.147 -1.0507 -0.7877  2.2741
 1234TIP3   OH225116   1.003   0.525   2.105 -0.4331 -0.2970 -0.2350
 1234TIP3    H125117   1.029   0.447   2.154 -0.5664 -1.3442 -1.7652
 1234TIP3    H225118   1.082   0.550   2.057 -0.1976  0.9327  0.7584
 1235TIP3   OH225119   2.772   4.728   3.924  0.0119 -0.4766  0.0466
 1235TIP3    H125120   2.716   4.676   3.867 -0.4409  0.3459 -0.2732
 1235TIP3    H225121   2.734   4.816   3.922  1.6543  0.2601 -0.6824
 1236TIP3   OH225122   6.509   1.055   5.585  0.2936  0.6761  0.5104
 1236TIP3    H125123   6.462   1.005   5.652  0.6854  0.1284  0.3862
 1236TIP3    H225124   6.441   1.101   5.537 -0.1606 -0.3856  0.1052
 1237TIP3   OH225125   0.719   3.995  12.364 -0.3156 -0.1863  0.0058
 1237TIP3    H125126   0.659   3.922  12.377  0.9025 -1.1453  0.4259
 1237TIP3    H225127   0.789   3.960  12.309  1.9523 -0.3522  2.7755
 1238TIP3   OH225128   2.812   2.463   3.160  0.0213  0.0557  0.3501
 1238TIP3    H125129   2.897   2.438   3.124 -0.1754  0.6024 -0.5480
 1238TIP3    H225130   2.779   2.528   3.098 -0.6126  0.5860  1.2250
 1239TIP3   OH225131   3.396   2.786   4.335 -0.2009  0.0122 -0.5966
 1239TIP3    H125132   3.373   2.770   4.243  0.0330  1.0580 -0.8493
 1239TIP3    H225133   3.312   2.806   4.377 -0.2427  0.0325 -0.6889
 1240TIP3   OH225134   1.099   0.942  12.732 -0.1063  0.4264 -0.0412
 1240TIP3    H125135   1.172   0.991  12.695 -2.4334  3.1237 -1.4014
 1240TIP3    H225136   1.022   0.973  12.684 -2.2681 -1.8826  1.6545
 1241TIP3   OH225137   3.428   6.165   4.889  0.4773  0.0819  0.2743
 1241TIP3    H125138   3.334   6.170   4.874  0.5126  0.0414  0.0287
 1241TIP3    H225139   3.437   6.102   4.961  0.2435  1.0535  1.1710
 1242TIP3   OH225140   1.737   1.440   1.859  0.5470 -0.1034  0.5649
 1242TIP3    H125141   1.817   1.427   1.911 -0.2537 -0.9804  1.6288
 1242TIP3    H225142   1.666   1.426   1.922 -0.4728 -2.0942 -0.9558
 1243TIP3   OH225143   5.348   1.321   4.667 -0.1861  0.5931  0.3953
 1243TIP3    H125144   5.271   1.300   4.615  0.0328  1.5877 -0.3446
 1243TIP3    H225145   5.387   1.235   4.686  0.3677  0.2273 -2.0644
 1244TIP3   OH225146   0.149   1.405   2.984 -0.0015  0.4377  0.1606
 1244TIP3    H125147   0.208   1.353   2.930  0.2126 -0.0549  0.8490
 1244TIP3    H225148   0.148   1.360   3.069 -1.1034  0.6314  0.2629
 1245TIP3   OH225149   1.932   1.802  15.215  0.3594  0.4559  0.7477
 1245TIP3    H125150   1.851   1.830  15.257 -0.5528 -1.5526  0.4523
 1245TIP3    H225151   1.970   1.738  15.276  0.7208 -0.0297  0.0343
 1246TIP3   OH225152   0.783   4.421  13.828 -0.1537  0.1553  0.0422
 1246TIP3    H125153   0.866   4.469  13.832  0.5642 -0.9360 -1.0218
 1246TIP3    H225154   0.799   4.343  13.881  0.7052 -1.7185 -2.7621
 1247TIP3   OH225155   1.322   5.884   2.775 -0.2660 -0.1730 -0.3368
 1247TIP3    H125156   1.256   5.904   2.841 -1.4178 -1.5729 -1.0188
 1247TIP3    H225157   1.288   5.921   2.694  0.2833 -0.0139 -0.5015
 1248TIP3   OH225158   5.935   2.935   1.067  0.1866 -0.7840  0.8029
 1248TIP3    H125159   6.005   2.913   1.129  1.3219  1.5960  0.4527
 1248TIP3    H225160   5.924   3.029   1.076 -1.4950 -0.7916 -0.7316
 1249TIP3   OH225161   1.409   0.898   1.511 -0.4893 -0.2648  0.3576
 1249TIP3    H125162   1.429   0.904   1.417 -0.6261 -0.6154  0.3033
 1249TIP3    H225163   1.315   0.911   1.516 -0.2937  1.1749  0.5948
 1250TIP3   OH225164   4.286   5.931   1.869 -0.0225 -0.3273  0.3046
 1250TIP3    H125165   4.335   5.855   1.903  1.6667  1.1999  1.4861
 1250TIP3    H225166   4.329   5.951   1.785 -1.6470 -1.6908 -0.9416
 1251TIP3   OH225167   3.980   3.655   2.322 -0.3621  0.2724 -0.1431
 1251TIP3    H125168   3.976   3.714   2.398 -0.7278  0.2198 -0.1198
 1251TIP3    H225169   3.895   3.611   2.322  0.3035 -1.0829  0.5057
 1252TIP3   OH225170   0.420   1.999   0.511 -0.2533  0.3429  0.1471
 1252TIP3    H125171   0.418   1.937   0.583  1.1497 -0.9858 -0.9026
 1252TIP3    H225172   0.455   2.080   0.549 -1.7229  0.4176  1.4342
 1253TIP3   OH225173   6.545   1.466  16.324 -0.1053 -0.0100  0.3992
 1253TIP3    H125174   6.547   1.419  16.408 -0.4447  0.3274  0.5988
 1253TIP3    H225175   6.520   1.399  16.260 -3.1771  0.3811  1.0416
 1254TIP3   OH225176   0.998   3.316   5.860  0.7157  0.0931 -0.4694
 1254TIP3    H125177   0.996   3.220   5.862  1.1494  0.0861  0.2987
 1254TIP3    H225178   0.943   3.343   5.934  0.4677  0.4408 -0.7778
 1255TIP3   OH225179   6.778   1.195   5.020  0.4951 -0.3324 -0.4558
 1255TIP3    H125180   6.715   1.128   5.045  1.2089 -0.2308  1.8688
 1255TIP3    H225181   6.847   1.146   4.974  0.6012 -1.0900  0.4665
 1256TIP3   OH225182   5.067   0.887   5.843 -0.3141 -0.5498 -0.5950
 1256TIP3    H125183   4.977   0.909   5.817 -0.3465 -2.6918 -2.7414
 1256TIP3    H225184   5.114   0.880   5.760  1.1785 -1.9898  0.3106
 1257TIP3   OH225185   2.500   0.136   5.594 -0.4626 -0.6103 -0.0889
 1257TIP3    H125186   2.595   0.146   5.588 -0.5289 -0.2254 -0.5849
 1257TIP3    H225187   2.477   0.181   5.676 -0.3524  0.3487 -0.5748
 1258TIP3   OH225188   0.009   3.234   5.917  0.3480 -0.4858 -0.1885
 1258TIP3    H125189   0.043   3.267   6.000 -0.1013 -1.2693  0.3167
 1258TIP3    H225190  -0.085   3.249   5.921  0.2058 -1.3125 -0.1794
 1259TIP3   OH225191   1.358   4.481   3.647 -0.2511  0.3708  0.0652
 1259TIP3    H125192   1.403   4.419   3.704  1.4464 -0.6115 -2.1739
 1259TIP3    H225193   1.429   4.535   3.610 -1.5855  3.0877  1.2105
 1260TIP3   OH225194   0.461   6.014   0.499 -0.2629  0.1273  0.2364
 1260TIP3    H125195   0.532   6.027   0.436 -0.4459  2.5228  0.4314
 1260TIP3    H225196   0.399   5.958   0.453  1.5907 -1.8503 -0.0250
 1261TIP3   OH225197   0.808   5.217  15.975 -0.0105 -0.5733 -0.1830
 1261TIP3    H125198   0.758   5.136  15.967 -1.7178  0.4324 -0.2113
 1261TIP3    H225199   0.897   5.192  15.952 -0.6586 -2.2554 -1.0869
 1262TIP3   OH225200   1.627   6.253   3.979  0.6116  0.0896 -0.0954
 1262TIP3    H125201   1.709   6.236   3.932 -0.4056 -1.2445 -1.4832
 1262TIP3    H225202   1.619   6.348   3.980 -0.2879  0.2402 -4.5212
 1263TIP3   OH225203   2.813   2.393   0.859  0.2607  0.3361  1.2203
 1263TIP3    H125204   2.897   2.349   0.873 -0.3339 -0.8901  1.0172
 1263TIP3    H225205   2.756   2.360   0.928 -0.3364  0.4286  0.7788
 1264TIP3   OH225206   1.362   0.970   1.231  0.1511  0.0809  0.0405
 1264TIP3    H125207   1.267   0.971   1.243  0.3683 -0.5469  2.2245
 1264TIP3    H225208   1.386   1.063   1.228 -0.4062  0.2666  0.8934
 1265TIP3   OH225209   2.579   1.270   2.967  0.9166 -0.0559  0.1820
 1265TIP3    H125210   2.533   1.347   3.001  1.4564  1.2456 -1.8243
 1265TIP3    H225211   2.575   1.280   2.871  1.1987 -2.4328 -0.1465
 1266TIP3   OH225212   5.290   5.750   3.516  0.0945 -0.0955 -0.7801
 1266TIP3    H125213   5.267   5.666   3.477  0.5143 -0.6868  0.1958
 1266TIP3    H225214   5.207   5.797   3.523  0.2380  1.0394 -4.4732
 1267TIP3   OH225215   3.309   0.934  10.423  0.4003  0.8259 -0.6026
 1267TIP3    H125216   3.257   0.853  10.424 -0.3945  1.3279 -0.7819
 1267TIP3    H225217   3.388   0.912  10.473 -0.9142  0.6658  1.5310
 1268TIP3   OH225218   3.847   6.775   1.754  0.4404  0.7578 -0.2116
 1268TIP3    H125219   3.874   6.780   1.846 -0.8616 -3.2763  0.5814
 1268TIP3    H225220   3.911   6.717   1.713 -0.6943  0.0647 -1.0588
 1269TIP3   OH225221   2.109   1.636  13.314 -0.3831  0.2924 -0.2893
 1269TIP3    H125222   2.043   1.570  13.336 -0.1337  0.5427  1.4272
 1269TIP3    H225223   2.075   1.680  13.237 -0.6103 -1.7433 -1.4044
 1270TIP3   OH225224   2.772   6.663   1.559  0.3038 -0.1377  0.1619
 1270TIP3    H125225   2.761   6.645   1.652 -0.4545 -1.5956 -0.1805
 1270TIP3    H225226   2.766   6.578   1.517 -0.2855  0.5827 -1.3006
 1271TIP3   OH225227   0.319   1.320   6.160  0.1098 -0.7237 -0.3729
 1271TIP3    H125228   0.367   1.284   6.234 -0.7347  0.0111  0.5487
 1271TIP3    H225229   0.232   1.282   6.168 -0.2637  0.1185 -0.4307
 1272TIP3   OH225230   0.845   5.604  13.891 -0.5970  0.5876 -0.1387
 1272TIP3    H125231   0.861   5.660  13.967 -1.0627  0.4723  0.0471
 1272TIP3    H225232   0.926   5.609  13.840  0.0246  0.0689  0.7535
 1273TIP3   OH225233   1.754   4.290  17.075  0.2922 -0.2173  0.8487
 1273TIP3    H125234   1.829   4.263  17.129  0.6157  0.5073  0.7710
 1273TIP3    H225235   1.762   4.385  17.069  1.4396 -0.3958 -2.1848
 1274TIP3   OH225236   6.534   0.909   4.261 -0.0682 -0.2984  0.5837
 1274TIP3    H125237   6.583   0.830   4.238 -0.2667 -0.7945  1.8238
 1274TIP3    H225238   6.489   0.887   4.342 -3.3266 -0.2939 -1.0465
 1275TIP3   OH225239   4.915   1.481   3.819  0.8179  0.6434  0.3951
 1275TIP3    H125240   4.952   1.399   3.788 -0.3203  0.5556 -0.8046
 1275TIP3    H225241   4.823   1.479   3.791  0.6250  2.0788  0.8215
 1276TIP3   OH225242   0.417   5.125   2.842  0.5760 -0.0180  0.0663
 1276TIP3    H125243   0.394   5.032   2.844  3.2526 -0.7512  0.4889
 1276TIP3    H225244   0.508   5.127   2.813  1.0143  2.3797  1.3148
 1277TIP3   OH225245   0.576   0.554  13.249  0.0786  0.3697 -0.1611
 1277TIP3    H125246   0.512   0.504  13.301  1.6575 -0.8392  0.6988
 1277TIP3    H225247   0.648   0.493  13.234  0.5024  1.2885 -2.2377
 1278TIP3   OH225248   6.789   2.059   1.089  0.9046  0.3799  0.0468
 1278TIP3    H125249   6.796   2.145   1.048  2.1984  0.1594 -0.2401
 1278TIP3    H225250   6.707   2.063   1.139  0.5150  1.4726 -0.6365
 1279TIP3   OH225251   5.474   3.853  14.779 -0.0068 -0.0077 -0.2678
 1279TIP3    H125252   5.485   3.766  14.817  2.4253  1.2080  2.0765
 1279TIP3    H225253   5.492   3.914  14.851  0.2080  2.4659 -2.2752
 1280TIP3   OH225254   4.613   0.718   2.189  0.7124  0.1364  0.3216
 1280TIP3    H125255   4.563   0.716   2.107  0.8194  0.9313  0.2351
 1280TIP3    H225256   4.571   0.786   2.241  1.8254  0.9439  0.1737
 1281TIP3   OH225257   5.154   1.399   3.520 -0.4687 -0.4695  0.4929
 1281TIP3    H125258   5.245   1.383   3.495  0.0304  0.1544  1.8075
 1281TIP3    H225259   5.109   1.416   3.437  0.0927 -3.0309 -0.4285
 1282TIP3   OH225260   6.081   0.842   4.141 -0.3579 -0.8331  0.1163
 1282TIP3    H125261   6.162   0.892   4.152  0.3630 -1.4632 -2.0008
 1282TIP3    H225262   6.012   0.909   4.142  0.4832  0.1122 -1.3463
 1283TIP3   OH225263   0.863   5.697   4.188 -0.7297 -0.2951 -0.4067
 1283TIP3    H125264   0.799   5.679   4.119 -1.4645  1.5865 -0.2942
 1283TIP3    H225265   0.816   5.680   4.269 -1.0121  0.7317 -0.3334
 1284TIP3   OH225266   3.388   6.064   4.501 -0.3652 -0.1378  0.4093
 1284TIP3    H125267   3.436   6.147   4.498  0.7009 -0.7676 -0.3581
 1284TIP3    H225268   3.299   6.090   4.526 -1.3928  1.8967 -4.1225
 1285TIP3   OH225269   2.769   2.015   5.768 -0.5300 -0.8044 -0.6165
 1285TIP3    H125270   2.681   1.998   5.734 -0.3320 -0.5010 -1.2756
 1285TIP3    H225271   2.806   2.080   5.709 -0.5223  0.4332  0.7121
 1286TIP3   OH225272   5.019   3.690  11.583 -0.0661 -0.0106  0.5987
 1286TIP3    H125273   5.109   3.685  11.615 -0.1388 -0.8743  0.6780
 1286TIP3    H225274   5.007   3.610  11.533 -1.0701 -0.3201  1.3144
 1287TIP3   OH225275   3.608   3.302   5.090  0.3692 -0.1057  0.0914
 1287TIP3    H125276   3.545   3.277   5.023 -0.5761 -1.4948  1.4281
 1287TIP3    H225277   3.626   3.221   5.138  0.0305  1.0538  2.3173
 1288TIP3   OH225278   1.998   4.364   1.566  0.0220 -0.1792  0.1225
 1288TIP3    H125279   2.027   4.294   1.508 -0.3975 -1.3282  1.2722
 1288TIP3    H225280   1.905   4.348   1.581 -0.0657  0.5697  0.4733
 1289TIP3   OH225281   6.108   1.874   2.364  0.4729 -0.0644 -0.7459
 1289TIP3    H125282   6.163   1.942   2.326 -0.2327  0.4786 -0.8004
 1289TIP3    H225283   6.056   1.842   2.291  0.7539 -0.6279 -0.7071
 1290TIP3   OH225284   0.531   6.361  11.441 -0.1615  0.0559  1.0005
 1290TIP3    H125285   0.519   6.335  11.532 -2.8997  1.7999  1.2344
 1290TIP3    H225286   0.480   6.298  11.391 -0.0208  0.0744  0.8342
 1291TIP3   OH225287   1.061   2.047  12.089 -0.7344 -0.2443 -0.0813
 1291TIP3    H125288   1.015   1.973  12.049  0.9970 -0.4225 -1.9440
 1291TIP3    H225289   1.118   2.079  12.019  2.3996 -0.4282  2.1977
 1292TIP3   OH225290   4.601   6.164  14.208 -0.1863  0.1059 -0.8542
 1292TIP3    H125291   4.683   6.205  14.235  0.1241 -0.4168 -0.9797
 1292TIP3    H225292   4.585   6.096  14.274 -0.7729  0.5272 -0.5584
 1293TIP3   OH225293   2.579   6.287  14.516  0.1087 -0.1944 -0.3505
 1293TIP3    H125294   2.593   6.193  14.505  1.9151 -0.2226  1.5199
 1293TIP3    H225295   2.552   6.297  14.607  2.5012  1.2572  0.2989
 1294TIP3   OH225296   0.481   0.527   6.027  0.1260  0.3110 -0.4119
 1294TIP3    H125297   0.474   0.617   6.061  1.1276  1.2617 -2.5438
 1294TIP3    H225298   0.542   0.484   6.087 -1.8816  0.3891  1.8131
 1295TIP3   OH225299   0.887   0.411  13.083  0.2983  0.1022 -0.1587
 1295TIP3    H125300   0.968   0.437  13.126 -0.4513 -1.0145  2.0856
 1295TIP3    H225301   0.848   0.346  13.142 -2.1776  0.5258 -1.1927
 1296TIP3   OH225302   5.632   2.243   0.248  0.3854 -0.3676  0.2307
 1296TIP3    H125303   5.542   2.220   0.271 -0.1002  0.5205 -0.6998
 1296TIP3    H225304   5.636   2.231   0.153  1.3322 -0.6481  0.2981
 1297TIP3   OH225305   6.019   4.417   3.516 -0.1775 -0.4187 -0.2104
 1297TIP3    H125306   5.978   4.423   3.602  0.3127  1.9385 -0.0723
 1297TIP3    H225307   6.010   4.505   3.479  2.7013 -0.3930 -1.0971
 1298TIP3   OH225308   0.779   2.156   5.195 -0.0254 -0.5401 -0.3954
 1298TIP3    H125309   0.791   2.193   5.282  2.2689 -1.4361 -0.2579
 1298TIP3    H225310   0.763   2.232   5.138  2.7079  0.5914  0.1705
 1299TIP3   OH225311   1.651   2.107  15.970 -0.0687 -0.0614 -0.6804
 1299TIP3    H125312   1.661   2.069  15.883  0.4183  2.6049 -1.8877
 1299TIP3    H225313   1.560   2.139  15.972 -0.0694 -0.0869 -0.2120
 1300TIP3   OH225314   1.349   3.830  10.733 -0.1310  0.4740  0.0092
 1300TIP3    H125315   1.390   3.915  10.717 -0.3848  0.6373  0.2045
 1300TIP3    H225316   1.412   3.766  10.700  0.1469  0.7313  0.0314
 1301TIP3   OH225317   0.695   0.531  16.267  0.1344  0.5962  0.4289
 1301TIP3    H125318   0.782   0.568  16.277 -0.3896  1.5807  1.5242
 1301TIP3    H225319   0.670   0.502  16.355 -0.2101 -0.7212 -0.0650
 1302TIP3   OH225320   3.164   4.907   4.317 -0.4390 -0.2160 -0.1455
 1302TIP3    H125321   3.131   4.960   4.390 -2.8682  0.3857 -1.5865
 1302TIP3    H225322   3.222   4.965   4.269  0.1245 -0.1921  0.5547
 1303TIP3   OH225323   1.662   2.145  12.770 -0.3671  0.3739  0.2432
 1303TIP3    H125324   1.681   2.110  12.683 -1.2845  0.2259  0.0951
 1303TIP3    H225325   1.654   2.239  12.757 -0.7357  0.3274  0.1198
 1304TIP3   OH225326   4.577   0.331  16.028 -0.0946  0.1914 -0.1978
 1304TIP3    H125327   4.660   0.336  15.980 -0.1501 -0.4773 -0.3720
 1304TIP3    H225328   4.559   0.238  16.035  0.9534  0.1023  2.9086
 1305TIP3   OH225329   1.246   4.207   2.865  0.8466  0.1007 -0.2715
 1305TIP3    H125330   1.231   4.134   2.924 -1.3139  1.0060  0.3744
 1305TIP3    H225331   1.333   4.190   2.829  0.6687 -2.4677  0.2779
 1306TIP3   OH225332   4.393   4.077   2.443 -0.7815 -0.3969  0.1259
 1306TIP3    H125333   4.420   4.043   2.528 -0.8628  0.3228  0.4416
 1306TIP3    H225334   4.448   4.029   2.380  1.7617  1.4402  0.7808
 1307TIP3   OH225335   2.331   3.211   5.812  0.1492  0.1521 -0.2200
 1307TIP3    H125336   2.290   3.258   5.885 -0.7491 -2.2743  0.9406
 1307TIP3    H225337   2.423   3.202   5.837 -0.3979 -1.8362  1.3902
 1308TIP3   OH225338   1.692   6.639  13.150 -0.5127 -0.3344 -0.1613
 1308TIP3    H125339   1.761   6.693  13.189  0.1893 -0.8174 -0.6862
 1308TIP3    H225340   1.646   6.600  13.224  1.9072 -2.6493  0.2932
 1309TIP3   OH225341   1.636   4.362  12.380 -0.7822  0.3574  0.0868
 1309TIP3    H125342   1.575   4.306  12.331 -0.4364 -1.5291  1.6471
 1309TIP3    H225343   1.719   4.354  12.333 -0.6921 -0.6413  0.3850
 1310TIP3   OH225344   6.090   4.053   3.648  0.1862  0.3798 -0.4129
 1310TIP3    H125345   6.006   4.054   3.693  0.0414 -0.6275 -0.6374
 1310TIP3    H225346   6.151   4.093   3.711 -0.3756  0.7256 -0.0844
 1311TIP3   OH225347   4.852   4.203  13.660 -0.0628  0.3721 -0.8608
 1311TIP3    H125348   4.924   4.181  13.718 -0.1310 -0.9601 -1.2572
 1311TIP3    H225349   4.822   4.288  13.691  1.9131  1.1565 -0.9267
 1312TIP3   OH225350   3.111   4.309  12.340 -0.0281 -0.3709  0.5921
 1312TIP3    H125351   3.102   4.403  12.322 -0.3209 -0.5657 -0.3926
 1312TIP3    H225352   3.205   4.293  12.338  0.0078 -0.1503  0.4592
 1313TIP3   OH225353   1.450   0.177  16.428  0.2302  0.4938  0.1230
 1313TIP3    H125354   1.408   0.199  16.344  0.4769  0.4403 -0.0139
 1313TIP3    H225355   1.496   0.095  16.411 -0.9300 -0.3051  0.7071
 1314TIP3   OH225356   2.984   1.460   2.568  0.0344 -0.0141  0.1251
 1314TIP3    H125357   3.071   1.428   2.548 -0.1269 -0.4286  0.0792
 1314TIP3    H225358   2.994   1.509   2.649  0.2471 -0.3442  0.2987
 1315TIP3   OH225359   4.057   6.228   4.090 -0.2281  0.4070  0.1982
 1315TIP3    H125360   4.152   6.228   4.090 -0.1941 -0.8355 -0.9425
 1315TIP3    H225361   4.033   6.147   4.044 -1.8362  1.5395 -1.0512
 1316TIP3   OH225362   6.050   1.097  13.627 -0.3491 -0.4969 -0.0545
 1316TIP3    H125363   6.088   1.067  13.709  1.0217  1.3456  0.0481
 1316TIP3    H225364   6.110   1.165  13.596 -2.2618  0.7588 -1.2056
 1317TIP3   OH225365   6.020   2.156  17.206 -0.2060  0.0725  0.0619
 1317TIP3    H125366   6.046   2.176  17.116  0.2208  0.0403  0.1752
 1317TIP3    H225367   5.999   2.241  17.244  0.4013  0.1767  0.1723
 1318TIP3   OH225368   0.469   3.807   6.253 -0.0198  0.5333 -0.2405
 1318TIP3    H125369   0.543   3.751   6.230  0.3719  0.5884  0.8498
 1318TIP3    H225370   0.421   3.758   6.320 -1.6018  0.0168 -1.6735
 1319TIP3   OH225371   3.444   3.915   5.967  0.4841  0.4165  0.2588
 1319TIP3    H125372   3.423   3.971   6.042 -1.2754  0.6829 -0.4136
 1319TIP3    H225373   3.389   3.946   5.896 -0.5028 -2.0586 -0.1816
 1320TIP3   OH225374   3.261   4.725  14.791  0.7596  0.2805  0.3302
 1320TIP3    H125375   3.183   4.742  14.842  0.2795  1.7551 -0.7978
 1320TIP3    H225376   3.318   4.800  14.809  1.2172  0.0478 -0.1073
 1321TIP3   OH225377   0.885   4.207  15.222 -0.1589  0.0453 -0.1153
 1321TIP3    H125378   0.794   4.233  15.233 -0.8261 -1.5443 -1.3826
 1321TIP3    H225379   0.924   4.276  15.168 -1.7609 -1.1615 -3.0380
 1322TIP3   OH225380   2.331   1.495  15.529 -0.2904 -0.0310 -0.4582
 1322TIP3    H125381   2.287   1.578  15.544  0.8261  0.2838  1.3106
 1322TIP3    H225382   2.402   1.516  15.469  0.2052  0.3725  0.2614
 1323TIP3   OH225383   0.025   1.736   5.727  0.3718 -0.1413 -0.0463
 1323TIP3    H125384  -0.029   1.792   5.672  0.3026 -1.0632 -0.9489
 1323TIP3    H225385   0.043   1.659   5.673  2.0469 -0.1521  0.4756
 1324TIP3   OH225386   5.566   4.798  11.528  0.1023 -0.2661  0.0456
 1324TIP3    H125387   5.645   4.754  11.499 -0.1131 -0.3756 -0.3853
 1324TIP3    H225388   5.533   4.745  11.601  0.2886 -0.3567  0.0623
 1325TIP3   OH225389   1.294   4.860   0.390 -0.2341  0.5099  0.6142
 1325TIP3    H125390   1.304   4.784   0.447  1.0163  1.0202  1.1298
 1325TIP3    H225391   1.249   4.925   0.444  0.8522  0.9553  1.0131
 1326TIP3   OH225392   2.764   6.097   4.917 -0.3072 -0.5674 -0.2379
 1326TIP3    H125393   2.751   6.176   4.968 -0.4480  0.8493 -2.3453
 1326TIP3    H225394   2.858   6.079   4.924 -0.0220  0.6095 -0.8460
 1327TIP3   OH225395   4.829   1.223  11.541  0.0099  0.4685  0.5265
 1327TIP3    H125396   4.924   1.227  11.555 -0.0737  2.1839  0.8993
 1327TIP3    H225397   4.819   1.190  11.452  0.8956 -0.9238  0.9072
 1328TIP3   OH225398   2.580   4.798   1.081 -0.4087  0.0823  0.2630
 1328TIP3    H125399   2.627   4.839   1.153 -2.5514  2.3455  0.5035
 1328TIP3    H225400   2.603   4.851   1.004 -0.3846 -0.5238 -0.1558
 1329TIP3   OH225401   1.048   5.577  13.151 -0.0234  0.2051  0.6187
 1329TIP3    H125402   1.016   5.666  13.163 -0.4834 -0.0988  1.8372
 1329TIP3    H225403   1.098   5.580  13.069 -1.4584  1.1720 -0.2722
 1330TIP3   OH225404   1.665   1.880   4.224 -0.0867  0.2368 -0.1901
 1330TIP3    H125405   1.652   1.793   4.188 -0.0939  0.5578 -0.9731
 1330TIP3    H225406   1.734   1.869   4.290 -0.6635 -0.5018  0.3090
 1331TIP3   OH225407   5.598   1.983   4.674  0.2452 -0.6179  0.0638
 1331TIP3    H125408   5.583   1.997   4.581  1.4635 -2.0810 -0.3974
 1331TIP3    H225409   5.684   2.023   4.691 -0.3184  0.3463  0.7663
 1332TIP3   OH225410   1.770   0.199   2.551  0.5349 -0.1223 -0.2733
 1332TIP3    H125411   1.761   0.104   2.541  3.6257 -0.4731 -0.9550
 1332TIP3    H225412   1.849   0.209   2.605  0.6281  2.0710 -0.7362
 1333TIP3   OH225413   1.540   0.466  15.222  0.4655  0.1993 -0.2962
 1333TIP3    H125414   1.514   0.382  15.260  0.8478  0.0119 -0.4522
 1333TIP3    H225415   1.604   0.502  15.284 -0.2229  0.7080  0.1378
 1334TIP3   OH225416   1.517   5.726   2.321 -0.1106 -0.0917  0.2608
 1334TIP3    H125417   1.509   5.782   2.244  0.9525  0.0097  0.2067
 1334TIP3    H225418   1.594   5.671   2.303  1.4255  1.3106  2.0738
 1335TIP3   OH225419   5.795   2.537  16.592  0.4529  0.3934  0.2599
 1335TIP3    H125420   5.715   2.575  16.626  1.1620  0.9734  1.3555
 1335TIP3    H225421   5.865   2.588  16.632  1.3772  0.8967 -1.8378
 1336TIP3   OH225422   3.252   4.039  13.770  0.6140  0.7821 -0.0988
 1336TIP3    H125423   3.170   4.076  13.738  0.2453 -0.5270 -0.7598
 1336TIP3    H225424   3.306   4.114  13.792 -0.1475  1.6967 -1.2495
 1337TIP3   OH225425   2.172   2.742  17.194  0.1117 -0.5535 -0.1660
 1337TIP3    H125426   2.186   2.684  17.268  0.1328  0.0937  0.3425
 1337TIP3    H225427   2.165   2.830  17.232 -0.7115 -0.3073 -0.8485
 1338TIP3   OH225428   0.535   0.890   5.750  0.4614 -0.0074  0.1121
 1338TIP3    H125429   0.468   0.850   5.694 -0.2956  2.3587 -0.8256
 1338TIP3    H225430   0.485   0.942   5.813  1.3318  2.6089 -1.2190
 1339TIP3   OH225431   4.598   1.240  11.944  0.0576  0.0508 -0.0604
 1339TIP3    H125432   4.603   1.290  11.862 -1.0483  0.5844  0.1706
 1339TIP3    H225433   4.599   1.148  11.917 -1.2690  0.2243 -0.7628
 1340TIP3   OH225434   3.912   0.181   3.606  0.5745 -0.8559 -0.0807
 1340TIP3    H125435   3.964   0.104   3.627  1.1995 -0.4511 -0.1054
 1340TIP3    H225436   3.893   0.221   3.691  0.3521 -0.9719 -0.0755
 1341TIP3   OH225437   0.129   4.877   5.654 -0.0437  0.0175  0.0568
 1341TIP3    H125438   0.115   4.954   5.599 -0.4361 -1.2748 -1.7674
 1341TIP3    H225439   0.223   4.859   5.646  0.2180  0.7830  1.2000
 1342TIP3   OH225440   2.274   1.030  13.092  0.6547 -0.2960 -0.4367
 1342TIP3    H125441   2.311   0.946  13.065 -0.5338 -0.3058 -2.2277
 1342TIP3    H225442   2.350   1.085  13.111  1.5418 -1.0390 -1.6533
 1343TIP3   OH225443   3.582   5.078  11.798  0.4850 -0.4039  0.2358
 1343TIP3    H125444   3.500   5.086  11.749  1.0041  1.1595 -0.4138
 1343TIP3    H225445   3.581   4.987  11.829 -0.6013 -0.9938 -1.3455
 1344TIP3   OH225446   3.150   0.076   4.163 -0.1718  0.2225  0.4954
 1344TIP3    H125447   3.200   0.137   4.109 -1.5553  0.3041 -0.7323
 1344TIP3    H225448   3.070   0.123   4.186 -0.6784 -0.6741  0.6175
 1345TIP3   OH225449   0.279   4.213  15.766  0.5561  0.1259 -0.4892
 1345TIP3    H125450   0.194   4.241  15.800  1.0415 -1.4744  2.3834
 1345TIP3    H225451   0.297   4.273  15.694 -1.2028  3.1569  1.3679
 1346TIP3   OH225452   0.836   4.736   3.346 -0.1144 -0.7463 -0.4410
 1346TIP3    H125453   0.861   4.643   3.349  0.2865 -0.6617 -1.0103
 1346TIP3    H225454   0.902   4.777   3.290  0.4218  0.1142  0.7722
 1347TIP3   OH225455   1.374   6.198   3.301 -0.2904 -0.1412  0.3999
 1347TIP3    H125456   1.449   6.242   3.340 -1.0415  1.5096  0.0598
 1347TIP3    H225457   1.300   6.256   3.319 -1.1769 -0.8559 -0.8088
 1348TIP3   OH225458   4.124   6.715  13.901  0.0702  0.1864 -0.0779
 1348TIP3    H125459   4.083   6.759  13.975  0.5993  0.5584 -0.0007
 1348TIP3    H225460   4.184   6.652  13.940  0.8978  0.8952 -0.1754
 1349TIP3   OH225461   5.150   0.164  15.582 -0.9154  0.2147 -0.2419
 1349TIP3    H125462   5.220   0.160  15.647 -0.7631  1.2985 -0.3181
 1349TIP3    H225463   5.195   0.178  15.499 -1.2070  1.1881 -0.2583
 1350TIP3   OH225464   3.592   5.354  17.015  0.3515 -0.5351 -0.2257
 1350TIP3    H125465   3.525   5.321  17.075  0.1145 -1.9106 -1.2255
 1350TIP3    H225466   3.544   5.411  16.955  0.3248 -0.4380 -0.1147
 1351TIP3   OH225467   1.743   3.965   5.527 -0.5437  0.4136 -0.6777
 1351TIP3    H125468   1.728   3.898   5.593 -0.2515  0.5331 -0.4905
 1351TIP3    H225469   1.656   3.999   5.508 -0.6619  0.1752 -0.5706
 1352TIP3   OH225470   2.034   4.798  16.216  0.7117 -0.1259 -0.1208
 1352TIP3    H125471   2.011   4.839  16.132  2.0104 -2.7357 -1.9173
 1352TIP3    H225472   2.116   4.840  16.242  0.0173  1.0876  0.1796
 1353TIP3   OH225473   4.900   0.407  13.182 -0.5404 -0.0421 -0.2345
 1353TIP3    H125474   4.826   0.351  13.159 -0.2872 -0.8439  0.8107
 1353TIP3    H225475   4.961   0.348  13.227  0.3753  0.7783 -0.3658
 1354TIP3   OH225476   2.594   3.085   2.659  0.1475  0.0607 -0.5396
 1354TIP3    H125477   2.633   3.164   2.696  1.2250 -0.6333 -0.1228
 1354TIP3    H225478   2.519   3.116   2.609  0.5437  1.3412 -0.3800
 1355TIP3   OH225479   5.073   4.718  11.367  0.2007 -0.5569 -0.2097
 1355TIP3    H125480   5.045   4.671  11.445  1.6064 -3.9190 -1.5486
 1355TIP3    H225481   5.050   4.661  11.294  1.0376  1.3675 -2.1049
 1356TIP3   OH225482   4.421   4.154   0.585  0.0172  0.5443  0.1896
 1356TIP3    H125483   4.329   4.160   0.607  0.1199 -0.5939  0.9975
 1356TIP3    H225484   4.449   4.245   0.573 -1.4787  0.8657 -1.3305
 1357TIP3   OH225485   0.083   1.660  12.499  0.4483  0.1628  0.2266
 1357TIP3    H125486   0.056   1.608  12.424 -3.3372  0.5789  1.0882
 1357TIP3    H225487   0.144   1.725  12.464  0.2306 -0.8066 -2.0730
 1358TIP3   OH225488   2.522   6.558   5.021 -0.4326  0.1440  0.5118
 1358TIP3    H125489   2.594   6.617   4.998  0.4452 -0.8200  0.6877
 1358TIP3    H225490   2.502   6.512   4.940 -1.4424  0.9770  0.2534
 1359TIP3   OH225491   4.578   3.586  11.026  0.3702  0.0039 -0.4447
 1359TIP3    H125492   4.531   3.670  11.029  1.1782  0.4680 -0.2247
 1359TIP3    H225493   4.666   3.610  10.997  0.6777 -0.7377 -0.1359
 1360TIP3   OH225494   0.649   3.689  13.850 -0.4579  0.2765  0.2923
 1360TIP3    H125495   0.722   3.693  13.911  0.5505  0.6809 -0.9060
 1360TIP3    H225496   0.631   3.596  13.839 -0.2518  0.1835  0.7309
 1361TIP3   OH225497   0.673   5.809  14.634  0.2182  0.4660  0.1360
 1361TIP3    H125498   0.710   5.863  14.704  2.5137  2.1785 -2.1519
 1361TIP3    H225499   0.748   5.759  14.601 -0.6373  0.1251 -1.3847
 1362TIP3   OH225500   0.497   5.483  17.195 -0.0875 -0.6036 -0.0376
 1362TIP3    H125501   0.480   5.478  17.290  0.5932 -3.1785  0.0192
 1362TIP3    H225502   0.590   5.507  17.189 -0.4351  0.8244 -0.1232
 1363TIP3   OH225503   5.940   1.950   5.103  0.4777 -0.5359  0.7796
 1363TIP3    H125504   5.924   2.006   5.179  0.1669  0.0310  0.3053
 1363TIP3    H225505   5.999   2.002   5.048  0.0036 -0.5801  0.2283
 1364TIP3   OH225506   2.129   6.630  14.585  0.6623 -0.2299 -0.0380
 1364TIP3    H125507   2.122   6.650  14.492 -0.5902 -0.0413  0.0871
 1364TIP3    H225508   2.140   6.535  14.588  1.8340 -0.1291 -0.4072
 1365TIP3   OH225509   5.789   4.514   5.674 -0.6123  0.1486 -0.4809
 1365TIP3    H125510   5.796   4.447   5.742 -0.4521 -1.3562 -1.9146
 1365TIP3    H225511   5.879   4.537   5.653 -0.6156 -0.2427 -0.9590
 1366TIP3   OH225512   5.620   3.149   1.767 -0.7185  0.0603 -0.2884
 1366TIP3    H125513   5.710   3.123   1.784 -1.6161 -2.0869  1.6698
 1366TIP3    H225514   5.597   3.104   1.685  0.9657  3.5513 -2.9496
 1367TIP3   OH225515   1.673   2.901   0.800  0.0762 -0.1988  0.3889
 1367TIP3    H125516   1.608   2.869   0.863 -1.4486  0.2148 -0.8945
 1367TIP3    H225517   1.650   2.857   0.718 -0.1629  1.8234 -0.6872
 1368TIP3   OH225518   3.051   3.554   1.949  0.4424 -0.1974  0.2584
 1368TIP3    H125519   3.124   3.603   1.986  0.0597 -0.3498  1.2767
 1368TIP3    H225520   3.032   3.488   2.016  0.5877 -1.3752 -0.8298
 1369TIP3   OH225521   4.867   2.471   1.212 -0.0219  0.3954 -0.1652
 1369TIP3    H125522   4.774   2.471   1.236  0.1773  1.0817  0.6938
 1369TIP3    H225523   4.905   2.402   1.266 -0.1496 -0.3930 -1.0661
 1370TIP3   OH225524   6.274   1.381  16.184  0.3762  0.0755  0.0051
 1370TIP3    H125525   6.364   1.350  16.181  0.8798  1.1480  2.3099
 1370TIP3    H225526   6.272   1.444  16.255 -2.1961  0.1418 -0.0252
 1371TIP3   OH225527   0.446   2.500   0.685  0.0731  0.0830  0.0898
 1371TIP3    H125528   0.354   2.512   0.710 -0.7420 -0.1375 -2.5442
 1371TIP3    H225529   0.491   2.576   0.723 -1.4074  0.8615  0.3840
 1372TIP3   OH225530   1.710   3.123   2.392 -0.4456  0.2544  0.1377
 1372TIP3    H125531   1.723   3.213   2.423  0.6297  0.0456  0.3663
 1372TIP3    H225532   1.616   3.108   2.398 -0.5718  1.1768  0.6416
 1373TIP3   OH225533   6.584   0.888  15.575  0.2622  0.2236 -0.0016
 1373TIP3    H125534   6.641   0.906  15.500  0.4817  2.0564  0.5501
 1373TIP3    H225535   6.636   0.915  15.651 -0.4404 -0.3805  0.7024
 1374TIP3   OH225536   4.834   3.619  16.586 -0.1689  0.3414  0.1075
 1374TIP3    H125537   4.928   3.619  16.569 -0.0229  0.5353  0.8801
 1374TIP3    H225538   4.796   3.567  16.514  0.6122 -0.4781  0.2716
 1375TIP3   OH225539   6.062   2.338  15.201  0.1677  0.2369  0.2328
 1375TIP3    H125540   6.130   2.398  15.170  0.7206 -0.2640  0.4612
 1375TIP3    H225541   6.063   2.349  15.296  1.1007 -1.0004  0.3811
 1376TIP3   OH225542   6.519   3.347  14.708 -0.0322  0.3906  0.0896
 1376TIP3    H125543   6.560   3.431  14.687  1.1329  0.2193  1.5273
 1376TIP3    H225544   6.475   3.363  14.792 -1.1455 -0.0292 -0.3912
 1377TIP3   OH225545   4.332   4.341   1.347  0.5944  0.1714 -0.4959
 1377TIP3    H125546   4.380   4.406   1.397  0.6031 -0.2328  0.0248
 1377TIP3    H225547   4.295   4.282   1.412 -2.5821  1.7588 -0.6677
 1378TIP3   OH225548   6.272   0.175  15.269 -0.4335 -0.2999  0.6681
 1378TIP3    H125549   6.191   0.206  15.228 -0.4965 -0.9443  0.2959
 1378TIP3    H225550   6.263   0.080  15.270 -1.0363 -0.2995  3.3555
 1379TIP3   OH225551   2.846   6.681   5.776 -0.0106  0.4375  0.0050
 1379TIP3    H125552   2.760   6.638   5.783  0.5403 -0.9227 -1.0844
 1379TIP3    H225553   2.845   6.721   5.689  0.4066  0.5398  0.0476
 1380TIP3   OH225554   6.239   6.363   4.518 -0.7006 -0.1233 -0.1623
 1380TIP3    H125555   6.236   6.379   4.612 -2.3441  0.8262 -0.3386
 1380TIP3    H225556   6.321   6.402   4.489 -0.7628  0.6648  0.6974
 1381TIP3   OH225557   0.184   1.491   3.397  0.0293  0.8451 -0.1552
 1381TIP3    H125558   0.212   1.427   3.331  0.1974  0.4167  0.3283
 1381TIP3    H225559   0.137   1.439   3.462  1.0596  1.0534  0.7703
 1382TIP3   OH225560   5.583   4.625  16.168 -0.0224  0.2688  0.9661
 1382TIP3    H125561   5.570   4.602  16.076  0.0061  0.9338  0.7873
 1382TIP3    H225562   5.539   4.710  16.178 -1.7901 -0.7034  2.0679
 1383TIP3   OH225563   6.337   0.890   2.624 -0.3391 -0.3764  0.1181
 1383TIP3    H125564   6.362   0.810   2.576  2.3439  0.4430  0.0146
 1383TIP3    H225565   6.377   0.880   2.710  0.8385  1.2160 -0.2031
 1384TIP3   OH225566   5.928   2.800   3.942 -0.1295  0.7638 -0.1004
 1384TIP3    H125567   5.861   2.755   3.889  2.0951 -1.7962 -1.0255
 1384TIP3    H225568   5.957   2.873   3.887 -0.1369  0.0956 -1.0243
 1385TIP3   OH225569   4.752   3.973   1.690 -0.1897  0.0345 -0.5622
 1385TIP3    H125570   4.755   4.020   1.773  1.2153  1.5729 -1.4314
 1385TIP3    H225571   4.825   4.008   1.640 -0.4841 -1.4714 -2.1479
 1386TIP3   OH225572   5.278   4.355   4.873  0.0589 -0.8799 -0.0619
 1386TIP3    H125573   5.343   4.410   4.916  0.6926 -2.3463  0.9308
 1386TIP3    H225574   5.322   4.321   4.795 -0.2021 -0.3420 -0.4580
 1387TIP3   OH225575   5.267   4.398  16.895 -0.1378  0.2199  0.3349
 1387TIP3    H125576   5.180   4.375  16.863  0.0690  0.9732 -0.8210
 1387TIP3    H225577   5.327   4.356  16.833  0.2636  2.3447 -0.8171
 1388TIP3   OH225578   4.509   4.686   5.930 -0.0770 -0.1492 -0.1111
 1388TIP3    H125579   4.518   4.609   5.873 -1.4272 -0.0610 -0.4765
 1388TIP3    H225580   4.478   4.755   5.872 -3.6203 -0.5928  0.9830
 1389TIP3   OH225581   2.036   1.676   4.555 -0.0599  0.1746 -0.5386
 1389TIP3    H125582   2.011   1.769   4.556 -1.1128 -0.0906 -0.9388
 1389TIP3    H225583   2.025   1.647   4.646  0.5396  0.5090 -0.3580
 1390TIP3   OH225584   3.838   3.812   0.233  0.0996  0.3639  0.2245
 1390TIP3    H125585   3.751   3.851   0.218  0.6850  1.4662 -0.3878
 1390TIP3    H225586   3.886   3.829   0.153  1.0256  0.1095  0.7185
 1391TIP3   OH225587   6.759   5.253  13.684 -0.0481  0.2916  0.1263
 1391TIP3    H125588   6.684   5.202  13.652 -0.6202  0.6764  0.8232
 1391TIP3    H225589   6.722   5.338  13.708  1.0211  1.3319 -1.7392
 1392TIP3   OH225590   2.216   3.422   4.241 -0.2161  0.2191  0.1027
 1392TIP3    H125591   2.266   3.415   4.322  2.3360  0.3698 -1.3269
 1392TIP3    H225592   2.256   3.497   4.195 -0.3810 -0.9058 -2.0021
 1393TIP3   OH225593   1.541   1.410  15.589 -0.5310  0.1686  0.5482
 1393TIP3    H125594   1.513   1.334  15.537 -0.3780  0.0109  0.6971
 1393TIP3    H225595   1.574   1.472  15.524  2.3016 -1.1130  0.6093
 1394TIP3   OH225596   0.961   2.193  14.490  0.1308  0.1241 -0.6707
 1394TIP3    H125597   0.904   2.161  14.420 -1.8399  2.5649 -0.3084
 1394TIP3    H225598   0.913   2.265  14.530  2.3819  0.6058  1.4341
 1395TIP3   OH225599   0.141   2.417  12.987  0.0994 -0.5586  0.3945
 1395TIP3    H125600   0.100   2.408  12.901  1.4566  0.8085 -0.4437
 1395TIP3    H225601   0.072   2.395  13.049 -1.6941  0.9563 -0.9699
 1396TIP3   OH225602   3.329   4.534   1.743 -0.0954  0.3172  0.3625
 1396TIP3    H125603   3.289   4.621   1.738  0.8216  0.7426  0.3959
 1396TIP3    H225604   3.341   4.519   1.837 -0.6936 -0.0554  0.3845
 1397TIP3   OH225605   0.089   1.221   0.184 -0.1335  0.5431  0.1585
 1397TIP3    H125606   0.090   1.270   0.102  0.6681 -0.5494 -0.5232
 1397TIP3    H225607   0.013   1.163   0.177 -0.7069  1.2248  0.6790
 1398TIP3   OH225608   4.726   4.611  16.450  0.3061 -0.0873  0.3540
 1398TIP3    H125609   4.654   4.672  16.463 -0.3071 -0.5242 -0.8586
 1398TIP3    H225610   4.793   4.662  16.404 -0.1052 -0.2536 -0.4384
 1399TIP3   OH225611   0.707   3.637  16.671  0.0140  0.5725  0.2670
 1399TIP3    H125612   0.754   3.695  16.732  0.7716 -0.6681  0.8983
 1399TIP3    H225613   0.633   3.603  16.722 -1.8749  2.7582 -0.8129
 1400TIP3   OH225614   3.080   1.529  14.369  0.1052 -0.0203  0.0748
 1400TIP3    H125615   3.011   1.539  14.302  0.3564  0.7183 -0.0859
 1400TIP3    H225616   3.156   1.572  14.331  0.3212  0.1960  0.7395
 1401TIP3   OH225617   2.463   3.273   2.425 -0.7260  0.1432 -0.8946
 1401TIP3    H125618   2.497   3.335   2.489 -1.1748 -0.6944  0.2007
 1401TIP3    H225619   2.449   3.324   2.346  2.5561  0.6521 -1.2682
 1402TIP3   OH225620   3.975   2.923  14.412 -0.7454  0.0047  0.1564
 1402TIP3    H125621   4.014   2.977  14.481 -0.3709  0.7762 -0.6404
 1402TIP3    H225622   3.999   2.967  14.330 -1.0476 -0.9773 -0.4811
 1403TIP3   OH225623   4.919   1.472   5.822 -0.5850  0.2723  0.0415
 1403TIP3    H125624   4.905   1.380   5.844  0.4855 -0.3498 -1.7367
 1403TIP3    H225625   5.009   1.490   5.847 -1.0069  1.1022  1.0896
 1404TIP3   OH225626   0.688   6.396  14.308  0.9316  0.4350 -0.3629
 1404TIP3    H125627   0.660   6.355  14.390  0.7850  1.4481  0.1192
 1404TIP3    H225628   0.767   6.444  14.332  0.5476  1.2318 -0.6656
 1405TIP3   OH225629   1.333   3.803   0.547 -0.3135 -0.1027  0.2474
 1405TIP3    H125630   1.310   3.743   0.476 -2.6521  0.7349  0.2111
 1405TIP3    H225631   1.370   3.879   0.503 -1.6822  0.3819 -0.1347
 1406TIP3   OH225632   5.828   0.006   2.349 -0.2294  0.5516 -0.1119
 1406TIP3    H125633   5.789  -0.081   2.358 -0.4157  0.4805 -1.3802
 1406TIP3    H225634   5.891  -0.004   2.277  0.0165  1.3810 -0.0227
 1407TIP3   OH225635   5.079   3.072  15.839  0.3147  0.2986 -0.1598
 1407TIP3    H125636   5.174   3.075  15.827  0.1663 -0.3159 -1.6657
 1407TIP3    H225637   5.047   3.015  15.769 -1.3688  2.2914 -1.1505
 1408TIP3   OH225638   4.783   2.591   3.818  0.3172 -0.2383 -0.4845
 1408TIP3    H125639   4.873   2.571   3.793  1.1994  0.0775  2.1941
 1408TIP3    H225640   4.744   2.505   3.836  0.5731 -0.2642 -0.0623
 1409TIP3   OH225641   4.463   1.861  13.559  0.3617 -0.0349  0.1805
 1409TIP3    H125642   4.445   1.809  13.638 -2.4005 -1.0719 -1.0090
 1409TIP3    H225643   4.559   1.858  13.550  0.5547 -2.2119  1.9606
 1410TIP3   OH225644   2.014   1.896  10.774 -0.3528  0.1233  0.1852
 1410TIP3    H125645   2.082   1.962  10.759  0.5913 -0.3448  2.0539
 1410TIP3    H225646   2.060   1.813  10.765 -0.6802 -0.2004  1.3872
 1411TIP3   OH225647   0.465   3.531  15.048  1.0242 -0.3259 -0.5198
 1411TIP3    H125648   0.486   3.498  14.961  3.1950 -0.6656  0.0752
 1411TIP3    H225649   0.541   3.583  15.073  0.4636 -0.2660  1.1920
 1412TIP3   OH225650   1.718   6.517   1.255 -0.6106  0.2367 -0.3688
 1412TIP3    H125651   1.683   6.435   1.221 -2.3296  1.2420 -1.2116
 1412TIP3    H225652   1.800   6.529   1.208 -1.0284 -0.3360 -1.2925
 1413TIP3   OH225653   3.146   1.250  13.503  0.0182 -0.0809  0.2048
 1413TIP3    H125654   3.189   1.315  13.558  1.9977 -0.7001 -0.5011
 1413TIP3    H225655   3.161   1.280  13.414 -0.7728 -0.4780 -0.0657
 1414TIP3   OH225656   3.509   1.317   5.786  0.2789 -0.2456  0.4122
 1414TIP3    H125657   3.520   1.365   5.868 -0.8682 -0.3352  0.6305
 1414TIP3    H225658   3.479   1.230   5.812 -5.1036  1.1056 -0.0922
 1415TIP3   OH225659   1.233   3.858  16.977  0.4853 -0.7979  0.5049
 1415TIP3    H125660   1.295   3.855  16.904  0.6440 -0.1321  0.6017
 1415TIP3    H225661   1.259   3.935  17.027 -0.6555 -0.2738  0.3348
 1416TIP3   OH225662   3.419   3.251   4.221  0.0353  0.0894 -0.5540
 1416TIP3    H125663   3.455   3.223   4.305 -2.7584 -1.2863  0.2974
 1416TIP3    H225664   3.432   3.345   4.219  0.9157  0.0356  1.0366
 1417TIP3   OH225665   4.482   2.896  17.205 -0.0619 -0.3327  0.3974
 1417TIP3    H125666   4.444   2.822  17.254 -1.0647 -0.2827 -0.2689
 1417TIP3    H225667   4.502   2.859  17.119 -0.2694  0.0931  0.1670
 1418TIP3   OH225668   4.102   1.689  12.250 -0.1378  0.4559 -0.3858
 1418TIP3    H125669   4.021   1.730  12.219 -0.7600 -1.2576 -1.1550
 1418TIP3    H225670   4.161   1.690  12.175 -0.2888 -0.3511 -0.5227
 1419TIP3   OH225671   5.300   5.867   0.833 -0.1068  0.1968  0.5693
 1419TIP3    H125672   5.207   5.887   0.842 -0.2878 -0.7005  0.7585
 1419TIP3    H225673   5.312   5.853   0.739  0.3471  2.6241  0.1873
 1420TIP3   OH225674   0.034   6.435   1.262  0.2193  0.7125  0.0734
 1420TIP3    H125675   0.065   6.501   1.201 -0.6653  0.0911 -1.0784
 1420TIP3    H225676  -0.018   6.485   1.326  0.5664  1.2790 -0.0821
 1421TIP3   OH225677   3.538   6.066  16.286 -0.3284 -0.1883  0.3440
 1421TIP3    H125678   3.512   5.978  16.261 -1.3725 -0.2579  1.5610
 1421TIP3    H225679   3.501   6.078  16.374  0.2626  1.2564  0.4221
 1422TIP3   OH225680   5.517   3.526   5.653  0.6164  0.0376  0.1735
 1422TIP3    H125681   5.475   3.570   5.579 -0.1374  0.6648  0.9498
 1422TIP3    H225682   5.585   3.587   5.681  1.8458 -0.8181 -0.8553
 1423TIP3   OH225683   5.364   3.452  13.995 -0.6597  0.4719 -0.1452
 1423TIP3    H125684   5.392   3.425  14.083  0.6540  1.4529 -0.2330
 1423TIP3    H225685   5.362   3.548  13.999 -0.7152  0.5220 -1.1601
 1424TIP3   OH225686   5.893   3.746   4.976  0.0217  0.0343 -0.1343
 1424TIP3    H125687   5.920   3.657   4.994 -0.0223  0.2027  0.8174
 1424TIP3    H225688   5.799   3.740   4.958  0.3904 -0.3690 -2.1146
 1425TIP3   OH225689   1.852   0.985  11.894 -0.7157  0.1295 -0.5406
 1425TIP3    H125690   1.758   0.999  11.893 -0.5305  1.4615 -1.0898
 1425TIP3    H225691   1.888   1.060  11.847  0.7379  0.6044  1.2130
 1426TIP3   OH225692   3.769   3.927  14.393  0.3366  0.5367  0.0479
 1426TIP3    H125693   3.676   3.931  14.417  0.2809 -0.6683  0.0784
 1426TIP3    H225694   3.771   3.867  14.318  1.0720  0.6757 -0.0461
 1427TIP3   OH225695   5.484   3.649  15.931  0.2235 -0.0273  0.1501
 1427TIP3    H125696   5.454   3.722  15.877 -0.1460  0.4148  0.9276
 1427TIP3    H225697   5.524   3.691  16.007 -1.0400 -0.6191  1.1750
 1428TIP3   OH225698   2.993   2.025   1.080  0.2253 -0.7056  0.1067
 1428TIP3    H125699   2.979   2.020   1.175 -2.1272 -1.0517 -0.1847
 1428TIP3    H225700   2.967   1.938   1.048  1.2804 -0.6858 -0.8465
 1429TIP3   OH225701   2.867   4.471   0.444 -0.6733  0.4371 -0.0749
 1429TIP3    H125702   2.923   4.394   0.434 -2.4793 -0.8478 -0.8233
 1429TIP3    H225703   2.901   4.534   0.380 -0.0281 -0.2710 -0.4476
 1430TIP3   OH225704   2.429   6.616  12.716 -0.2289  0.3393  0.7922
 1430TIP3    H125705   2.444   6.665  12.797 -0.4823 -0.6964  1.4969
 1430TIP3    H225706   2.349   6.655  12.680 -0.7859  0.0593  1.6703
 1431TIP3   OH225707   3.830   4.367   5.156  0.3324  0.6159 -0.0161
 1431TIP3    H125708   3.924   4.378   5.137  0.5305 -0.6174  0.1569
 1431TIP3    H225709   3.815   4.273   5.146 -1.2664  1.0010 -1.6997
 1432TIP3   OH225710   3.415   2.229   5.837  0.1054 -0.2501 -0.1192
 1432TIP3    H125711   3.350   2.287   5.876  0.6186 -0.6254  1.3660
 1432TIP3    H225712   3.426   2.158   5.901  0.7808 -1.0482 -1.0895
 1433TIP3   OH225713   1.070   3.808  16.184 -0.2259  0.1105  0.0193
 1433TIP3    H125714   1.057   3.901  16.166 -1.1011 -0.0090  0.0110
 1433TIP3    H225715   1.087   3.770  16.098 -0.4263  0.1754 -0.0503
 1434TIP3   OH225716   6.023   1.248  11.691  0.6372 -0.0449 -0.3609
 1434TIP3    H125717   5.941   1.296  11.696  0.3290 -0.0858 -3.1355
 1434TIP3    H225718   6.075   1.296  11.627  1.7875 -1.3725 -0.4776
 1435TIP3   OH225719   6.554   4.052   0.508  0.1801  0.0461 -0.1484
 1435TIP3    H125720   6.508   4.024   0.429 -0.6694 -0.1832  0.4162
 1435TIP3    H225721   6.610   3.978   0.531  0.1143 -0.0508 -0.2982
 1436TIP3   OH225722   1.981   5.870   6.471 -0.2481  0.2556  0.2789
 1436TIP3    H125723   1.928   5.796   6.443  0.9399 -1.0177  1.2939
 1436TIP3    H225724   1.934   5.907   6.546 -0.3189 -0.0969  0.4066
 1437TIP3   OH225725   4.159   6.303  11.282  0.3914  0.2421 -0.1591
 1437TIP3    H125726   4.245   6.339  11.304  1.1929 -1.3944 -0.5312
 1437TIP3    H225727   4.173   6.252  11.203 -1.1492  0.7471 -0.8030
 1438TIP3   OH225728   4.171   1.674   5.606  0.0636 -0.3706  0.0201
 1438TIP3    H125729   4.174   1.770   5.609  0.6926 -0.4006  0.9059
 1438TIP3    H225730   4.213   1.647   5.688  0.3011 -1.4091 -0.4317
 1439TIP3   OH225731   2.128   6.456  17.077  0.0244  0.2734  0.3680
 1439TIP3    H125732   2.126   6.502  16.993 -0.3881 -3.8750 -2.2222
 1439TIP3    H225733   2.047   6.484  17.121  0.6187  3.1232 -0.1471
 1440TIP3   OH225734   4.285   2.186  12.516  0.0606  0.5303  0.0017
 1440TIP3    H125735   4.287   2.258  12.453 -1.2072  0.9294  0.3958
 1440TIP3    H225736   4.270   2.229  12.601 -1.0309 -0.2136  0.2001
 1441TIP3   OH225737   6.421   1.734  12.143 -0.2344  0.6778  0.2701
 1441TIP3    H125738   6.443   1.641  12.146 -0.3133  0.6782  1.1357
 1441TIP3    H225739   6.419   1.755  12.050  0.2083 -0.0854  0.0765
 1442TIP3   OH225740   1.720   3.422   4.005 -0.5746 -0.0652 -0.0185
 1442TIP3    H125741   1.714   3.488   3.936 -0.0932 -0.3855 -0.3744
 1442TIP3    H225742   1.680   3.343   3.967  1.2934 -0.7836 -0.6322
 1443TIP3   OH225743   1.579   5.994   0.703  0.3659  0.3342 -0.1259
 1443TIP3    H125744   1.593   5.902   0.722  0.9400  0.4101 -0.1870
 1443TIP3    H225745   1.661   6.025   0.665 -0.2531  0.5321 -1.3951
 1444TIP3   OH225746   4.649   3.361  16.080 -0.5457 -0.8083  0.1797
 1444TIP3    H125747   4.579   3.371  16.144  0.9740  0.5726  1.7557
 1444TIP3    H225748   4.624   3.418  16.007 -0.5191  0.6867  1.2837
 1445TIP3   OH225749   3.410   1.409  11.683 -0.3342 -0.1235 -0.0483
 1445TIP3    H125750   3.461   1.406  11.764  0.3824  0.5121 -0.4645
 1445TIP3    H225751   3.441   1.488  11.638  0.3601 -1.2595 -1.6601
 1446TIP3   OH225752   2.820   4.152   2.635 -0.2493  0.1835 -0.4506
 1446TIP3    H125753   2.826   4.166   2.541 -0.3003 -0.7125 -0.5921
 1446TIP3    H225754   2.742   4.099   2.648  0.9582 -1.5889 -0.1388
 1447TIP3   OH225755   2.011   1.053   1.388  0.0315  0.3430  0.3112
 1447TIP3    H125756   2.096   1.054   1.345 -0.3621  1.2320 -0.4989
 1447TIP3    H225757   1.954   1.101   1.328 -1.4202 -1.5748  0.0637
 1448TIP3   OH225758   6.231   6.702  10.615 -0.0421 -0.5465  0.7563
 1448TIP3    H125759   6.223   6.752  10.696  1.5275  0.1438  0.5307
 1448TIP3    H225760   6.190   6.618  10.634 -1.6029  0.3586  1.5636
 1449TIP3   OH225761   3.751   6.784  13.758 -0.0065  0.8476 -0.4135
 1449TIP3    H125762   3.803   6.834  13.695  0.0010 -0.3090 -1.3499
 1449TIP3    H225763   3.778   6.693  13.745 -0.6321  0.4887  0.6720
 1450TIP3   OH225764   3.579   4.729  12.576  0.2313 -0.1930  0.1181
 1450TIP3    H125765   3.487   4.726  12.600  0.0078  0.3701 -0.6690
 1450TIP3    H225766   3.618   4.654  12.622 -0.3105  0.4392  1.6745
 1451TIP3   OH225767   4.157   2.179   4.411  0.3009  0.2998 -0.7021
 1451TIP3    H125768   4.065   2.155   4.403  0.0886  1.0131 -0.4611
 1451TIP3    H225769   4.194   2.111   4.468 -0.2782  0.4922 -0.0748
 1452TIP3   OH225770   6.712   5.795   2.264 -0.4634  0.2115 -0.0565
 1452TIP3    H125771   6.804   5.770   2.272  0.2951  2.4291 -0.9210
 1452TIP3    H225772   6.708   5.845   2.182 -2.5396 -0.2226 -0.2700
 1453TIP3   OH225773   0.391   5.379  14.393  0.3665 -0.5917 -0.0805
 1453TIP3    H125774   0.302   5.343  14.395  0.6111 -1.3594 -1.6917
 1453TIP3    H225775   0.448   5.303  14.384  1.1177 -0.0312 -0.1676
 1454TIP3   OH225776   3.936   4.044  11.889  0.3494  0.7440  0.1937
 1454TIP3    H125777   3.855   4.021  11.935 -0.4976 -0.6609 -1.8736
 1454TIP3    H225778   3.918   4.129  11.850  0.5741  1.2943  1.2454
 1455TIP3   OH225779   1.461   3.626   2.863 -0.2832  0.1825 -0.1567
 1455TIP3    H125780   1.435   3.664   2.947 -1.5758  0.2490 -0.5613
 1455TIP3    H225781   1.439   3.694   2.799  1.2626  0.3804 -0.5087
 1456TIP3   OH225782   4.226   2.956  15.423 -0.1810  0.0434 -0.1432
 1456TIP3    H125783   4.223   2.894  15.496 -0.6492 -0.0418 -0.2335
 1456TIP3    H225784   4.178   3.033  15.455 -0.8456 -0.1963 -0.5470
 1457TIP3   OH225785   2.699   2.236  11.224  0.4228 -0.2496 -0.0235
 1457TIP3    H125786   2.709   2.194  11.139  0.4067  2.2639 -1.3579
 1457TIP3    H225787   2.604   2.245  11.235  0.4100 -0.9419  0.4717
 1458TIP3   OH225788   2.235   6.779  14.009 -0.1957 -0.2459  0.6389
 1458TIP3    H125789   2.142   6.757  14.009 -0.7034  1.6800  1.1912
 1458TIP3    H225790   2.246   6.836  13.933  0.9275 -1.7867 -0.4085
 1459TIP3   OH225791   1.387   6.021  14.331 -0.0613 -0.0888  0.1778
 1459TIP3    H125792   1.407   6.044  14.422 -0.4765  2.8300 -0.3871
 1459TIP3    H225793   1.471   6.024  14.286 -0.2187  1.4257 -0.0686
 1460TIP3   OH225794   5.110   0.975  12.629 -0.1164 -0.1578  0.1641
 1460TIP3    H125795   5.051   1.048  12.613 -0.5067 -0.0392  1.9892
 1460TIP3    H225796   5.058   0.912  12.679  0.7376 -0.9247  0.1283
 1461TIP3   OH225797   3.719   5.863   0.080  0.1317  0.3031 -0.7786
 1461TIP3    H125798   3.689   5.808   0.007  0.9182 -0.3843 -0.6014
 1461TIP3    H225799   3.803   5.824   0.106  0.8720  1.7914 -0.8560
 1462TIP3   OH225800   1.138   3.874   5.588  0.1463 -0.4816  0.2845
 1462TIP3    H125801   1.083   3.951   5.603  1.7840  0.9962 -0.9500
 1462TIP3    H225802   1.088   3.820   5.527  0.0055  0.8243 -0.8044
 1463TIP3   OH225803   5.872   3.856  16.198 -0.0045 -0.2689 -0.0957
 1463TIP3    H125804   5.934   3.832  16.267 -0.1071 -0.2162  0.0137
 1463TIP3    H225805   5.864   3.776  16.145  1.2998  0.1547 -0.9773
 1464TIP3   OH225806   3.768   6.158  10.978 -0.0660 -0.3654  0.0434
 1464TIP3    H125807   3.844   6.125  11.026  0.0449 -0.5836 -0.2817
 1464TIP3    H225808   3.717   6.080  10.957  1.1476 -0.6083 -2.3789
 1465TIP3   OH225809   4.748   4.610  11.405 -0.0897  0.3173  0.1543
 1465TIP3    H125810   4.731   4.684  11.346 -0.2937 -0.1487 -0.3791
 1465TIP3    H225811   4.731   4.645  11.493  2.2689  1.6577  0.1606
 1466TIP3   OH225812   3.298   1.695   3.478 -0.1845 -0.3704 -0.0604
 1466TIP3    H125813   3.232   1.734   3.536  0.3162 -1.1283  1.0512
 1466TIP3    H225814   3.350   1.769   3.448 -0.4628  0.0381  0.4448
 1467TIP3   OH225815   0.100   1.015  13.021  0.0476  0.6741  0.4286
 1467TIP3    H125816   0.119   1.084  13.085 -0.1528  0.0344  1.1998
 1467TIP3    H225817   0.183   1.002  12.974  0.1544  1.2628  0.4560
 1468TIP3   OH225818   5.333   4.463   0.600  0.1453  0.0408  0.3824
 1468TIP3    H125819   5.404   4.400   0.611  1.3616  1.2394 -0.1746
 1468TIP3    H225820   5.275   4.424   0.534  1.5276 -0.0013 -0.8702
 1469TIP3   OH225821   2.128   0.769  15.083 -0.3629 -0.0186 -0.2124
 1469TIP3    H125822   2.122   0.693  15.024 -1.8271  0.7006 -1.0434
 1469TIP3    H225823   2.210   0.812  15.059  0.3316 -1.1479  0.0587
 1470TIP3   OH225824   1.714   0.725  12.140 -0.3085 -0.5913 -0.4928
 1470TIP3    H125825   1.662   0.646  12.151 -3.1238  1.1127 -0.5231
 1470TIP3    H225826   1.731   0.730  12.046 -2.2472  0.0032 -0.8555
 1471TIP3   OH225827   4.805   0.951  10.686  0.4229  0.3152 -0.4534
 1471TIP3    H125828   4.770   1.037  10.709 -1.2987 -0.5480  0.3599
 1471TIP3    H225829   4.891   0.947  10.730 -0.6127  0.6478  1.7559
 1472TIP3   OH225830   0.815   3.475   3.383  0.5646  0.1340 -0.4106
 1472TIP3    H125831   0.775   3.390   3.398  0.8816 -0.1985 -1.3629
 1472TIP3    H225832   0.819   3.483   3.287 -0.5379  1.7244 -0.3779
 1473TIP3   OH225833   2.356   2.551   2.497 -0.7629  0.6134 -0.3154
 1473TIP3    H125834   2.408   2.630   2.481  0.5423 -0.2514 -0.4861
 1473TIP3    H225835   2.323   2.527   2.410 -1.6354  1.2663 -0.1796
 1474TIP3   OH225836   6.275   4.278   6.792  0.3564  0.1852 -0.3812
 1474TIP3    H125837   6.296   4.206   6.853  0.6099  0.3293 -0.2970
 1474TIP3    H225838   6.189   4.309   6.821  0.1719 -0.1886 -0.5171
 1475TIP3   OH225839   6.606   1.130   0.100 -1.0862 -0.1921 -0.1034
 1475TIP3    H125840   6.625   1.038   0.083 -1.4759 -0.2380 -0.3015
 1475TIP3    H225841   6.531   1.129   0.160  0.0680 -0.0272  1.3908
 1476TIP3   OH225842   1.268   3.814   3.404  0.1808 -0.4673 -0.8282
 1476TIP3    H125843   1.325   3.750   3.448 -0.3911 -1.0625 -0.9246
 1476TIP3    H225844   1.327   3.867   3.351  1.1714  1.5136  2.0145
 1477TIP3   OH225845   5.590   4.113   3.012  0.4054 -0.0663  0.3520
 1477TIP3    H125846   5.537   4.176   3.061 -0.8060 -2.0632  1.8027
 1477TIP3    H225847   5.539   4.094   2.934  0.1120 -0.2367  0.5829
 1478TIP3   OH225848   5.364   1.028   5.023 -0.1624  0.1635  0.3789
 1478TIP3    H125849   5.435   0.987   4.973  1.1179  1.8589  0.7098
 1478TIP3    H225850   5.360   0.978   5.105  0.3374 -0.2301  0.1702
 1479TIP3   OH225851   5.072   2.852   3.471 -0.3697  0.1581  0.3420
 1479TIP3    H125852   5.097   2.865   3.562  1.4861  0.9981 -0.2352
 1479TIP3    H225853   4.977   2.852   3.471 -0.4012  1.4069  2.1093
 1480TIP3   OH225854   4.887   5.899  12.207 -0.6790 -0.4429 -0.5232
 1480TIP3    H125855   4.948   5.854  12.149  1.9641 -1.2259  2.5690
 1480TIP3    H225856   4.906   5.992  12.195  0.7775 -0.6550 -0.0070
 1481TIP3   OH225857   2.334   4.252  11.897 -0.0603 -0.3075  0.1108
 1481TIP3    H125858   2.419   4.212  11.878 -0.4803 -1.1391 -0.0465
 1481TIP3    H225859   2.311   4.300  11.817  0.2813 -0.0436  0.1711
 1482TIP3   OH225860   1.997   6.215  12.917 -0.4830 -0.0189 -0.0213
 1482TIP3    H125861   1.917   6.262  12.894 -0.4820 -1.0793 -2.3786
 1482TIP3    H225862   2.065   6.255  12.863  0.9053  1.5221  2.6170
 1483TIP3   OH225863   2.688   1.830  13.147 -0.2299 -0.1838 -0.2893
 1483TIP3    H125864   2.736   1.829  13.064 -0.8043 -1.7827 -0.6381
 1483TIP3    H225865   2.596   1.824  13.122 -0.4278 -0.3567  0.4400
 1484TIP3   OH225866   4.357   0.773  11.444  0.2466 -0.6363  0.1667
 1484TIP3    H125867   4.344   0.828  11.520 -1.7185 -1.2332  0.3127
 1484TIP3    H225868   4.280   0.788  11.389  0.8210 -1.4543 -0.9202
 1485TIP3   OH225869   0.840   0.279   4.609 -0.3195 -0.2957 -0.6722
 1485TIP3    H125870   0.745   0.281   4.597 -0.5071  1.4463  0.7131
 1485TIP3    H225871   0.873   0.342   4.546 -0.2895  0.5401  0.1565
 1486TIP3   OH225872   1.405   6.001  12.111  0.5645 -0.0002 -0.0989
 1486TIP3    H125873   1.410   5.908  12.134  1.6297  0.1522  0.3502
 1486TIP3    H225874   1.467   6.012  12.039  0.5201  0.3814 -0.0821
 1487TIP3   OH225875   1.847   0.116   2.287  0.0594  0.1155  0.3940
 1487TIP3    H125876   1.774   0.157   2.333  0.3518  0.1250  0.8512
 1487TIP3    H225877   1.918   0.114   2.351  0.9667  1.5369 -0.5023
 1488TIP3   OH225878   2.435   0.713  13.525 -0.3022 -0.1604 -0.2967
 1488TIP3    H125879   2.399   0.753  13.446 -0.8517 -1.4595 -0.7367
 1488TIP3    H225880   2.462   0.625  13.498 -0.4133 -0.6034  0.9290
 1489TIP3   OH225881   1.074   0.407   5.603  0.0135 -0.0645 -0.1302
 1489TIP3    H125882   1.023   0.431   5.680  0.1695  1.2620 -0.4139
 1489TIP3    H225883   1.011   0.409   5.531  0.3101  0.9243 -0.3760
 1490TIP3   OH225884   2.354   2.531  14.956 -0.1737  0.0367 -0.0629
 1490TIP3    H125885   2.372   2.439  14.939 -4.6550 -0.9139 -0.8906
 1490TIP3    H225886   2.379   2.576  14.875 -1.7926 -1.1870 -1.2954
 1491TIP3   OH225887   1.354   5.668  16.070  0.0109 -0.5922  0.0802
 1491TIP3    H125888   1.385   5.583  16.103  0.3331  0.1051  1.6279
 1491TIP3    H225889   1.259   5.658  16.064  0.1385 -1.4001 -0.7619
 1492TIP3   OH225890   4.661   1.384  11.705  0.3811 -0.6863 -0.1631
 1492TIP3    H125891   4.608   1.428  11.639 -1.0920 -0.4422  1.1154
 1492TIP3    H225892   4.727   1.337  11.655 -0.0883  0.2551 -1.7434
 1493TIP3   OH225893   4.413   3.930   5.472 -0.2037 -0.1817 -0.0988
 1493TIP3    H125894   4.322   3.909   5.492  0.3795 -1.6048  1.2191
 1493TIP3    H225895   4.455   3.941   5.557  1.0202 -0.2185 -0.6726
 1494TIP3   OH225896   2.171   2.461  11.459 -0.1792 -0.5194 -0.4882
 1494TIP3    H125897   2.117   2.388  11.489 -1.4048  0.1152 -1.0478
 1494TIP3    H225898   2.144   2.474  11.368 -1.2085  1.6547  0.0488
 1495TIP3   OH225899   1.289   3.440   0.072 -0.3245  0.0511 -0.4515
 1495TIP3    H125900   1.253   3.517   0.028 -1.6505 -0.9238 -1.1253
 1495TIP3    H225901   1.383   3.445   0.056 -0.5753  0.6824 -1.8289
 1496TIP3   OH225902   6.033   1.224  12.734 -0.0775 -0.2596  0.2701
 1496TIP3    H125903   5.991   1.297  12.779  0.1730 -0.7859  1.3950
 1496TIP3    H225904   5.962   1.164  12.713 -0.2047  0.0221 -0.1106
 1497TIP3   OH225905   3.282   5.595   1.468 -0.3078  0.1706  0.1726
 1497TIP3    H125906   3.216   5.652   1.427 -0.6643  0.4217  1.0635
 1497TIP3    H225907   3.231   5.523   1.506  0.0339 -0.1595  0.0139
 1498TIP3   OH225908   0.595   4.255   2.243 -0.0024 -0.0729  0.3422
 1498TIP3    H125909   0.568   4.201   2.168 -2.2984  0.6090  0.5954
 1498TIP3    H225910   0.688   4.234   2.255 -0.0807 -1.7469 -1.3848
 1499TIP3   OH225911   3.028   4.221  16.890  0.6286  0.3403 -0.0520
 1499TIP3    H125912   2.947   4.267  16.867 -0.1821 -0.5988  0.8353
 1499TIP3    H225913   3.067   4.199  16.806 -0.3333  0.3085 -0.5126
 1500TIP3   OH225914   2.090   2.886   6.422  0.3228  0.1416 -0.2159
 1500TIP3    H125915   2.143   2.950   6.373 -0.1313 -0.4094 -1.4856
 1500TIP3    H225916   2.149   2.813   6.438  0.4710  0.3184  0.0464
 1501TIP3   OH225917   6.521   2.758   6.325  0.3456 -0.3560 -0.6526
 1501TIP3    H125918   6.501   2.818   6.398  0.5825 -3.2900  2.0481
 1501TIP3    H225919   6.444   2.764   6.268 -0.3928  1.2112  0.4169
 1502TIP3   OH225920   3.997   1.862   4.506  0.6275  0.3054 -0.1562
 1502TIP3    H125921   3.953   1.941   4.538 -1.6237 -0.9687  0.0883
 1502TIP3    H225922   3.945   1.835   4.430  0.6514 -1.5405  0.4425
 1503TIP3   OH225923   0.428   6.534  15.364  0.3552  0.6187 -0.3591
 1503TIP3    H125924   0.350   6.552  15.313  1.1399 -2.0533 -2.7669
 1503TIP3    H225925   0.497   6.519  15.299  1.6898 -1.8885  1.4321
 1504TIP3   OH225926   3.985   1.630   1.857  0.0598 -0.1326  1.1360
 1504TIP3    H125927   3.939   1.714   1.856 -0.0217 -0.1785  1.0403
 1504TIP3    H225928   3.921   1.568   1.893 -0.3299 -0.4144  0.0016
 1505TIP3   OH225929   6.221   5.746  16.922 -0.2411  0.6489  0.5929
 1505TIP3    H125930   6.211   5.682  16.993 -2.6295  1.0067  0.6656
 1505TIP3    H225931   6.234   5.829  16.967  0.7626  0.5282  0.5391
 1506TIP3   OH225932   5.842   6.427   4.375  0.0936  0.6064 -0.2301
 1506TIP3    H125933   5.852   6.508   4.423 -1.4120  1.9412 -2.0147
 1506TIP3    H225934   5.787   6.450   4.300  0.4523 -1.8382 -1.3484
 1507TIP3   OH225935   0.988   5.854   4.828  0.1304  0.5500  0.3121
 1507TIP3    H125936   0.981   5.949   4.838  1.5798  0.6832  0.3981
 1507TIP3    H225937   0.926   5.818   4.890 -1.2086  1.4376 -0.4745
 1508TIP3   OH225938   1.968   3.049   2.839 -0.2318 -0.3963 -0.7727
 1508TIP3    H125939   2.016   3.101   2.775  0.7840 -0.3912 -0.0237
 1508TIP3    H225940   1.898   3.108   2.870  0.8764  0.5553  0.0365
 1509TIP3   OH225941   4.524   3.169  17.179  0.6760  0.3305 -0.1515
 1509TIP3    H125942   4.520   3.074  17.172 -0.2317  0.4365 -1.5500
 1509TIP3    H225943   4.576   3.186  17.258  0.2184 -1.3056  0.5306
 1510TIP3   OH225944   2.794   4.037  14.058 -0.3361  0.1470  0.3652
 1510TIP3    H125945   2.834   3.966  14.108 -1.0115 -0.7263 -0.2938
 1510TIP3    H225946   2.703   4.009  14.046 -0.2784  0.4745 -1.0411
 1511TIP3   OH225947   2.480   5.723   2.237 -0.1783 -0.2172 -0.2416
 1511TIP3    H125948   2.453   5.813   2.254  1.3021  0.5389 -1.5965
 1511TIP3    H225949   2.400   5.671   2.247 -0.9360  1.1502  1.1291
 1512TIP3   OH225950   5.185   0.455  12.790  0.3025  0.7388 -0.0165
 1512TIP3    H125951   5.194   0.480  12.698 -2.8197  0.5594 -0.5005
 1512TIP3    H225952   5.146   0.531  12.833 -3.5337 -0.8874 -0.1941
 1513TIP3   OH225953   3.244   5.101  16.812 -0.2762  0.1468  0.0154
 1513TIP3    H125954   3.278   5.190  16.808 -0.8869  0.4476  0.9835
 1513TIP3    H225955   3.149   5.112  16.809 -0.3533 -0.4800  0.0085
 1514TIP3   OH225956   5.996   1.037   4.839 -0.7439 -0.1416 -0.3342
 1514TIP3    H125957   5.933   1.078   4.780 -0.0586  1.0307 -0.2818
 1514TIP3    H225958   6.025   1.107   4.897  1.3748 -0.3428 -1.0343
 1515TIP3   OH225959   0.030   1.883   5.452  0.3475 -0.0642 -0.3732
 1515TIP3    H125960  -0.054   1.902   5.410 -0.0823 -1.5230 -0.2308
 1515TIP3    H225961   0.026   1.930   5.536 -1.3276 -1.8557  0.6622
 1516TIP3   OH225962   4.030   2.196  16.463 -0.3508  0.2163 -0.1311
 1516TIP3    H125963   4.037   2.159  16.551 -0.7035  2.0949  0.7431
 1516TIP3    H225964   3.954   2.254  16.467  0.0592  0.8964 -1.4520
 1517TIP3   OH225965   4.393   4.434  15.489 -0.1267  0.1309 -0.0887
 1517TIP3    H125966   4.385   4.524  15.520  1.7707 -0.4910  2.6007
 1517TIP3    H225967   4.326   4.385  15.537 -1.6105  0.1511 -2.0474
 1518TIP3   OH225968   4.327   0.284   0.414  0.1453 -0.2116 -0.6078
 1518TIP3    H125969   4.278   0.362   0.390 -0.7786 -0.3179  0.7601
 1518TIP3    H225970   4.389   0.314   0.481 -0.7591 -0.7522  0.5104
 1519TIP3   OH225971   1.239   0.008   0.968  0.4496  0.0087  0.1278
 1519TIP3    H125972   1.320   0.028   1.014 -0.2145 -0.2203  1.4230
 1519TIP3    H225973   1.239  -0.087   0.958  0.6998  0.0749 -0.5749
 1520TIP3   OH225974   6.136   2.182   1.707  0.1609  0.4051  0.1235
 1520TIP3    H125975   6.195   2.249   1.672  1.3294 -0.5971  0.1264
 1520TIP3    H225976   6.144   2.190   1.802 -1.0749  1.4249  0.1732
 1521TIP3   OH225977   1.788   1.736  11.652  0.3841 -0.2413 -0.4139
 1521TIP3    H125978   1.840   1.723  11.732 -0.2158  0.3107  0.0790
 1521TIP3    H225979   1.697   1.734  11.682  0.1324 -0.6588 -1.1871
 1522TIP3   OH225980   6.545   3.304   5.941  0.0189 -0.1488 -0.5201
 1522TIP3    H125981   6.476   3.254   5.984 -0.5956 -0.5484 -1.9206
 1522TIP3    H225982   6.529   3.291   5.847  0.4493  1.8456 -0.9076
 1523TIP3   OH225983   0.669   5.620  16.958 -0.4041 -0.1318 -0.3267
 1523TIP3    H125984   0.594   5.565  16.936 -0.4374 -0.5827  0.8410
 1523TIP3    H225985   0.745   5.567  16.933 -0.4502 -0.4592  0.2059
 1524TIP3   OH225986   0.878   0.566   5.351 -0.1806  0.2937 -0.0575
 1524TIP3    H125987   0.965   0.599   5.328 -0.2323  0.3529 -0.1712
 1524TIP3    H225988   0.830   0.644   5.379 -0.4970  0.4193 -0.9255
 1525TIP3   OH225989   1.780   1.192   4.892  0.2752 -0.7949 -0.1130
 1525TIP3    H125990   1.734   1.204   4.810 -0.1968 -0.9895  0.1195
 1525TIP3    H225991   1.734   1.120   4.936 -0.0061 -0.1391  0.6948
 1526TIP3   OH225992   0.202   1.579  15.426  0.0265  0.9491 -0.2696
 1526TIP3    H125993   0.128   1.615  15.377 -1.0800 -1.5039 -0.5232
 1526TIP3    H225994   0.215   1.492  15.390  1.6435  0.4857  1.2774
 1527TIP3   OH225995   4.805   0.309  10.779 -0.4007 -0.0784  0.4751
 1527TIP3    H125996   4.869   0.245  10.748 -0.0349 -0.6512  2.2810
 1527TIP3    H225997   4.808   0.380  10.714  0.7964 -0.8745 -0.3840
 1528TIP3   OH225998   3.068   2.812  12.445 -0.7396 -0.3467  0.1882
 1528TIP3    H125999   2.980   2.773  12.444 -1.1815  0.6052 -1.2719
 1528TIP3    H226000   3.126   2.740  12.419 -1.2579 -0.6142 -0.2556
 1529TIP3   OH226001   6.701   6.305  16.212 -0.3283 -0.4006  0.1268
 1529TIP3    H126002   6.661   6.379  16.257 -0.9257 -0.6126 -0.0427
 1529TIP3    H226003   6.745   6.344  16.136 -1.4595 -0.2986 -0.5084
 1530TIP3   OH226004   6.786   3.705  13.157  0.4377  0.0649  0.3246
 1530TIP3    H126005   6.846   3.687  13.230  1.5575 -0.7800 -0.7714
 1530TIP3    H226006   6.745   3.620  13.139  1.9691 -0.3440 -1.5649
 1531TIP3   OH226007   0.160   6.224  13.910  0.4525 -0.2726 -0.1744
 1531TIP3    H126008   0.228   6.288  13.928  0.3503 -0.1278 -0.3024
 1531TIP3    H226009   0.170   6.158  13.979  0.9748 -0.4549 -0.4172
 1532TIP3   OH226010   2.248   4.008  14.767  0.2285  0.5337 -0.0640
 1532TIP3    H126011   2.240   4.093  14.811  0.0725  2.1356 -2.9338
 1532TIP3    H226012   2.245   4.029  14.673 -1.2586 -2.7809 -0.9286
 1533TIP3   OH226013   5.035   2.763   4.003 -0.2764 -0.1182  0.2496
 1533TIP3    H126014   4.944   2.767   4.032 -0.1532  0.9890  0.5385
 1533TIP3    H226015   5.079   2.834   4.051  0.3823  0.4183 -1.1006
 1534TIP3   OH226016   5.908   5.503   2.849 -0.2145  0.6964  0.2524
 1534TIP3    H126017   5.818   5.537   2.845 -0.3944  0.4183  1.5930
 1534TIP3    H226018   5.898   5.408   2.849  0.2141  0.6009 -1.7459
 1535TIP3   OH226019   1.245   0.749  16.438 -0.5065 -0.8656 -0.4926
 1535TIP3    H126020   1.317   0.732  16.499  0.4012 -1.1205 -1.6137
 1535TIP3    H226021   1.187   0.809  16.486  0.7009 -0.2449  0.2416
 1536TIP3   OH226022   3.194   6.631   1.133  0.4210  0.0633  0.7483
 1536TIP3    H126023   3.130   6.576   1.179  0.5953  0.3891  1.3924
 1536TIP3    H226024   3.191   6.715   1.179 -0.8251  1.0567 -1.0694
 1537TIP3   OH226025   4.661   4.918  12.290  0.0696  0.6909  0.5210
 1537TIP3    H126026   4.720   4.993  12.292 -0.6598  1.2846  0.3997
 1537TIP3    H226027   4.679   4.871  12.372  1.5313  0.1884 -0.0603
 1538TIP3   OH226028   3.451   6.122  11.445  0.1893  0.6585 -0.4197
 1538TIP3    H126029   3.529   6.163  11.484  1.7595 -1.0658 -1.5888
 1538TIP3    H226030   3.431   6.176  11.369  0.5251  0.8589 -0.3687
 1539TIP3   OH226031   3.265   2.403  15.113 -0.1847 -0.2643 -0.0269
 1539TIP3    H126032   3.247   2.496  15.130  0.4713 -0.1300 -0.0369
 1539TIP3    H226033   3.336   2.404  15.049  0.8684 -0.7679  1.1128
 1540TIP3   OH226034   6.166   6.701   5.416  0.0949 -0.2872  0.2536
 1540TIP3    H126035   6.234   6.635   5.432  1.2599  1.0558  1.1309
 1540TIP3    H226036   6.197   6.748   5.338 -0.7640 -0.7875 -0.4080
 1541TIP3   OH226037   1.866   5.879  11.703  0.7350  0.4943  0.3958
 1541TIP3    H126038   1.882   5.962  11.658 -0.8533  0.6433  0.0374
 1541TIP3    H226039   1.851   5.904  11.794 -0.6980  0.7409  0.1151
 1542TIP3   OH226040   6.167   2.369  10.757 -0.5936 -0.8946 -0.5719
 1542TIP3    H126041   6.092   2.360  10.816  0.0610 -1.2787  0.2376
 1542TIP3    H226042   6.177   2.463  10.744  0.4278 -0.6490  1.5444
 1543TIP3   OH226043   1.743   1.263  11.138  0.3488  0.6305  0.0075
 1543TIP3    H126044   1.668   1.322  11.143 -1.0250 -1.0843  0.4816
 1543TIP3    H226045   1.752   1.242  11.045 -1.3194 -1.0017  0.1588
 1544TIP3   OH226046   4.607   5.319  16.787  0.2328 -0.6973  0.2530
 1544TIP3    H126047   4.656   5.250  16.742  0.1966 -1.2968  1.1119
 1544TIP3    H226048   4.572   5.277  16.866  0.0620  0.2592  0.7069
 1545TIP3   OH226049   6.442   4.245   6.311 -0.4906  0.2237  0.0134
 1545TIP3    H126050   6.429   4.244   6.406  0.3192  2.2309  0.1942
 1545TIP3    H226051   6.389   4.319   6.280 -0.1095  0.0926 -0.9863
 1546TIP3   OH226052   6.507   1.216  14.855  0.3233  0.0032  0.7018
 1546TIP3    H126053   6.412   1.214  14.867  0.4419 -1.8703  1.8105
 1546TIP3    H226054   6.535   1.297  14.897 -0.8695  1.1242 -0.5938
 1547TIP3   OH226055   5.503   2.526   5.917 -0.3774 -0.0025  0.0827
 1547TIP3    H126056   5.444   2.593   5.882 -0.7945 -0.3827  0.0625
 1547TIP3    H226057   5.464   2.500   6.000 -0.3044 -0.3528  0.0062
 1548TIP3   OH226058   3.463   5.021  13.357 -0.3085  0.2979 -0.2870
 1548TIP3    H126059   3.400   5.010  13.429 -1.1953 -0.3506 -1.1302
 1548TIP3    H226060   3.549   5.017  13.400 -0.8143  0.1405  0.7619
 1549TIP3   OH226061   6.185   6.070   2.933  0.1504 -0.4455 -0.3857
 1549TIP3    H126062   6.161   6.088   3.024 -1.3078 -0.0483 -0.8234
 1549TIP3    H226063   6.136   6.134   2.882 -0.6712 -1.9749 -1.5974
 1550TIP3   OH226064   4.560   4.477   1.982 -0.0266  0.2778  0.5278
 1550TIP3    H126065   4.550   4.440   1.894  1.0247  1.5681 -0.1787
 1550TIP3    H226066   4.635   4.430   2.019  0.4555  0.7299  0.1501
 1551TIP3   OH226067   6.694   5.963   2.059  0.1522  0.0288  0.4374
 1551TIP3    H126068   6.710   6.058   2.067 -1.1821  0.3507 -0.4225
 1551TIP3    H226069   6.599   5.955   2.054  0.3007 -1.1863 -1.3906
 1552TIP3   OH226070   4.154   5.995   4.263 -0.1680 -0.5160 -0.1597
 1552TIP3    H126071   4.249   5.989   4.255  0.0164  1.4334 -0.0399
 1552TIP3    H226072   4.123   6.000   4.172  0.2235  2.4472 -0.2260
 1553TIP3   OH226073   0.563   2.261  12.117  0.9156  0.0120 -0.0245
 1553TIP3    H126074   0.551   2.356  12.118  0.5242 -0.0240  1.2755
 1553TIP3    H226075   0.600   2.242  12.031  1.7947  1.4360  0.0005
 1554TIP3   OH226076   1.861   0.990  16.888 -0.3101  0.0497  0.0086
 1554TIP3    H126077   1.800   1.055  16.854 -0.3505 -0.1733 -0.3518
 1554TIP3    H226078   1.871   1.013  16.981  0.0831  0.8839 -0.2299
 1555TIP3   OH226079   6.105   3.681   1.664  0.4856  0.3838 -0.1306
 1555TIP3    H126080   6.081   3.757   1.610  1.3367 -0.1735 -1.3252
 1555TIP3    H226081   6.031   3.621   1.653 -0.3969  1.1702  1.1636
 1556TIP3   OH226082   3.098   1.382  15.432  0.6428  0.1898  0.0958
 1556TIP3    H126083   3.065   1.307  15.383  1.0626  0.4619 -0.6225
 1556TIP3    H226084   3.025   1.444  15.433  1.4535  1.3757 -2.6917
 1557TIP3   OH226085   0.319   2.518  15.560 -0.1832 -0.2115 -0.2439
 1557TIP3    H126086   0.278   2.539  15.644  0.0024  0.3986 -0.3032
 1557TIP3    H226087   0.272   2.441  15.530 -2.1758  1.1825 -0.9048
 1558TIP3   OH226088   0.355   3.535  11.727  0.1930  0.3546  0.5190
 1558TIP3    H126089   0.334   3.626  11.704  0.4084  0.8646  2.1843
 1558TIP3    H226090   0.287   3.511  11.790  0.0111 -0.7358 -0.0812
 1559TIP3   OH226091   1.210   3.273   6.068  0.3250  0.0428  0.2210
 1559TIP3    H126092   1.305   3.283   6.076  0.2764  0.7897 -0.0255
 1559TIP3    H226093   1.195   3.257   5.975  0.1877  0.2719  0.2015
 1560TIP3   OH226094   6.278   5.184   1.237 -0.1499  0.0775 -0.2364
 1560TIP3    H126095   6.369   5.165   1.216  0.8898  2.8051  1.2706
 1560TIP3    H226096   6.248   5.239   1.164  0.3684  1.5209  0.6017
 1561TIP3   OH226097   0.540   6.394  17.136  0.0648 -0.8776 -0.1069
 1561TIP3    H126098   0.456   6.348  17.129 -0.1379 -0.9615  2.2110
 1561TIP3    H226099   0.570   6.376  17.225  0.0931  3.2898  0.9008
 1562TIP3   OH226100   2.535   1.157   0.194 -0.1423 -0.5049 -0.5112
 1562TIP3    H126101   2.516   1.250   0.185 -1.6939 -0.4615  2.1067
 1562TIP3    H226102   2.631   1.151   0.194  0.0136  1.3203  0.7199
 1563TIP3   OH226103   1.911   0.930   6.083 -0.0111  0.0934  0.5089
 1563TIP3    H126104   1.986   0.936   6.023  0.4777 -0.3353  1.0700
 1563TIP3    H226105   1.950   0.924   6.170 -0.6884 -0.5480  0.7775
 1564TIP3   OH226106   5.230   6.704  11.668  0.0549 -0.1303  0.6351
 1564TIP3    H126107   5.314   6.743  11.644 -0.2778 -0.8831 -2.0423
 1564TIP3    H226108   5.173   6.780  11.684  0.3618  0.4777 -0.9660
 1565TIP3   OH226109   3.062   5.308   1.045  0.0727  0.2030  0.2008
 1565TIP3    H126110   3.060   5.393   1.002  1.3142  0.7663  1.1823
 1565TIP3    H226111   3.063   5.245   0.973  1.4323  1.0944 -0.6218
 1566TIP3   OH226112   2.821   2.021   0.460  0.4004 -0.1410 -0.3252
 1566TIP3    H126113   2.895   2.078   0.483  0.3831  0.1844 -1.0549
 1566TIP3    H226114   2.749   2.082   0.444  0.3901 -0.3659 -1.1455
 1567TIP3   OH226115   3.566   1.041   2.341  0.0395 -0.0291 -0.0148
 1567TIP3    H126116   3.471   1.053   2.338 -0.0477 -0.5848  0.2401
 1567TIP3    H226117   3.579   0.978   2.412  0.6740  0.7395  0.5555
 1568TIP3   OH226118   4.940   3.332  14.886  0.3542  1.0039  0.3759
 1568TIP3    H126119   5.009   3.354  14.824  1.0121 -0.0001  0.7366
 1568TIP3    H226120   4.888   3.412  14.893  0.8045  1.4138 -0.7634
 1569TIP3   OH226121   5.562   4.034  11.225 -0.3457 -0.3717 -0.6409
 1569TIP3    H126122   5.610   4.017  11.306 -2.2893  1.0170  0.9040
 1569TIP3    H226123   5.471   4.011  11.246 -0.8701 -0.1629 -2.5107
 1570TIP3   OH226124   2.310   3.155  16.156 -0.2984 -0.2328  0.3498
 1570TIP3    H126125   2.296   3.095  16.229  1.1810 -0.2870  0.6218
 1570TIP3    H226126   2.261   3.234  16.179  1.9392  0.6534  2.5734
 1571TIP3   OH226127   4.792   5.122   5.322  0.2386  0.2205  0.0390
 1571TIP3    H126128   4.812   5.029   5.307  0.9900  0.2814  0.6342
 1571TIP3    H226129   4.714   5.138   5.268  1.6999 -0.0543 -2.3343
 1572TIP3   OH226130   5.731   1.579   5.972 -0.5298 -0.1811 -0.0803
 1572TIP3    H126131   5.802   1.592   6.035 -0.7279  4.3909 -0.4819
 1572TIP3    H226132   5.767   1.608   5.888 -1.2520 -3.2119 -1.5742
 1573TIP3   OH226133   1.447   1.693  11.112  0.2631  0.8536  0.0325
 1573TIP3    H126134   1.358   1.726  11.117 -0.2040 -0.3725  0.2722
 1573TIP3    H226135   1.464   1.681  11.019 -1.1310 -2.1338  0.0345
 1574TIP3   OH226136   5.802   3.273   5.211  0.4627  0.8158 -0.7291
 1574TIP3    H126137   5.766   3.184   5.221 -0.0062  0.9423 -1.2705
 1574TIP3    H226138   5.747   3.327   5.268 -0.5298  1.0888 -1.9093
 1575TIP3   OH226139   2.122   6.047   3.242 -0.0490  0.0991 -0.0448
 1575TIP3    H126140   2.195   6.098   3.207  0.5143  1.0816  2.3363
 1575TIP3    H226141   2.139   5.957   3.215  1.7265  0.4101 -0.0441
 1576TIP3   OH226142   1.655   0.316   4.284 -0.6140 -0.7874  0.0902
 1576TIP3    H126143   1.746   0.292   4.301  0.4530  2.1597 -0.7955
 1576TIP3    H226144   1.634   0.272   4.202  1.1490  0.9016 -1.3587
 1577TIP3   OH226145   4.915   1.897   2.226  0.4734  0.1958 -0.0327
 1577TIP3    H126146   4.859   1.849   2.166 -0.6084 -0.5162  1.4899
 1577TIP3    H226147   4.977   1.832   2.259 -0.2111  0.0945  1.1013
 1578TIP3   OH226148   3.002   0.740  16.263  0.5036  0.0327  0.8323
 1578TIP3    H126149   3.081   0.765  16.216  1.6563 -1.7259  1.7006
 1578TIP3    H226150   2.994   0.646  16.247 -0.9771  0.0337  1.4076
 1579TIP3   OH226151   2.124   5.363   5.482 -0.3989  0.0542  0.4381
 1579TIP3    H126152   2.125   5.267   5.487 -1.0038  0.0613  0.7281
 1579TIP3    H226153   2.216   5.387   5.472 -0.3305 -0.6178 -0.7429
 1580TIP3   OH226154   4.909   4.482   3.576  0.0424 -0.0276  0.2919
 1580TIP3    H126155   4.985   4.514   3.625 -1.2635  0.1836  2.2797
 1580TIP3    H226156   4.885   4.401   3.621 -1.0557  0.0439 -0.1476
 1581TIP3   OH226157   4.698   4.827  14.715  0.1462 -0.1785  0.2449
 1581TIP3    H126158   4.732   4.806  14.628 -2.2177 -0.2702 -0.7140
 1581TIP3    H226159   4.621   4.771  14.725  0.1894  0.0716  2.2860
 1582TIP3   OH226160   2.133   0.840  16.976  0.6266  0.1106 -0.2425
 1582TIP3    H126161   2.205   0.779  16.959  0.7513 -0.4190  1.8844
 1582TIP3    H226162   2.151   0.914  16.918  2.3824 -0.3987 -0.4228
 1583TIP3   OH226163   3.144   0.511   1.535 -0.2410 -0.5326  0.2163
 1583TIP3    H126164   3.213   0.566   1.498 -1.2295  0.8342  0.3061
 1583TIP3    H226165   3.102   0.566   1.601 -1.3449 -1.3534  0.2334
 1584TIP3   OH226166   4.262   5.474   5.059 -0.0186 -0.0042  0.0309
 1584TIP3    H126167   4.175   5.471   5.098 -0.7187 -3.1371 -1.4086
 1584TIP3    H226168   4.322   5.482   5.134 -1.4530 -0.6000  1.2891
 1585TIP3   OH226169   1.940   6.540   6.356  0.1476 -0.1137  0.0018
 1585TIP3    H126170   1.959   6.603   6.426 -0.8259 -0.6023  0.7203
 1585TIP3    H226171   1.978   6.458   6.386  1.8211  0.1756 -1.1417
 1586TIP3   OH226172   0.332   0.464  15.799  0.3825  0.3520 -0.1721
 1586TIP3    H126173   0.402   0.480  15.863 -0.4962  0.0398  0.9122
 1586TIP3    H226174   0.263   0.526  15.823 -0.5517 -0.7719  0.1399
 1587TIP3   OH226175   4.504   4.642  14.714 -0.5611  0.0147  0.0276
 1587TIP3    H126176   4.534   4.581  14.781  0.8204 -0.2155 -0.7587
 1587TIP3    H226177   4.409   4.638  14.718 -0.5100 -2.2155  0.0029
 1588TIP3   OH226178   3.250   2.210  10.473  0.1380  0.4432  0.7161
 1588TIP3    H126179   3.176   2.174  10.523  2.6631 -2.3925  2.7573
 1588TIP3    H226180   3.229   2.303  10.465 -4.2008 -0.3582  0.0098
 1589TIP3   OH226181   1.285   3.064   5.877 -0.3469  0.5402  0.0860
 1589TIP3    H126182   1.354   3.116   5.918 -0.7810  1.0206  0.2218
 1589TIP3    H226183   1.331   3.005   5.818  0.1850  0.8120  0.2227
 1590TIP3   OH226184   4.114   6.150  16.650 -1.2740  0.1723 -0.5114
 1590TIP3    H126185   4.140   6.109  16.568 -1.8231  0.3608 -0.7843
 1590TIP3    H226186   4.136   6.086  16.717  1.9759  1.1422 -0.4623
 1591TIP3   OH226187   2.784   1.485  15.750  0.1699 -0.3112  0.5563
 1591TIP3    H126188   2.833   1.565  15.772  0.3637 -0.7382  1.7528
 1591TIP3    H226189   2.694   1.505  15.774 -0.4398  0.6745 -2.1594
 1592TIP3   OH226190   1.800   0.261   2.939  0.1574  0.4544  0.1490
 1592TIP3    H126191   1.890   0.266   2.905  0.6962  0.2721  1.4806
 1592TIP3    H226192   1.779   0.168   2.937  1.1111  0.1247  2.4934
 1593TIP3   OH226193   4.750   1.224  12.205  0.2664  0.1045  0.3748
 1593TIP3    H126194   4.668   1.247  12.250  0.6896  1.4946  0.4816
 1593TIP3    H226195   4.739   1.257  12.116 -0.2013 -1.8234 -0.3303
 1594TIP3   OH226196   0.253   1.196   0.982  0.0311 -0.3199  0.7014
 1594TIP3    H126197   0.288   1.284   0.967  1.4958 -1.2977 -2.6768
 1594TIP3    H226198   0.159   1.209   0.995  0.3730  1.7722  1.5835
 1595TIP3   OH226199   5.858   5.198   4.142  0.4206 -0.1255 -0.0422
 1595TIP3    H126200   5.918   5.254   4.093  0.1576 -0.7548 -1.1210
 1595TIP3    H226201   5.914   5.153   4.206  1.0000 -0.2278 -0.6094
 1596TIP3   OH226202   6.598   4.728  13.900  0.2407  0.2963 -0.5251
 1596TIP3    H126203   6.548   4.805  13.925  1.0767  0.3680  1.0285
 1596TIP3    H226204   6.558   4.656  13.949 -0.6820 -0.3410 -2.1329
 1597TIP3   OH226205   6.773   4.353   3.451  0.6930  0.4669 -0.2691
 1597TIP3    H126206   6.746   4.269   3.414  2.7685 -1.4698  2.3007
 1597TIP3    H226207   6.835   4.331   3.520  1.9161  4.1863  0.0523
 1598TIP3   OH226208   6.319   1.808  13.704 -0.0954  0.3273 -0.3379
 1598TIP3    H126209   6.337   1.849  13.789 -1.3139  3.5844 -1.5116
 1598TIP3    H226210   6.396   1.827  13.651  0.3444 -1.0659 -0.2478
 1599TIP3   OH226211   0.381   1.470  14.832 -0.3514  0.3831  0.7917
 1599TIP3    H126212   0.395   1.375  14.827 -0.5590  0.2952  1.6504
 1599TIP3    H226213   0.459   1.508  14.791 -1.4710 -0.1631 -2.0131
 1600TIP3   OH226214   5.870   2.618  12.655  0.1739  0.4296  0.3995
 1600TIP3    H126215   5.798   2.610  12.718  0.0340 -0.6431  0.1370
 1600TIP3    H226216   5.829   2.653  12.576 -0.2329 -0.7959  0.0321
 1601TIP3   OH226217   1.652   1.144   3.429  0.7007  0.1443 -0.4667
 1601TIP3    H126218   1.722   1.125   3.491 -0.8242 -0.1995  1.2401
 1601TIP3    H226219   1.696   1.181   3.353  2.7681 -0.5923  0.3152
 1602TIP3   OH226220   2.911   1.944  14.825 -0.5763 -0.4324 -0.0416
 1602TIP3    H126221   2.977   1.875  14.814 -1.1113 -0.8363 -0.8179
 1602TIP3    H226222   2.960   2.019  14.859  0.0359 -1.1538  0.7003
 1603TIP3   OH226223   3.559   6.178   3.216 -0.4409  0.1359 -0.5389
 1603TIP3    H126224   3.614   6.106   3.247 -1.9667 -0.8533 -0.0198
 1603TIP3    H226225   3.496   6.137   3.157 -0.9607  1.1423 -0.7165
 1604TIP3   OH226226   3.419   2.945  10.680 -0.2597 -0.0768  0.3069
 1604TIP3    H126227   3.411   3.035  10.649  0.9667 -1.0888 -3.4368
 1604TIP3    H226228   3.336   2.904  10.657 -0.2117 -0.3104  0.5398
 1605TIP3   OH226229   3.040   0.509  13.734 -0.4009  0.2326  0.0359
 1605TIP3    H126230   2.957   0.524  13.779 -0.6888 -1.9994  0.3301
 1605TIP3    H226231   3.068   0.423  13.763  0.9515  0.0292 -1.7221
 1606TIP3   OH226232   6.681   1.475   1.427  0.1215 -0.9059  0.0075
 1606TIP3    H126233   6.602   1.477   1.481  0.4604  0.1410  0.4669
 1606TIP3    H226234   6.670   1.396   1.374 -2.3756  0.4019 -1.6358
 1607TIP3   OH226235   3.618   4.418  12.372  0.7005 -0.3950 -0.1696
 1607TIP3    H126236   3.654   4.358  12.438  2.1168  0.1130 -0.4387
 1607TIP3    H226237   3.677   4.493  12.374  0.4747 -0.1477 -1.6623
 1608TIP3   OH226238   1.137   2.266  10.736  0.1341 -0.1767 -0.6830
 1608TIP3    H126239   1.053   2.247  10.776  0.2313  1.3094  0.2777
 1608TIP3    H226240   1.175   2.180  10.717  0.1520 -0.9927  2.5876
 1609TIP3   OH226241   4.722   4.069   0.244 -0.1533  0.2633 -0.0370
 1609TIP3    H126242   4.768   4.038   0.166  0.2291  1.7380 -0.4278
 1609TIP3    H226243   4.651   4.124   0.210 -1.0702 -0.4932  0.6171
 1610TIP3   OH226244   5.941   5.842   1.141  0.2680 -0.1221  0.2741
 1610TIP3    H126245   5.855   5.859   1.102  0.9008 -1.1523 -1.7234
 1610TIP3    H226246   5.983   5.781   1.080  1.0580 -2.5401  2.9766
 1611TIP3   OH226247   1.922   1.656   2.935 -0.3183 -0.2320  0.0634
 1611TIP3    H126248   1.909   1.564   2.912  0.6056 -0.2113 -0.5729
 1611TIP3    H226249   1.867   1.704   2.872  1.0854 -0.2487 -1.2252
 1612TIP3   OH226250   5.863   6.062   5.449  0.8594 -0.0222 -0.4100
 1612TIP3    H126251   5.893   5.971   5.455 -0.1908 -0.2656  2.2159
 1612TIP3    H226252   5.770   6.055   5.427  0.2480  0.2799  1.9091
 1613TIP3   OH226253   4.585   0.455   3.457 -0.3225 -0.4301 -0.1644
 1613TIP3    H126254   4.634   0.441   3.538  0.7366 -1.7241 -0.9820
 1613TIP3    H226255   4.592   0.372   3.410  0.9485  0.8843 -2.5209
 1614TIP3   OH226256   4.131   0.390  16.213  0.1744  0.2028 -0.4519
 1614TIP3    H126257   4.074   0.329  16.261 -0.3072  1.1202  0.1721
 1614TIP3    H226258   4.207   0.401  16.270 -0.5951  1.6369  0.3595
 1615TIP3   OH226259   6.582   0.883   5.018 -0.3669 -0.8323  0.1423
 1615TIP3    H126260   6.537   0.959   5.054 -0.3541  0.0117 -1.5603
 1615TIP3    H226261   6.516   0.813   5.021 -1.0126 -0.2451 -0.0792
 1616TIP3   OH226262   6.760   0.146  11.393 -0.0077 -0.3371 -0.8895
 1616TIP3    H126263   6.726   0.230  11.364 -1.7005 -0.3008  0.9740
 1616TIP3    H226264   6.691   0.083  11.370 -0.9254 -0.4615  1.8082
 1617TIP3   OH226265   4.831   6.552   0.326  0.4895 -0.1213  0.1531
 1617TIP3    H126266   4.916   6.592   0.309  0.0995 -0.1535 -2.2827
 1617TIP3    H226267   4.768   6.624   0.319  0.2718 -0.1317  1.7441
 1618TIP3   OH226268   5.042   1.788  13.412  0.0368  0.3240 -0.8430
 1618TIP3    H126269   5.122   1.803  13.461 -0.8980  2.3106  0.1970
 1618TIP3    H226270   5.028   1.870  13.364 -1.2211 -0.0948 -1.2347
 1619TIP3   OH226271   1.096   0.283   0.902  0.2072  0.0501 -0.1793
 1619TIP3    H126272   1.086   0.358   0.961 -3.3430  0.0215 -0.5632
 1619TIP3    H226273   1.079   0.206   0.958  0.2578 -0.2265 -0.5389
 1620TIP3   OH226274   5.510   1.005   1.650 -0.1891 -0.2859 -0.5312
 1620TIP3    H126275   5.481   1.043   1.567  0.9707  0.9238 -0.4253
 1620TIP3    H226276   5.574   0.939   1.625  2.0216  1.7246 -0.6349
 1621TIP3   OH226277   3.032   3.812   3.478  0.1327  0.3844 -0.2465
 1621TIP3    H126278   3.120   3.834   3.448  0.4075  0.9779  0.9285
 1621TIP3    H226279   3.003   3.743   3.419  1.1942  0.5165 -0.9500
 1622TIP3   OH226280   3.233   6.350   1.139  0.1213  0.2835 -0.0058
 1622TIP3    H126281   3.292   6.373   1.211  1.4535  1.5015 -1.4305
 1622TIP3    H226282   3.267   6.267   1.107 -0.1352  0.0186  0.3943
 1623TIP3   OH226283   1.332   6.008  15.481  0.1136  0.1729  0.5884
 1623TIP3    H126284   1.260   6.021  15.542 -1.6807  2.6075 -1.8290
 1623TIP3    H226285   1.361   6.096  15.458  0.5592 -0.5711 -2.1577
 1624TIP3   OH226286   4.370   0.565  14.093  0.3129 -0.2199  0.0220
 1624TIP3    H126287   4.298   0.623  14.121  0.4413  1.0203 -1.9524
 1624TIP3    H226288   4.433   0.624  14.052  1.9530 -1.4385  0.6832
 1625TIP3   OH226289   4.810   0.044  16.154  0.4563 -0.0641  0.5325
 1625TIP3    H126290   4.906   0.047  16.145  0.3196  0.0567 -1.3325
 1625TIP3    H226291   4.783  -0.028  16.097 -0.6925  1.0356 -0.3578
 1626TIP3   OH226292   1.890   0.211  12.229  0.4678  0.3858 -0.8139
 1626TIP3    H126293   1.831   0.153  12.181 -0.1896 -0.4116  0.8813
 1626TIP3    H226294   1.963   0.154  12.255  0.1910  0.4785  0.2051
 1627TIP3   OH226295   0.177   2.938   1.050  0.2362  0.0628  0.1155
 1627TIP3    H126296   0.158   2.875   1.120  0.6164 -0.3056 -0.1159
 1627TIP3    H226297   0.122   3.013   1.072  0.1088 -0.1730  0.6370
 1628TIP3   OH226298   1.737   2.434  11.824  0.4941 -0.1916 -0.8695
 1628TIP3    H126299   1.816   2.442  11.771  0.6593  1.2603 -0.4519
 1628TIP3    H226300   1.758   2.367  11.889  1.2269 -0.1187 -1.0276
 1629TIP3   OH226301   4.031   0.675  16.186 -0.2335  0.0979  0.7717
 1629TIP3    H126302   3.956   0.620  16.163 -0.0196 -0.5593  1.6046
 1629TIP3    H226303   4.088   0.670  16.109 -1.1863  0.8836 -0.0050
 1630TIP3   OH226304   1.537   1.260  13.758  0.7863 -0.5221  0.8000
 1630TIP3    H126305   1.547   1.235  13.849  2.6776 -0.9611  0.4982
 1630TIP3    H226306   1.591   1.198  13.709  1.1288  0.7102 -0.4540
 1631TIP3   OH226307   4.047   6.015   3.451  0.3273 -0.5714  0.0131
 1631TIP3    H126308   4.049   5.931   3.497 -0.2739 -1.3645 -1.3642
 1631TIP3    H226309   4.117   6.009   3.386 -0.0321 -0.1836 -0.4122
 1632TIP3   OH226310   2.490   5.345   5.701 -0.3075 -0.2801  0.1763
 1632TIP3    H126311   2.571   5.392   5.682  0.2692 -1.2949  0.0299
 1632TIP3    H226312   2.511   5.293   5.779 -0.5626 -1.1331 -0.3104
 1633TIP3   OH226313   2.469   6.605  15.363  0.1743 -0.2076 -0.1859
 1633TIP3    H126314   2.536   6.635  15.301  0.8398 -0.4239  0.4057
 1633TIP3    H226315   2.462   6.676  15.427  1.2895 -0.9865  0.8552
 1634TIP3   OH226316   4.864   4.758  14.463  0.5206  0.0429 -0.7693
 1634TIP3    H126317   4.871   4.663  14.474  1.0745  0.0839 -0.7063
 1634TIP3    H226318   4.950   4.785  14.431  0.2769  0.4895 -1.0620
 1635TIP3   OH226319   0.364   0.421   2.388  0.8370  0.4686 -0.3159
 1635TIP3    H126320   0.274   0.398   2.410  0.8594 -0.4324 -1.0787
 1635TIP3    H226321   0.367   0.516   2.394  0.2333  0.4205  1.1678
 1636TIP3   OH226322   3.186   3.129  15.384  0.2714 -0.1020 -0.1453
 1636TIP3    H126323   3.222   3.193  15.323 -0.2684  0.3133 -0.0305
 1636TIP3    H226324   3.179   3.048  15.332  2.8944 -0.6953  0.2516
 1637TIP3   OH226325   5.499   0.022   2.975 -0.4782 -0.4692  0.1803
 1637TIP3    H126326   5.560   0.029   2.901 -0.8046 -0.5857 -0.1019
 1637TIP3    H226327   5.459   0.108   2.982 -1.1037 -0.7111 -0.3517
 1638TIP3   OH226328   4.604   4.426  14.900 -0.2305 -0.1046  0.1969
 1638TIP3    H126329   4.686   4.464  14.930 -0.6192  0.6135  0.3817
 1638TIP3    H226330   4.580   4.363  14.968  0.2677 -0.4628  0.0409
 1639TIP3   OH226331   2.866   5.229   6.245 -0.5281 -0.7673 -0.1357
 1639TIP3    H126332   2.914   5.242   6.327 -0.5110  0.8904 -0.3610
 1639TIP3    H226333   2.801   5.162   6.265 -0.2721 -0.6537  1.1299
 1640TIP3   OH226334   4.263   4.323   0.230  0.4757 -0.0515  0.3995
 1640TIP3    H126335   4.229   4.409   0.252  0.7895  0.0503  0.4855
 1640TIP3    H226336   4.186   4.267   0.226  0.0712  0.5547 -1.2515
 1641TIP3   OH226337   5.653   2.553   3.250  0.3367  0.4100 -0.0644
 1641TIP3    H126338   5.577   2.569   3.306  1.4879  1.7191  1.2089
 1641TIP3    H226339   5.728   2.576   3.305  1.5713  0.8109 -1.8388
 1642TIP3   OH226340   6.489   3.505   5.354  0.1847  0.0259 -0.1990
 1642TIP3    H126341   6.488   3.537   5.444 -0.5622 -2.4408  0.7472
 1642TIP3    H226342   6.397   3.508   5.327  0.5286  1.8346 -1.3678
 1643TIP3   OH226343   4.379   5.696  11.836  0.8371 -0.5651 -0.8914
 1643TIP3    H126344   4.407   5.631  11.772  1.6864 -0.7186 -0.3680
 1643TIP3    H226345   4.442   5.689  11.907 -1.1945 -1.7458  0.8855
 1644TIP3   OH226346   3.010   3.955   4.035  0.5354  0.2511  0.0436
 1644TIP3    H126347   3.105   3.959   4.046  0.6254 -1.0721 -0.0851
 1644TIP3    H226348   2.976   4.016   4.101  1.4483  0.4581  0.3452
 1645TIP3   OH226349   0.563   3.183  10.799 -0.1895  0.2301  0.0834
 1645TIP3    H126350   0.572   3.093  10.830 -0.6639 -0.0872 -0.6794
 1645TIP3    H226351   0.564   3.176  10.703  1.5230  1.2149 -0.0060
 1646TIP3   OH226352   4.663   1.547  13.728  0.1657 -0.3813  0.0078
 1646TIP3    H126353   4.637   1.460  13.759  0.9311 -0.5475  0.1998
 1646TIP3    H226354   4.690   1.533  13.637 -1.2843 -0.0417 -0.4952
 1647TIP3   OH226355   1.872   1.270   3.273  0.0614  0.0237 -0.4719
 1647TIP3    H126356   1.960   1.236   3.286  0.0275  0.3339  0.6675
 1647TIP3    H226357   1.875   1.360   3.306 -0.5035  0.2767 -1.0775
 1648TIP3   OH226358   0.790   3.403  16.256  0.1208  0.0718 -0.5166
 1648TIP3    H126359   0.839   3.448  16.188  0.3007  1.8397  0.7184
 1648TIP3    H226360   0.841   3.324  16.274  1.8965  1.2825 -0.0864
 1649TIP3   OH226361   4.715   5.065   5.750  0.2987 -0.1255 -0.8438
 1649TIP3    H126362   4.663   5.004   5.697 -0.4054  0.2510 -0.6045
 1649TIP3    H226363   4.737   5.136   5.691  1.5016 -0.8024 -1.2458
 1650TIP3   OH226364   3.648   3.601   2.029 -0.0313 -0.0096 -0.0784
 1650TIP3    H126365   3.677   3.511   2.038  2.2757  0.7014  0.3449
 1650TIP3    H226366   3.637   3.614   1.935  1.1652 -0.3245 -0.2768
 1651TIP3   OH226367   3.480   4.155   2.629  0.2372  0.7699 -0.2468
 1651TIP3    H126368   3.517   4.124   2.711 -0.8826  1.6509  0.6292
 1651TIP3    H226369   3.432   4.081   2.594 -0.4474  0.7916  0.6182
 1652TIP3   OH226370   0.588   6.738  12.695 -0.0927  0.2892  0.3384
 1652TIP3    H126371   0.553   6.654  12.666 -2.6245  0.9686  1.1838
 1652TIP3    H226372   0.574   6.797  12.621  1.6063  0.0481 -0.2239
 1653TIP3   OH226373   4.237   1.035   0.209  0.4557  0.0253  0.1467
 1653TIP3    H126374   4.261   1.044   0.117  1.8167  0.1490  0.4885
 1653TIP3    H226375   4.247   1.124   0.245 -0.0793 -0.0192  0.4082
 1654TIP3   OH226376   0.629   3.470  15.309  0.6122  0.6653  0.7356
 1654TIP3    H126377   0.553   3.425  15.271  1.3527  1.6348 -2.1503
 1654TIP3    H226378   0.591   3.542  15.360 -0.4315 -0.1554  1.1601
 1655TIP3   OH226379   3.305   2.549   3.588  0.0537 -0.2192 -0.1046
 1655TIP3    H126380   3.278   2.597   3.666 -0.1875 -0.9570  0.2705
 1655TIP3    H226381   3.255   2.590   3.517 -0.6452 -0.3456  0.3074
 1656TIP3   OH226382   3.233   3.100   0.835  0.2402  0.3932  0.2543
 1656TIP3    H126383   3.297   3.170   0.820  0.2102  0.3769  0.0451
 1656TIP3    H226384   3.237   3.084   0.929  0.6479  0.2926  0.2210
 1657TIP3   OH226385   0.522   2.515  14.973  0.6462 -0.0339  0.0782
 1657TIP3    H126386   0.574   2.488  15.049 -0.0640 -1.8813 -0.0379
 1657TIP3    H226387   0.579   2.574  14.924  1.6674  0.0051  1.2779
 1658TIP3   OH226388   6.382   4.952   5.624 -0.1092 -0.5040  0.0167
 1658TIP3    H126389   6.457   4.917   5.674  0.0159  0.2831  0.3996
 1658TIP3    H226390   6.311   4.958   5.688 -0.4929 -1.2135 -0.3385
 1659TIP3   OH226391   1.018   6.597   2.109  0.4938 -0.5761  0.4141
 1659TIP3    H126392   1.051   6.629   2.193  0.4403 -0.6950  0.4812
 1659TIP3    H226393   1.096   6.574   2.060  0.5810  0.5530 -0.0015
 1660TIP3   OH226394   6.210   2.100  16.443 -0.1195 -1.0170 -0.4634
 1660TIP3    H126395   6.222   2.022  16.497 -0.0972 -0.5703  0.1885
 1660TIP3    H226396   6.298   2.138  16.435 -0.6639  1.3645  2.9572
 1661TIP3   OH226397   3.986   2.943   0.637 -0.2994 -0.3348  0.4125
 1661TIP3    H126398   4.029   2.893   0.707 -0.2089 -0.7471  0.0652
 1661TIP3    H226399   4.057   2.987   0.591  0.0590 -2.7952 -1.5873
 1662TIP3   OH226400   1.546   0.059   1.083 -0.6340  0.0750  0.2428
 1662TIP3    H126401   1.630   0.105   1.082 -0.7148  0.2975 -2.2987
 1662TIP3    H226402   1.566  -0.029   1.051 -1.4476  0.3605 -1.1201
 1663TIP3   OH226403   5.747   6.432   4.739  0.6195  0.6703 -0.1281
 1663TIP3    H126404   5.678   6.473   4.685  0.1470 -0.3343 -0.3076
 1663TIP3    H226405   5.703   6.359   4.783  1.5647  0.0235 -0.2251
 1664TIP3   OH226406   1.946   1.040  14.994  0.3502 -0.5120  0.0366
 1664TIP3    H126407   1.955   1.019  15.087 -0.0903 -1.4740 -0.1251
 1664TIP3    H226408   2.032   1.018  14.956  0.3710 -0.5888  0.1286
 1665TIP3   OH226409   5.796   3.623  15.095 -0.1573 -0.2298  0.6367
 1665TIP3    H126410   5.864   3.567  15.133  1.5476  1.4048  0.1286
 1665TIP3    H226411   5.809   3.615  15.001  0.3140  1.1879  0.5558
 1666TIP3   OH226412   2.692   4.582  13.723 -0.4782 -0.0752  0.1279
 1666TIP3    H126413   2.597   4.585  13.736 -0.3045  0.3494  1.4814
 1666TIP3    H226414   2.712   4.660  13.672 -1.0240 -1.0093 -1.5980
 1667TIP3   OH226415   5.976   1.304  13.321 -0.0391  0.2329  0.2475
 1667TIP3    H126416   6.008   1.394  13.332  0.9063 -0.3314  2.9271
 1667TIP3    H226417   6.053   1.249  13.339 -0.7166 -1.1295 -0.8520
 1668TIP3   OH226418   5.061   1.702   3.147 -0.1784  0.4581 -0.0749
 1668TIP3    H126419   5.002   1.699   3.072 -1.0010 -0.0829  0.5731
 1668TIP3    H226420   5.143   1.736   3.112 -1.0026  1.6493 -0.9110
 1669TIP3   OH226421   6.339   3.872  11.261  0.4633 -0.1831 -0.6497
 1669TIP3    H126422   6.350   3.790  11.214 -0.1360 -0.6461  0.0011
 1669TIP3    H226423   6.358   3.940  11.196  2.7218 -0.8424 -0.7255
 1670TIP3   OH226424   4.920   0.800  11.866 -0.2988  0.0796  0.1219
 1670TIP3    H126425   4.921   0.834  11.955  1.2684  0.4072  0.0074
 1670TIP3    H226426   4.961   0.714  11.872 -0.8980 -0.2351 -0.1712
 1671TIP3   OH226427   1.495   1.903  15.489 -0.1165 -0.0729  0.4101
 1671TIP3    H126428   1.430   1.849  15.444 -0.9676  0.0885  1.4043
 1671TIP3    H226429   1.554   1.839  15.531  0.4731 -0.2197 -0.6116
 1672TIP3   OH226430   3.573   1.618   2.465 -0.2285 -0.4425 -0.1278
 1672TIP3    H126431   3.480   1.601   2.452  0.1978 -1.9886 -1.4751
 1672TIP3    H226432   3.598   1.673   2.391 -0.1156  0.2082  0.3851
 1673TIP3   OH226433   6.740   1.475  14.387 -0.2247 -0.6111 -0.7271
 1673TIP3    H126434   6.802   1.464  14.460 -0.9871  0.0499  0.0446
 1673TIP3    H226435   6.709   1.386  14.370 -1.3084 -0.6082  0.9370
 1674TIP3   OH226436   3.965   4.108  14.322  0.0195 -0.0961  0.4512
 1674TIP3    H126437   3.894   4.047  14.342 -0.1652  0.5073  1.7352
 1674TIP3    H226438   3.921   4.192  14.310  0.3042 -0.1278 -1.0235
 1675TIP3   OH226439   2.836   4.008  13.460 -0.6515  0.1709  0.2615
 1675TIP3    H126440   2.893   3.948  13.508  0.2820  2.2511  1.9047
 1675TIP3    H226441   2.748   3.974  13.475 -0.0372 -2.4080 -1.3116
 1676TIP3   OH226442   4.996   2.155  14.419  0.0479  0.4732  0.2613
 1676TIP3    H126443   5.037   2.068  14.413  0.5833  0.7879 -1.2474
 1676TIP3    H226444   5.069   2.215  14.433 -0.1143  0.8306 -0.3685
 1677TIP3   OH226445   3.109   2.304   6.372 -0.4251  0.1098  0.1742
 1677TIP3    H126446   3.091   2.368   6.441 -1.0059 -0.9552  1.0380
 1677TIP3    H226447   3.063   2.338   6.295 -1.3698  0.3512  0.8273
 1678TIP3   OH226448   3.782   0.117  11.462  0.8041 -0.0840 -0.2254
 1678TIP3    H126449   3.787   0.026  11.491 -2.3223 -1.0121 -2.0349
 1678TIP3    H226450   3.798   0.113  11.367  0.0407  1.1403 -0.4341
 1679TIP3   OH226451   2.563   6.783  14.671  0.1672 -0.1064 -0.5770
 1679TIP3    H126452   2.545   6.736  14.589 -3.0689  1.9057 -1.2187
 1679TIP3    H226453   2.582   6.714  14.735 -0.4153 -1.9804 -2.3036
 1680TIP3   OH226454   5.007   0.753   3.617  0.2704  0.4734  0.1612
 1680TIP3    H126455   5.101   0.766   3.606  0.1977  0.0253 -1.2233
 1680TIP3    H226456   4.993   0.661   3.594 -0.5863  0.7082 -0.2944
 1681TIP3   OH226457   1.567   2.192   2.457 -0.1231 -0.6349 -0.0523
 1681TIP3    H126458   1.551   2.181   2.363 -3.4550 -1.2467  0.4630
 1681TIP3    H226459   1.481   2.212   2.494  1.2587  0.6210  2.7751
 1682TIP3   OH226460   3.885   1.362   1.979 -0.0751 -0.0057  0.4133
 1682TIP3    H126461   3.972   1.351   2.019 -0.5509  0.8046  1.7161
 1682TIP3    H226462   3.859   1.273   1.955  0.0521 -0.6172  2.3596
 1683TIP3   OH226463   2.882   2.255   3.964  0.6371  0.1071 -0.0317
 1683TIP3    H126464   2.837   2.240   3.881 -1.6811 -0.9015  1.3140
 1683TIP3    H226465   2.952   2.190   3.966  1.1079  0.5363 -1.4142
 1684TIP3   OH226466   3.327   6.648  16.397  0.0810 -0.2107 -0.3694
 1684TIP3    H126467   3.394   6.690  16.344  0.3545  0.1784  0.2707
 1684TIP3    H226468   3.375   6.587  16.453 -0.2379 -0.8461 -0.7861
 1685TIP3   OH226469   6.753   6.469   4.653 -0.9089  0.4255  0.0420
 1685TIP3    H126470   6.707   6.550   4.632  0.7293  1.4169  0.0541
 1685TIP3    H226471   6.838   6.477   4.608  1.1398  0.8291  3.6072
 1686TIP3   OH226472   3.909   3.877  15.009 -0.5252  0.1004  0.2033
 1686TIP3    H126473   3.941   3.834  14.929 -2.3783 -1.2026  0.0742
 1686TIP3    H226474   3.965   3.953  15.020  0.3095 -0.1441 -1.8822
 1687TIP3   OH226475   1.874   6.149   2.517 -0.0460 -0.2741  0.0245
 1687TIP3    H126476   1.787   6.135   2.480 -0.2980  1.3893 -0.0780
 1687TIP3    H226477   1.859   6.207   2.591  1.2144  2.2012 -1.5343
 1688TIP3   OH226478   1.681   2.040   5.821 -0.2121  0.5767  0.0452
 1688TIP3    H126479   1.637   2.052   5.905 -0.5947  1.3270 -0.2492
 1688TIP3    H226480   1.635   1.968   5.779 -0.4621  0.6431  0.2032
 1689TIP3   OH226481   2.079   4.339   4.536  0.4058 -0.4176  0.2943
 1689TIP3    H126482   2.090   4.364   4.628  0.0328 -2.8855  1.0984
 1689TIP3    H226483   2.166   4.348   4.498  0.9891 -1.1529  1.4103
 1690TIP3   OH226484   5.646   3.193  13.056 -0.7011  0.5659 -0.0860
 1690TIP3    H126485   5.633   3.257  12.985  0.3843  0.2916 -0.5574
 1690TIP3    H226486   5.723   3.225  13.103 -1.1828  0.5301  0.7495
 1691TIP3   OH226487   2.549   1.042  10.925 -0.5293  0.4441  0.3305
 1691TIP3    H126488   2.510   0.963  10.962 -1.3543  0.0814 -1.2353
 1691TIP3    H226489   2.628   1.057  10.978 -0.4760 -1.2974  0.7971
 1692TIP3   OH226490   0.535   6.043  12.596 -0.0341 -0.2004 -0.4620
 1692TIP3    H126491   0.457   6.032  12.541  0.6618 -1.6498 -1.1994
 1692TIP3    H226492   0.561   6.134  12.582 -1.5551  0.3025 -0.2282
 1693TIP3   OH226493   2.710   2.520  16.133 -0.4443 -0.4268 -0.0947
 1693TIP3    H126494   2.795   2.516  16.177 -0.1302  1.3149 -0.4607
 1693TIP3    H226495   2.646   2.521  16.204  0.0323  1.8866  0.3921
 1694TIP3   OH226496   1.099   4.861  14.133 -0.2565 -0.3954  0.0798
 1694TIP3    H126497   1.187   4.894  14.113 -0.1547  0.6968  2.0844
 1694TIP3    H226498   1.110   4.766  14.142  1.0137 -0.1336  1.6117
 1695TIP3   OH226499   1.897   5.868   5.795  0.3725  0.1187 -0.1005
 1695TIP3    H126500   1.946   5.907   5.868 -0.4539  1.9839 -0.4845
 1695TIP3    H226501   1.963   5.823   5.743  1.1175 -0.4464  1.2903
 1696TIP3   OH226502   2.356   0.564   3.823  0.5178  0.3796  0.5487
 1696TIP3    H126503   2.335   0.615   3.901 -0.6095 -1.4295  1.4972
 1696TIP3    H226504   2.285   0.583   3.762 -0.1183 -0.3158  1.0534
 1697TIP3   OH226505   2.281   6.232   4.875 -0.5669  0.4750 -0.0404
 1697TIP3    H126506   2.368   6.192   4.866 -1.2842 -1.1232 -0.2644
 1697TIP3    H226507   2.254   6.252   4.786  0.8421  4.0231  0.1819
 1698TIP3   OH226508   0.291   3.810  15.170  0.8089  0.0185  0.2591
 1698TIP3    H126509   0.275   3.904  15.180 -0.7956 -0.3737  1.7370
 1698TIP3    H226510   0.383   3.799  15.196  1.7130  1.4190 -2.0159
 1699TIP3   OH226511   6.467   0.062  12.063 -0.0572  0.2030  0.6083
 1699TIP3    H126512   6.509   0.129  12.009  0.6175 -0.9059 -0.2939
 1699TIP3    H226513   6.388   0.037  12.015 -0.4220  0.4984  1.0494
 1700TIP3   OH226514   4.783   2.320   2.354  0.0799 -0.1922  0.2113
 1700TIP3    H126515   4.874   2.300   2.332  0.6776  1.7459  0.7126
 1700TIP3    H226516   4.776   2.297   2.447  0.6516  1.4106  0.6830
 1701TIP3   OH226517   2.601   2.279   3.089  0.8805 -0.3530 -0.3606
 1701TIP3    H126518   2.663   2.351   3.102  0.4754  0.2001 -1.3665
 1701TIP3    H226519   2.619   2.247   3.001  0.1802 -0.6108 -0.4179
 1702TIP3   OH226520   3.000   6.009   4.967  0.6244  0.2821 -0.6029
 1702TIP3    H126521   3.091   5.978   4.959  1.3265  2.1252 -0.2428
 1702TIP3    H226522   2.966   5.966   5.045  1.2578 -0.2949 -0.6403
 1703TIP3   OH226523   4.272   6.641  15.839  0.5226  0.2095  0.3615
 1703TIP3    H126524   4.178   6.638  15.823  0.3807 -1.4843  1.3114
 1703TIP3    H226525   4.294   6.734  15.832 -1.2887  0.6985  0.5731
 1704TIP3   OH226526   2.794   1.283   5.663  0.4485 -0.1437 -0.6163
 1704TIP3    H126527   2.724   1.334   5.703 -0.2000 -0.6224 -1.1134
 1704TIP3    H226528   2.757   1.195   5.654  1.0351 -0.3490 -1.0837
 1705TIP3   OH226529   4.800   3.059   3.615  0.1807 -0.3146 -0.3548
 1705TIP3    H126530   4.896   3.061   3.620  0.2396  1.0246 -1.3955
 1705TIP3    H226531   4.782   3.037   3.523 -0.5105 -0.7937 -0.1046
 1706TIP3   OH226532   5.993   5.826   2.595  0.3327  0.1712  0.2805
 1706TIP3    H126533   6.058   5.845   2.527 -1.8019  0.3129 -1.8522
 1706TIP3    H226534   6.031   5.754   2.645  2.2985  0.5246 -0.5997
 1707TIP3   OH226535   0.753   5.110   1.143 -0.2242  0.0311 -0.4126
 1707TIP3    H126536   0.773   5.018   1.125 -0.4694  0.5007 -3.7716
 1707TIP3    H226537   0.829   5.158   1.111 -0.2318  1.0541  1.0117
 1708TIP3   OH226538   1.098   6.680  12.236  0.1458  0.3633 -0.1374
 1708TIP3    H126539   1.189   6.698  12.257  0.9879 -0.6104 -2.6468
 1708TIP3    H226540   1.074   6.745  12.170 -0.8123  0.2328  0.0539
 1709TIP3   OH226541   3.166   3.264   5.853  0.4127 -0.3806 -0.0758
 1709TIP3    H126542   3.126   3.181   5.826 -0.4773 -0.0539  0.2287
 1709TIP3    H226543   3.107   3.299   5.920  1.1694  0.1476  0.3258
 1710TIP3   OH226544   5.725   2.761  16.751  0.4915  0.0189 -0.7110
 1710TIP3    H126545   5.710   2.817  16.674  1.4718 -1.0090 -1.6826
 1710TIP3    H226546   5.793   2.806  16.800 -2.2394  2.3179  1.2991
 1711TIP3   OH226547   0.110   4.476  11.829 -0.3033  0.0401 -0.9991
 1711TIP3    H126548   0.128   4.565  11.859 -0.5797 -0.9153  2.4458
 1711TIP3    H226549   0.015   4.475  11.814 -1.2244 -0.6477  3.5012
 1712TIP3   OH226550   6.401   2.002  16.710 -0.1370 -0.2658 -0.4124
 1712TIP3    H126551   6.432   1.941  16.776  1.6292 -0.7833 -1.6447
 1712TIP3    H226552   6.464   2.074  16.713 -1.1043  0.5940 -0.2868
 1713TIP3   OH226553   1.670   1.363  11.955  0.2926 -0.1523 -0.2890
 1713TIP3    H126554   1.676   1.292  11.892 -0.3305 -1.1658  0.7484
 1713TIP3    H226555   1.580   1.359  11.988  0.2707  1.0627 -0.1466
 1714TIP3   OH226556   5.021   4.374  14.485  0.8177 -0.6630  0.4371
 1714TIP3    H126557   4.968   4.443  14.524 -0.6952 -2.1973  1.2352
 1714TIP3    H226558   4.984   4.362  14.397 -1.1012 -2.5862  1.4326
 1715TIP3   OH226559   3.626   5.942   1.444  0.0502  0.2852  0.6263
 1715TIP3    H126560   3.584   5.879   1.503 -0.6361  0.1874  0.0351
 1715TIP3    H226561   3.610   6.027   1.484 -1.1280  0.2912  0.1647
 1716TIP3   OH226562   0.111   2.545   4.387  0.2877  0.5097 -0.0461
 1716TIP3    H126563   0.153   2.479   4.332  1.8651  0.2620  1.3779
 1716TIP3    H226564   0.017   2.524   4.382  0.6704 -1.2910 -0.3267
 1717TIP3   OH226565   5.336   2.583   2.177  0.2814 -0.2177  0.4218
 1717TIP3    H126566   5.321   2.582   2.272  1.5424 -0.0981  0.6353
 1717TIP3    H226567   5.253   2.614   2.140 -0.2874 -0.4465  1.4697
 1718TIP3   OH226568   3.083   2.589  11.659  0.4797 -0.4356  0.0875
 1718TIP3    H126569   3.142   2.586  11.735  1.8147 -0.2664 -0.8997
 1718TIP3    H226570   3.015   2.651  11.684  0.9289 -0.3374  1.1318
 1719TIP3   OH226571   4.074   5.850  15.347 -0.5402  0.3795  0.2129
 1719TIP3    H126572   4.048   5.918  15.410 -2.0416 -0.0948  0.1339
 1719TIP3    H226573   4.119   5.785  15.400  1.7944  1.8239  0.1531
 1720TIP3   OH226574   5.113   1.918   0.742  0.2016  0.4655  0.0888
 1720TIP3    H126575   5.156   1.868   0.811  2.1161 -0.4961 -1.6786
 1720TIP3    H226576   5.122   2.009   0.768 -0.1783  0.0973  1.6366
 1721TIP3   OH226577   0.239   1.443   1.875 -0.5729 -0.1920 -0.4167
 1721TIP3    H126578   0.222   1.350   1.892  0.7428 -0.2381  0.8300
 1721TIP3    H226579   0.211   1.456   1.785 -2.1168 -1.4521 -0.1669
 1722TIP3   OH226580   0.781   1.739  14.546 -0.2625  0.0766  0.0659
 1722TIP3    H126581   0.869   1.763  14.515  0.4741  0.2705  2.1806
 1722TIP3    H226582   0.726   1.812  14.518  0.4020  0.3782 -0.5153
 1723TIP3   OH226583   4.037   1.659  12.948 -0.3546 -0.1666 -0.1375
 1723TIP3    H126584   4.085   1.723  13.000  0.7122 -0.5976 -0.5711
 1723TIP3    H226585   4.083   1.657  12.864 -0.0137 -1.9070  0.0579
 1724TIP3   OH226586   6.505   1.604  11.314 -0.5924 -0.5963  0.0057
 1724TIP3    H126587   6.524   1.668  11.245 -0.9706 -1.6841 -1.1469
 1724TIP3    H226588   6.528   1.648  11.395 -0.1225  0.7225 -0.8210
 1725TIP3   OH226589   4.287   3.284  11.478  0.0014 -0.4245  0.2376
 1725TIP3    H126590   4.273   3.193  11.451 -0.8156  0.2565 -1.9098
 1725TIP3    H226591   4.376   3.304  11.449 -0.3832 -0.1033 -0.7701
 1726TIP3   OH226592   2.161   4.426   0.231 -0.1296  0.3351  0.0080
 1726TIP3    H126593   2.109   4.413   0.310  0.9819  0.1417  0.7252
 1726TIP3    H226594   2.239   4.372   0.244 -1.1090 -1.8568 -2.3856
 1727TIP3   OH226595   2.418   5.422   5.201 -0.2271 -0.3617 -0.6085
 1727TIP3    H126596   2.413   5.428   5.297 -1.5800  1.1443 -0.7288
 1727TIP3    H226597   2.431   5.512   5.172 -0.9829 -0.6392 -1.8797
 1728TIP3   OH226598   1.653   6.707  14.979  0.1438 -0.3473 -0.7815
 1728TIP3    H126599   1.589   6.776  14.961  0.9325  0.0045 -2.4036
 1728TIP3    H226600   1.706   6.742  15.051 -1.0540 -0.3739  0.1391
 1729TIP3   OH226601   6.232   3.626   4.700  0.2556  0.0179 -0.0753
 1729TIP3    H126602   6.300   3.606   4.636 -0.0137  1.3592 -0.8101
 1729TIP3    H226603   6.189   3.542   4.717  0.9256 -0.5153 -0.9500
 1730TIP3   OH226604   4.975   4.216  11.916 -0.5607  0.1176 -0.3038
 1730TIP3    H126605   4.891   4.170  11.922 -0.7611  0.4101 -0.7779
 1730TIP3    H226606   4.966   4.272  11.839 -0.0592  0.4185 -0.1486
 1731TIP3   OH226607   3.708   1.492   4.010  0.2404  0.0316 -0.0454
 1731TIP3    H126608   3.644   1.545   3.963 -0.5054  2.8690  3.7355
 1731TIP3    H226609   3.783   1.551   4.022  0.2126 -0.3814  2.5613
 1732TIP3   OH226610   1.901   4.686   3.148 -0.7111 -0.0647 -0.1472
 1732TIP3    H126611   1.951   4.605   3.152 -0.2522  0.2005 -0.3778
 1732TIP3    H226612   1.811   4.660   3.166 -0.7222 -0.7672 -1.1783
 1733TIP3   OH226613   2.184   1.998   1.058 -0.0959  0.2276 -0.3130
 1733TIP3    H126614   2.252   2.036   1.002 -1.8700  1.3351 -1.8183
 1733TIP3    H226615   2.152   1.923   1.009  1.5730 -1.7975  1.4749
 1734TIP3   OH226616   1.429   2.700  16.400 -0.0040 -0.6757 -0.0901
 1734TIP3    H126617   1.472   2.686  16.316  0.5219 -1.1824  0.2574
 1734TIP3    H226618   1.343   2.658  16.390  0.6010 -2.0137  0.0887
 1735TIP3   OH226619   5.816   0.145  12.532  0.0865 -0.0978  0.0927
 1735TIP3    H126620   5.910   0.129  12.534  0.2770  0.6822  3.3174
 1735TIP3    H226621   5.806   0.235  12.562 -1.6518  0.8106 -2.8105
 1736TIP3   OH226622   6.070   0.564  17.203  0.6384  0.0780  0.8577
 1736TIP3    H126623   5.997   0.518  17.245  0.1344 -0.7621 -0.8339
 1736TIP3    H226624   6.132   0.495  17.180  0.7320  0.4532 -0.0784
 1737TIP3   OH226625   0.313   2.111  13.304  0.0973 -0.0682 -0.5000
 1737TIP3    H126626   0.302   2.206  13.298 -0.1063 -0.0432  0.1794
 1737TIP3    H226627   0.382   2.091  13.241  3.0945  1.0618  2.1329
 1738TIP3   OH226628   3.376   2.677  11.868  0.0170  0.0891  0.0536
 1738TIP3    H126629   3.400   2.652  11.779 -0.1182  1.8458 -0.5314
 1738TIP3    H226630   3.295   2.630  11.886  0.6398 -1.1616 -0.2918
 1739TIP3   OH226631   0.530   3.204  14.842  0.0465  0.1231 -0.3322
 1739TIP3    H126632   0.452   3.173  14.888  0.6922 -1.3066 -0.1495
 1739TIP3    H226633   0.512   3.296  14.824 -1.3024  0.0499  0.4959
 1740TIP3   OH226634   2.985   5.599   5.475 -0.9532 -0.2515  0.1744
 1740TIP3    H126635   2.915   5.577   5.414 -0.8283 -0.2528  0.0306
 1740TIP3    H226636   2.985   5.529   5.539 -0.3983 -0.8089 -0.4138
 1741TIP3   OH226637   5.785   3.078   2.400 -0.1482  0.0733  0.1339
 1741TIP3    H126638   5.879   3.066   2.390 -0.2166 -1.3284  0.9486
 1741TIP3    H226639   5.776   3.167   2.436  0.9443 -0.1658  1.0644
 1742TIP3   OH226640   2.812   3.619   4.365  0.5156  0.2687 -0.3284
 1742TIP3    H126641   2.775   3.696   4.320 -0.2211  1.2115  1.7667
 1742TIP3    H226642   2.906   3.635   4.368  0.4453  0.7325 -0.5472
 1743TIP3   OH226643   3.767   5.211  12.074 -0.2945  0.4817  0.4406
 1743TIP3    H126644   3.789   5.118  12.080  0.6204  0.7880  2.2832
 1743TIP3    H226645   3.779   5.232  11.981 -1.2262 -1.3883 -0.1382
 1744TIP3   OH226646   3.633   3.699   3.105  0.2685 -0.5646 -0.0132
 1744TIP3    H126647   3.557   3.642   3.099 -0.9233  0.8114  1.1943
 1744TIP3    H226648   3.597   3.787   3.104  2.0419  0.2037 -1.6386
 1745TIP3   OH226649   5.460   2.314   2.464 -0.0601  0.8007 -0.4749
 1745TIP3    H126650   5.471   2.277   2.551  1.3594 -0.7794 -1.2744
 1745TIP3    H226651   5.454   2.238   2.406  2.4031  1.7617 -2.1172
 1746TIP3   OH226652   2.879   3.161   5.196  0.1404 -0.3514  0.0167
 1746TIP3    H126653   2.970   3.166   5.166  0.1440  0.7810  0.1499
 1746TIP3    H226654   2.833   3.223   5.140 -0.3769 -0.2573  0.5444
 1747TIP3   OH226655   2.131   2.973   5.760  0.1274 -0.0844 -0.3335
 1747TIP3    H126656   2.135   2.965   5.856 -0.8670 -0.3216 -0.2961
 1747TIP3    H226657   2.216   3.008   5.735  1.3373 -2.3124  0.3973
 1748TIP3   OH226658   5.267   1.775   3.014  0.4803 -0.5053 -0.0790
 1748TIP3    H126659   5.271   1.770   2.918  0.0231 -0.2370 -0.1143
 1748TIP3    H226660   5.357   1.757   3.043  0.4027 -1.6444 -0.5096
 1749TIP3   OH226661   0.564   3.682   1.699  0.5553  0.3548  0.6851
 1749TIP3    H126662   0.570   3.647   1.610 -0.4737  1.7878  0.0174
 1749TIP3    H226663   0.642   3.736   1.709  1.2773 -0.7434  1.1010
 1750TIP3   OH226664   2.611   3.386   4.093  0.2822  0.2531 -0.2616
 1750TIP3    H126665   2.599   3.470   4.049  1.3830  0.9911  0.8191
 1750TIP3    H226666   2.680   3.342   4.043  0.5524  0.4996 -0.1024
 1751TIP3   OH226667   6.682   5.419  11.191 -0.1385  0.3958 -0.2170
 1751TIP3    H126668   6.686   5.421  11.095  0.9613 -2.1971 -0.3129
 1751TIP3    H226669   6.631   5.340  11.211 -0.4627  0.9728  1.3416
 1752TIP3   OH226670   1.007   3.992   0.240 -0.2931  0.3002  0.4098
 1752TIP3    H126671   0.988   4.086   0.240  0.0302  0.3838 -0.7956
 1752TIP3    H226672   1.069   3.980   0.313 -0.7993  0.9039  0.9527
 1753TIP3   OH226673   4.305   4.135   3.106 -0.3964 -0.3028  0.3965
 1753TIP3    H126674   4.252   4.206   3.143 -0.6031  1.3664 -2.7333
 1753TIP3    H226675   4.242   4.072   3.072 -0.3054 -0.1455 -0.0704
 1754TIP3   OH226676   5.975   1.591   3.905  0.3441 -0.0393  1.1053
 1754TIP3    H126677   5.883   1.564   3.909  0.9393 -2.3948  0.5081
 1754TIP3    H226678   5.971   1.685   3.888 -1.9361  0.0386  1.6844
 1755TIP3   OH226679   4.380   2.395   5.807 -0.2873 -0.3252 -0.7658
 1755TIP3    H126680   4.438   2.320   5.797 -0.5065 -0.5430 -0.4404
 1755TIP3    H226681   4.325   2.373   5.883 -0.4813  0.0785 -0.7839
 1756TIP3   OH226682   3.734   6.563   0.707 -0.7139  0.3907  0.2931
 1756TIP3    H126683   3.734   6.477   0.664  1.5364  1.5450 -2.2810
 1756TIP3    H226684   3.756   6.543   0.798  3.8592 -1.6661 -0.9543
 1757TIP3   OH226685   3.575   5.443  13.667 -0.0436 -0.0792  0.5173
 1757TIP3    H126686   3.568   5.504  13.740  1.6289 -0.1933  0.7915
 1757TIP3    H226687   3.572   5.499  13.589 -0.1687  0.1957  0.7176
 1758TIP3   OH226688   0.176   4.547   2.199 -0.3434  0.2312 -0.7217
 1758TIP3    H126689   0.252   4.597   2.229 -0.4235 -0.5566  0.9311
 1758TIP3    H226690   0.202   4.456   2.207 -1.4068 -0.0526 -0.2238
 1759TIP3   OH226691   1.622   3.721  15.490 -0.1898 -0.2825 -0.2804
 1759TIP3    H126692   1.692   3.784  15.472 -0.2996 -0.1619 -0.2866
 1759TIP3    H226693   1.644   3.644  15.438  0.5982 -0.7085  0.6481
 1760TIP3   OH226694   5.695   1.692  17.157 -0.7473  0.2669  0.2220
 1760TIP3    H126695   5.626   1.747  17.194 -0.0758  3.5951 -2.9704
 1760TIP3    H226696   5.658   1.604  17.158 -3.1115  1.1319  2.8035
 1761TIP3   OH226697   5.616   3.049   0.378 -0.9074  0.1626  0.2700
 1761TIP3    H126698   5.576   3.066   0.463 -1.1806 -1.2742  0.4579
 1761TIP3    H226699   5.580   2.965   0.351  0.8923 -0.5072 -0.2157
 1762TIP3   OH226700   1.516   6.591   2.033 -0.3072 -0.1456  0.1787
 1762TIP3    H126701   1.435   6.546   2.057 -1.3794  1.8207  0.4566
 1762TIP3    H226702   1.499   6.684   2.052  1.5298  0.5043 -1.0350
 1763TIP3   OH226703   5.427   1.597  15.240  0.0543  0.3155 -0.4047
 1763TIP3    H126704   5.350   1.579  15.295 -0.4636  1.7987 -0.6054
 1763TIP3    H226705   5.487   1.525  15.259 -1.3145 -0.8174 -0.1376
 1764TIP3   OH226706   3.576   4.655  11.164 -0.3397  0.4884 -0.1124
 1764TIP3    H126707   3.547   4.728  11.109 -1.6111 -0.3745 -0.6103
 1764TIP3    H226708   3.543   4.577  11.120 -3.3320 -0.1867  2.9079
 1765TIP3   OH226709   4.786   4.347  14.262  0.4972 -0.9513  0.3457
 1765TIP3    H126710   4.744   4.277  14.312 -1.6097  0.4303  0.6290
 1765TIP3    H226711   4.781   4.424  14.318  2.6952 -0.4773  0.0134
 1766TIP3   OH226712   4.352   6.232  16.932  0.3018 -0.0242 -0.0650
 1766TIP3    H126713   4.351   6.163  16.999  0.8562  0.2609  0.2515
 1766TIP3    H226714   4.438   6.222  16.890 -0.7326 -1.3694 -1.9930
 1767TIP3   OH226715   6.378   3.051   1.903 -0.0703 -0.0356 -0.9836
 1767TIP3    H126716   6.325   3.123   1.869 -1.6327  0.5813  2.3258
 1767TIP3    H226717   6.455   3.093   1.941 -0.8608 -0.0325  0.7264
 1768TIP3   OH226718   6.620   4.932  12.542  0.3045 -0.4364 -0.1830
 1768TIP3    H126719   6.568   4.909  12.465  0.5612  0.5822 -0.6718
 1768TIP3    H226720   6.557   4.932  12.614  0.1766 -2.0143 -0.2525
 1769TIP3   OH226721   0.887   0.173  11.768  0.3810  0.8170 -0.5875
 1769TIP3    H126722   0.848   0.091  11.737 -1.7060  1.3641  0.3982
 1769TIP3    H226723   0.948   0.146  11.836 -0.6566  0.0587  0.0860
 1770TIP3   OH226724   5.688   5.098  15.127 -0.5468 -0.3765  0.1111
 1770TIP3    H126725   5.661   5.189  15.116 -0.8370 -0.5799 -1.0065
 1770TIP3    H226726   5.606   5.049  15.137 -0.5594 -0.7758 -1.5549
 1771TIP3   OH226727   6.495   5.335  11.770  0.4174  0.0242  0.7207
 1771TIP3    H126728   6.493   5.241  11.752  4.0160 -0.4904  2.2824
 1771TIP3    H226729   6.511   5.375  11.685 -0.6840 -0.7794  0.1125
 1772TIP3   OH226730   1.186   6.786   4.191  0.0335  0.3427  0.4077
 1772TIP3    H126731   1.181   6.869   4.238  0.2339  0.4430  0.2510
 1772TIP3    H226732   1.201   6.721   4.260 -1.4109  0.2631  0.6861
 1773TIP3   OH226733   2.357   5.163   2.259 -0.1066 -0.8418  0.3983
 1773TIP3    H126734   2.353   5.068   2.267 -0.9855 -0.8397  0.0512
 1773TIP3    H226735   2.388   5.193   2.344 -2.9713 -1.2330  1.6633
 1774TIP3   OH226736   5.916   0.683  12.981 -0.6074  0.4144  0.5642
 1774TIP3    H126737   5.922   0.760  13.038 -0.7749  0.4535  0.5282
 1774TIP3    H226738   5.912   0.609  13.042  0.0214  0.4011  0.5949
 1775TIP3   OH226739   3.536   1.627   5.909 -0.2540 -0.2683  0.1273
 1775TIP3    H126740   3.565   1.552   5.961 -1.6550  0.7953  2.6044
 1775TIP3    H226741   3.611   1.687   5.910  0.1820 -0.7932 -0.2250
 1776TIP3   OH226742   0.727   4.208  13.981  0.4104 -0.7745  0.5812
 1776TIP3    H126743   0.661   4.203  13.913 -0.7192 -1.0069  1.6628
 1776TIP3    H226744   0.678   4.211  14.063  1.7154 -0.1726  1.3885
 1777TIP3   OH226745   5.729   4.443  14.680  0.5195 -0.0786  0.3460
 1777TIP3    H126746   5.745   4.407  14.593 -0.1109 -0.7211  0.4847
 1777TIP3    H226747   5.635   4.429  14.694  0.6474 -0.1164  1.1889
 1778TIP3   OH226748   0.551   0.331   3.476 -0.3650 -0.5357 -0.2504
 1778TIP3    H126749   0.472   0.383   3.489  0.9892  1.6238 -0.2675
 1778TIP3    H226750   0.600   0.341   3.558  1.4246  1.0209 -1.4322
 1779TIP3   OH226751   2.896   0.132   0.884 -0.2604 -0.3608  0.1436
 1779TIP3    H126752   2.909   0.145   0.978  1.8685 -1.6994  0.0981
 1779TIP3    H226753   2.872   0.040   0.875 -0.4492 -0.2485 -0.6290
 1780TIP3   OH226754   3.993   1.410   3.039  0.5716 -0.2735 -0.1799
 1780TIP3    H126755   3.967   1.442   2.953  0.6932  1.0785  0.2716
 1780TIP3    H226756   4.024   1.321   3.023 -1.5862 -0.9107 -1.1791
 1781TIP3   OH226757   4.588   6.600   2.994 -0.3046 -0.1622 -0.0827
 1781TIP3    H126758   4.569   6.669   3.058 -0.4090 -0.5338  0.2915
 1781TIP3    H226759   4.549   6.632   2.913 -1.0653 -0.1468  0.2762
 1782TIP3   OH226760   5.057   6.683   2.990  0.0012 -0.1167  0.3291
 1782TIP3    H126761   4.982   6.719   3.037 -1.8337  1.5160 -3.3742
 1782TIP3    H226762   5.018   6.630   2.920  2.4802 -1.8303  0.0980
 1783TIP3   OH226763   1.610   2.619  12.511  0.5601 -0.4051 -0.5164
 1783TIP3    H126764   1.555   2.668  12.572 -0.2599 -0.4887 -1.1723
 1783TIP3    H226765   1.566   2.627  12.427 -0.4203 -3.4026 -0.4255
 1784TIP3   OH226766   0.183   2.088   6.142  0.0959 -0.1970 -0.1188
 1784TIP3    H126767   0.209   2.073   6.234 -0.7537  0.3357  0.2150
 1784TIP3    H226768   0.245   2.154   6.111 -0.4212  0.6058  0.4894
 1785TIP3   OH226769   1.367   5.149   5.455 -0.6719  0.0166 -0.7575
 1785TIP3    H126770   1.314   5.080   5.495 -0.0463 -0.0277  0.0151
 1785TIP3    H226771   1.432   5.102   5.403 -0.3067  0.0164 -0.3089
 1786TIP3   OH226772   3.969   2.439   4.260 -0.0704  0.7364  0.2018
 1786TIP3    H126773   3.925   2.357   4.238 -0.5883  1.1072 -0.2016
 1786TIP3    H226774   4.040   2.445   4.197  1.4830 -0.5543  1.7498
 1787TIP3   OH226775   1.133   0.877  13.253  0.1012 -0.5562  0.0342
 1787TIP3    H126776   1.094   0.916  13.175  1.2653  0.1064 -0.2369
 1787TIP3    H226777   1.068   0.892  13.322 -1.0232 -1.3107 -0.8149
 1788TIP3   OH226778   1.475   1.907   0.187 -0.1916  0.1988 -0.2534
 1788TIP3    H126779   1.482   1.979   0.249  0.5741  0.6154 -0.8054
 1788TIP3    H226780   1.383   1.880   0.191 -0.0776 -0.0221  1.2991
 1789TIP3   OH226781   4.648   4.140  16.671 -0.4652 -0.1551  0.0754
 1789TIP3    H126782   4.657   4.127  16.765  0.9551  1.6003  0.2416
 1789TIP3    H226783   4.716   4.084  16.632 -1.6665 -1.6080 -0.0131
 1790TIP3   OH226784   3.039   3.481   5.115 -0.0571 -0.5346 -0.1157
 1790TIP3    H126785   3.054   3.387   5.108  0.4501 -0.5047  0.5471
 1790TIP3    H226786   3.038   3.511   5.024 -2.7724 -1.5415 -0.4925
 1791TIP3   OH226787   5.990   1.540  12.777  0.5215  0.2322 -0.2379
 1791TIP3    H126788   5.980   1.625  12.819  0.7013  0.0033  0.2790
 1791TIP3    H226789   5.901   1.504  12.774  0.0953  1.3213 -2.3978
 1792TIP3   OH226790   4.852   6.003   3.700  0.3414  0.0809 -0.2639
 1792TIP3    H126791   4.861   5.917   3.742  0.2853  0.8335  1.3602
 1792TIP3    H226792   4.796   6.053   3.760 -0.5475  0.9158 -1.7406
 1793TIP3   OH226793   3.518   5.976  17.094  0.3680 -0.5085  0.0694
 1793TIP3    H126794   3.534   6.002  17.185 -2.3986 -1.5079  0.9504
 1793TIP3    H226795   3.599   5.998  17.048  0.4990  3.7835  1.8989
 1794TIP3   OH226796   4.857   2.330   1.621 -0.2340  0.0909 -0.3438
 1794TIP3    H126797   4.782   2.275   1.599  0.1685 -0.7208  0.2425
 1794TIP3    H226798   4.878   2.307   1.712  0.6008  0.4288 -0.4423
 1795TIP3   OH226799   4.373   4.277   3.924  0.0321 -0.0018 -0.0267
 1795TIP3    H126800   4.333   4.203   3.877  0.7882  0.1113 -0.8742
 1795TIP3    H226801   4.387   4.343   3.856  1.3891  0.0639  0.3101
 1796TIP3   OH226802   5.782   5.218   2.629  0.4933  0.2980 -0.2258
 1796TIP3    H126803   5.836   5.208   2.707  0.2810  1.3015  0.0601
 1796TIP3    H226804   5.819   5.155   2.566  0.9382 -0.2051  0.5207
 1797TIP3   OH226805   4.918   2.198   2.591 -0.1260  0.0065  1.1332
 1797TIP3    H126806   4.945   2.243   2.671 -0.8362 -2.0383  2.6232
 1797TIP3    H226807   4.999   2.163   2.555  0.4358  2.2861 -0.0332
 1798TIP3   OH226808   3.811   6.127  15.298  0.2652 -0.0123  0.3904
 1798TIP3    H126809   3.747   6.056  15.292 -1.2346  1.3345 -0.2852
 1798TIP3    H226810   3.804   6.159  15.388  1.0689 -0.7918  0.7487
 1799TIP3   OH226811   6.116   0.626   3.975  0.3598  0.5259 -0.7158
 1799TIP3    H126812   6.207   0.620   3.945  0.1934  0.8655 -1.3012
 1799TIP3    H226813   6.119   0.689   4.047  0.7564 -0.2719 -0.0183
 1800TIP3   OH226814   5.103   0.902   5.266  0.0717 -0.0927  0.9246
 1800TIP3    H126815   5.176   0.868   5.214  0.1370  0.0383  0.9288
 1800TIP3    H226816   5.026   0.859   5.230  0.2641 -1.0632  1.6325
 1801TIP3   OH226817   0.274   4.660  16.000  0.5704 -0.2975 -0.3030
 1801TIP3    H126818   0.230   4.745  15.998  1.6122  0.2678 -1.7803
 1801TIP3    H226819   0.206   4.598  16.025 -0.0970  1.0144  1.3324
 1802TIP3   OH226820   1.800   0.388   4.764 -0.2052  0.0300 -0.3048
 1802TIP3    H126821   1.838   0.421   4.845 -0.3483 -0.4585 -0.0283
 1802TIP3    H226822   1.715   0.432   4.758  0.4081  1.1671 -0.9569
 1803TIP3   OH226823   3.876   2.456   1.751  0.0853 -0.1444 -0.5062
 1803TIP3    H126824   3.888   2.396   1.677  2.6847 -0.3382  0.0019
 1803TIP3    H226825   3.926   2.534   1.728 -0.1019  0.2892  0.5085
 1804TIP3   OH226826   2.268   1.445   5.766 -0.8648 -0.3482 -0.0711
 1804TIP3    H126827   2.329   1.514   5.790  0.5557 -1.2238 -1.0085
 1804TIP3    H226828   2.182   1.480   5.788 -0.3287  2.2270 -1.6494
 1805TIP3   OH226829   1.158   2.554   0.416 -0.7005 -0.8819  0.0724
 1805TIP3    H126830   1.132   2.645   0.400  0.3819 -0.7850 -1.4348
 1805TIP3    H226831   1.088   2.502   0.376 -0.8361 -0.6925  0.0609
 1806TIP3   OH226832   2.046   0.612   5.453  0.1721 -0.2305 -0.1020
 1806TIP3    H126833   2.109   0.601   5.381 -1.5101 -0.1120 -1.6701
 1806TIP3    H226834   1.988   0.537   5.446 -1.6783  1.1660 -0.6741
 1807TIP3   OH226835   2.840   5.409  11.512 -0.6435 -0.5343 -0.2726
 1807TIP3    H126836   2.836   5.410  11.417 -1.1810  2.1889 -0.3017
 1807TIP3    H226837   2.931   5.384  11.532 -0.8855 -2.5445 -1.3799
 1808TIP3   OH226838   3.358   1.728  12.141  0.5813  0.1432 -0.2046
 1808TIP3    H126839   3.309   1.803  12.174 -0.1849 -0.0352 -0.9048
 1808TIP3    H226840   3.335   1.656  12.200  0.3852  0.1771 -0.2404
 1809TIP3   OH226841   1.879   0.111   1.722 -0.4077  0.2576  0.0196
 1809TIP3    H126842   1.879   0.120   1.627  1.1463 -0.5475 -0.0812
 1809TIP3    H226843   1.794   0.145   1.749  0.0528  2.8224 -1.4272
 1810TIP3   OH226844   4.149   5.343  12.373 -0.4492 -0.5241 -0.3508
 1810TIP3    H126845   4.239   5.360  12.399 -0.7403 -1.0352  1.1017
 1810TIP3    H226846   4.154   5.268  12.314  0.1543  0.0910 -1.0982
 1811TIP3   OH226847   3.714   4.903   4.052  0.2704  0.4052 -0.5838
 1811TIP3    H126848   3.793   4.849   4.065  0.9263  1.5904  0.7171
 1811TIP3    H226849   3.650   4.866   4.113  1.2565  2.0173  1.5514
 1812TIP3   OH226850   3.881   5.418   4.230 -0.0459 -0.1499  0.2984
 1812TIP3    H126851   3.893   5.503   4.273  0.0755  0.5130 -0.9892
 1812TIP3    H226852   3.961   5.369   4.250  0.1251  0.2438  0.5956
 1813TIP3   OH226853   5.879   6.027   0.530 -0.3738 -0.2384  0.5741
 1813TIP3    H126854   5.968   6.019   0.496  0.6155  1.3777  2.5719
 1813TIP3    H226855   5.878   5.973   0.609 -1.3319 -0.5979  0.3373
 1814TIP3   OH226856   5.545   2.486  14.966 -0.1236 -0.0619  0.2323
 1814TIP3    H126857   5.589   2.413  14.922 -0.1222 -0.4215  0.8160
 1814TIP3    H226858   5.453   2.458  14.971 -0.1371  0.0097  0.3873
 1815TIP3   OH226859   6.457   4.059   2.716 -0.2078 -0.5963  0.1804
 1815TIP3    H126860   6.415   3.974   2.711 -0.2979 -0.5049 -0.8063
 1815TIP3    H226861   6.462   4.079   2.809 -1.4309 -1.0590  0.3522
 1816TIP3   OH226862   5.105   1.726   2.286  0.6319  0.2336 -0.7597
 1816TIP3    H126863   5.075   1.656   2.227  0.9326 -0.9824  0.4918
 1816TIP3    H226864   5.182   1.689   2.329  0.2234  0.9822  0.6433
 1817TIP3   OH226865   2.315   6.020  11.205 -0.1502  0.0807 -0.2891
 1817TIP3    H126866   2.255   6.042  11.133  0.5268  0.5018 -0.7434
 1817TIP3    H226867   2.272   6.054  11.283  0.4239  2.3132 -0.8532
 1818TIP3   OH226868   0.320   0.988  10.968  0.0936 -0.6072 -0.1779
 1818TIP3    H126869   0.318   0.929  10.893 -0.4546 -0.4419 -0.2979
 1818TIP3    H226870   0.251   1.052  10.951 -0.7186 -1.1495  0.9305
 1819TIP3   OH226871   3.678   0.765  16.282 -0.2450 -0.2888  0.4826
 1819TIP3    H126872   3.655   0.858  16.294  0.2400 -0.0084 -0.5818
 1819TIP3    H226873   3.708   0.736  16.368  1.0530  0.9878  0.5123
 1820TIP3   OH226874   3.807   0.738   3.900 -0.4423  0.4239 -0.5194
 1820TIP3    H126875   3.845   0.666   3.851  1.2379  0.8498  0.1003
 1820TIP3    H226876   3.838   0.817   3.855 -0.3106  0.7908  0.1915
 1821TIP3   OH226877   3.841   0.279   2.554  0.2903 -0.0672 -0.0468
 1821TIP3    H126878   3.785   0.205   2.573 -5.0210  3.6286  0.8318
 1821TIP3    H226879   3.830   0.294   2.460 -0.1384  0.6052  0.1049
 1822TIP3   OH226880   3.593   5.915   0.694 -0.2348  0.2848  0.1143
 1822TIP3    H126881   3.625   5.911   0.604  0.9433  1.4623  0.4524
 1822TIP3    H226882   3.525   5.848   0.698  0.3955 -0.4969 -1.3662
 1823TIP3   OH226883   2.646   2.483  12.221  0.4861  0.4100 -0.2826
 1823TIP3    H126884   2.571   2.456  12.274  0.3668  1.3968  0.0763
 1823TIP3    H226885   2.625   2.452  12.133  0.6728 -1.2177  0.2175
 1824TIP3   OH226886   6.077   0.077   3.957  0.3071  0.4392  0.3084
 1824TIP3    H126887   6.027   0.055   4.036  0.1455 -2.6676 -0.5433
 1824TIP3    H226888   6.073   0.173   3.953 -2.3310  0.5501  2.3647
 1825TIP3   OH226889   4.136   0.137   0.010 -0.2030  0.2722  0.1977
 1825TIP3    H126890   4.076   0.068   0.039 -0.5103  0.2968 -0.3743
 1825TIP3    H226891   4.122   0.208   0.072  0.7154 -0.4598  1.3120
 1826TIP3   OH226892   3.280   0.769  12.978 -1.2564 -0.7169 -0.6835
 1826TIP3    H126893   3.266   0.821  13.058 -0.9009 -0.6574 -0.6587
 1826TIP3    H226894   3.375   0.761  12.971 -1.3130 -1.6898 -0.4796
 1827TIP3   OH226895   2.758   6.218   3.465  0.0691  0.2081  0.0319
 1827TIP3    H126896   2.754   6.122   3.470 -1.5188  0.2794  0.5421
 1827TIP3    H226897   2.667   6.245   3.459  0.5299  1.6742 -0.7115
 1828TIP3   OH226898   1.578   1.075  14.799  0.3645  0.4527  0.1889
 1828TIP3    H126899   1.651   1.019  14.774 -0.3544  0.1096 -1.2463
 1828TIP3    H226900   1.601   1.107  14.886  1.9240 -0.1359  0.0235
 1829TIP3   OH226901   0.269   1.027  13.382 -0.3784 -0.7042  0.1802
 1829TIP3    H126902   0.349   0.986  13.348 -0.6891 -0.3946 -0.9928
 1829TIP3    H226903   0.224   0.957  13.429  0.5895 -0.8749  0.8753
 1830TIP3   OH226904   2.699   0.284   2.081 -0.0838 -0.7775  0.0964
 1830TIP3    H126905   2.655   0.336   2.014  0.4150 -0.9131 -0.3452
 1830TIP3    H226906   2.737   0.348   2.140  2.1111 -0.5393 -1.4533
 1831TIP3   OH226907   2.678   5.193   4.381 -0.1581 -0.3264 -0.6343
 1831TIP3    H126908   2.724   5.273   4.409 -1.6541  0.3559  0.0121
 1831TIP3    H226909   2.706   5.180   4.291  1.0405  0.2392 -0.3688
 1832TIP3   OH226910   4.755   1.750  14.577 -0.0386 -0.3878 -0.2055
 1832TIP3    H126911   4.798   1.665  14.583  0.3644 -0.2791 -1.2930
 1832TIP3    H226912   4.825   1.810  14.551 -0.1066  0.4828  1.5076
 1833TIP3   OH226913   2.440   4.325   0.279  0.1281  0.6321 -0.3809
 1833TIP3    H126914   2.488   4.352   0.200 -0.0138  1.0713 -0.3232
 1833TIP3    H226915   2.496   4.353   0.351 -0.8255  2.4189 -0.2780
 1834TIP3   OH226916   4.884   2.966  14.337 -0.3540 -0.1656 -0.0638
 1834TIP3    H126917   4.893   3.024  14.412 -0.6040  1.7870 -1.4572
 1834TIP3    H226918   4.817   2.902  14.363  0.9718 -0.7783  2.0400
 1835TIP3   OH226919   3.467   3.898   1.250 -0.3857 -0.2765  0.5915
 1835TIP3    H126920   3.528   3.830   1.221  1.7262  1.0939  1.5618
 1835TIP3    H226921   3.428   3.932   1.169  1.8794  0.3121 -0.3393
 1836TIP3   OH226922   0.749   4.323  16.665  0.3590  0.7217 -0.0827
 1836TIP3    H126923   0.813   4.381  16.706 -1.2159  2.4257  0.0725
 1836TIP3    H226924   0.720   4.371  16.587  1.2000 -1.2027 -1.6638
 1837TIP3   OH226925   4.416   4.700  16.785  0.4409  0.2108 -0.1147
 1837TIP3    H126926   4.370   4.773  16.742  0.7716  0.6836  0.3150
 1837TIP3    H226927   4.364   4.682  16.864  1.0046  0.7810  0.3986
 1838TIP3   OH226928   1.062   6.504   3.522 -0.4145 -0.2615 -0.2155
 1838TIP3    H126929   1.090   6.439   3.457 -2.3079 -2.0326  0.6158
 1838TIP3    H226930   0.981   6.468   3.558  0.7274  0.4126  3.4185
 1839TIP3   OH226931   2.048   0.355  14.065 -0.1785 -0.3577  0.1456
 1839TIP3    H126932   1.981   0.395  14.009 -0.1860  0.2049  0.5530
 1839TIP3    H226933   2.131   0.378  14.022 -0.1055  1.1212  0.9819
 1840TIP3   OH226934   5.942   3.606  16.951  0.0505  0.6762 -0.5730
 1840TIP3    H126935   5.942   3.701  16.946  0.1978  0.8598  1.7205
 1840TIP3    H226936   5.865   3.584  17.003 -0.5951 -0.5619 -1.9860
 1841TIP3   OH226937   0.526   1.872   1.028  0.3085 -0.4015  0.1235
 1841TIP3    H126938   0.466   1.944   1.045 -0.0207 -0.6156 -0.1268
 1841TIP3    H226939   0.581   1.868   1.106 -1.7886 -2.0043  1.6336
 1842TIP3   OH226940   0.416   4.279  11.635 -0.0397 -0.1135 -0.3928
 1842TIP3    H126941   0.401   4.365  11.677 -0.7643  0.3250 -1.5043
 1842TIP3    H226942   0.498   4.290  11.587  1.1982 -0.8516  1.4258
 1843TIP3   OH226943   1.139   4.996  16.528  0.4623 -0.2551  0.4817
 1843TIP3    H126944   1.096   4.922  16.485  1.3224 -1.3053  1.3428
 1843TIP3    H226945   1.181   4.956  16.605  0.9662  1.1400  0.9470
 1844TIP3   OH226946   2.734   6.028  15.795 -0.3074 -0.2298  0.5041
 1844TIP3    H126947   2.726   6.083  15.717 -0.8199 -0.2211  0.5566
 1844TIP3    H226948   2.814   5.978  15.782  0.7637  1.3046  0.9491
 1845TIP3   OH226949   1.586   5.996  12.635  0.2795  0.6622 -0.0434
 1845TIP3    H126950   1.515   5.959  12.582  1.5516 -1.2190 -0.5072
 1845TIP3    H226951   1.644   6.037  12.572  1.2525 -0.6560 -0.0347
 1846TIP3   OH226952   2.922   1.049   3.788  0.0287  0.4108 -0.0449
 1846TIP3    H126953   2.884   1.076   3.871  1.1433  0.9039  0.3283
 1846TIP3    H226954   2.972   1.125   3.759  0.1172  0.0467 -0.8899
 1847TIP3   OH226955   3.070   2.862   0.889  0.3277 -0.2037  0.2221
 1847TIP3    H126956   3.007   2.803   0.847  1.1670 -0.5977 -0.5118
 1847TIP3    H226957   3.141   2.804   0.919  1.9113  0.5368 -1.8544
 1848TIP3   OH226958   1.222   3.250  16.537 -0.1756  0.2491 -0.2289
 1848TIP3    H126959   1.160   3.246  16.464  0.1962  1.1778 -0.6239
 1848TIP3    H226960   1.292   3.308  16.505  0.8285 -0.6649  0.2433
 1849TIP3   OH226961   2.315   4.523  10.719  0.0965 -0.1655  0.1926
 1849TIP3    H126962   2.358   4.497  10.637 -0.6059  1.0662 -0.6051
 1849TIP3    H226963   2.266   4.601  10.696 -0.2044  0.1502  1.7902
 1850TIP3   OH226964   6.548   2.848   1.095  0.3674 -0.0200 -0.1304
 1850TIP3    H126965   6.541   2.839   1.000  1.3537 -1.2102 -0.1095
 1850TIP3    H226966   6.539   2.759   1.128  0.4929  0.3258  0.8625
 1851TIP3   OH226967   0.978   2.185   1.499 -0.3392  0.2215  0.8101
 1851TIP3    H126968   0.927   2.190   1.580 -0.1959  0.3733  0.8934
 1851TIP3    H226969   0.927   2.234   1.435  0.3293  1.5220  1.2339
 1852TIP3   OH226970   2.662   2.881  13.318  0.3295 -0.0093  0.6607
 1852TIP3    H126971   2.619   2.961  13.289  1.1841  0.2562  0.0843
 1852TIP3    H226972   2.700   2.843  13.238  1.8125  0.1779  1.2493
 1853TIP3   OH226973   4.818   2.532   2.589 -0.4078  0.3667 -0.2056
 1853TIP3    H126974   4.902   2.551   2.546  0.0241 -0.5379  0.2075
 1853TIP3    H226975   4.763   2.496   2.520 -1.0382  2.4520 -0.8622
 1854TIP3   OH226976   1.445   4.877   5.525 -0.0393 -0.0846  0.5946
 1854TIP3    H126977   1.486   4.909   5.444 -1.1321  1.4219  0.5985
 1854TIP3    H226978   1.510   4.896   5.593  0.7937 -1.1584  0.1356
 1855TIP3   OH226979   3.084   3.249   2.765 -0.6631 -0.6289 -0.3069
 1855TIP3    H126980   3.175   3.221   2.756 -0.4953  0.3345 -2.4054
 1855TIP3    H226981   3.063   3.236   2.857  1.6395 -0.7480  0.2571
 1856TIP3   OH226982   4.515   4.965   1.324  0.3605  0.0296  0.2791
 1856TIP3    H126983   4.502   4.902   1.395  1.6552  0.2485  0.7303
 1856TIP3    H226984   4.506   4.913   1.244 -1.6962 -0.1125  0.5378
 1857TIP3   OH226985   6.654   4.736  16.109 -0.2618  0.4044 -0.0034
 1857TIP3    H126986   6.559   4.748  16.111  0.0039  3.0689  0.7276
 1857TIP3    H226987   6.675   4.693  16.192 -0.6943  1.7077  0.8180
 1858TIP3   OH226988   2.645   2.982  11.034  0.3675  0.0449 -0.4136
 1858TIP3    H126989   2.555   3.013  11.048  0.2508 -0.8794  1.0960
 1858TIP3    H226990   2.639   2.924  10.958 -0.8566 -1.9868  1.1368
 1859TIP3   OH226991   3.628   2.726  16.671  0.1894  0.2531 -0.1037
 1859TIP3    H126992   3.597   2.785  16.740 -0.0954 -1.3676  1.2091
 1859TIP3    H226993   3.581   2.644  16.686  1.1775 -0.5873 -1.3602
 1860TIP3   OH226994   6.744   0.996   4.016  0.9802 -0.6002 -0.5370
 1860TIP3    H126995   6.749   1.012   4.110 -0.5409  0.5621 -0.6101
 1860TIP3    H226996   6.779   0.908   4.004  0.3604 -1.1144  1.2116
 1861TIP3   OH226997   1.483   0.970   5.395 -0.1169 -0.3392 -0.0256
 1861TIP3    H126998   1.392   0.971   5.364  0.7322 -0.2531 -2.8367
 1861TIP3    H226999   1.518   0.887   5.361  1.1471  0.1877 -0.0350
 1862TIP3   OH227000   6.495   0.943   0.960  0.0585  0.2906  0.1370
 1862TIP3    H127001   6.417   0.955   0.906 -1.1653 -0.5549  1.6751
 1862TIP3    H227002   6.568   0.953   0.898 -1.2378  1.0514 -1.3347
 1863TIP3   OH227003   0.816   4.815  13.966  0.0666  0.1501  0.1460
 1863TIP3    H127004   0.865   4.741  13.930 -0.3132  0.0576 -0.1937
 1863TIP3    H227005   0.840   4.889  13.912  1.5549  0.6083  1.3742
 1864TIP3   OH227006   3.490   1.343   2.408 -0.2181  0.0852  0.2823
 1864TIP3    H127007   3.516   1.398   2.334 -0.5003  0.1309  0.2176
 1864TIP3    H227008   3.568   1.340   2.464  0.0170 -0.0091 -0.0514
 1865TIP3   OH227009   1.086   2.596   6.027  0.3562  0.1838 -0.6088
 1865TIP3    H127010   1.069   2.618   6.119 -1.9800 -0.6341 -0.7859
 1865TIP3    H227011   1.096   2.501   6.026 -0.2587  0.1160 -1.2730
 1866TIP3   OH227012   1.693   1.385  15.814 -0.7068 -0.7499 -0.0835
 1866TIP3    H127013   1.616   1.349  15.859 -2.5101  1.6948 -1.0236
 1866TIP3    H227014   1.672   1.376  15.721  0.2736 -0.2854 -0.3545
 1867TIP3   OH227015   6.556   5.054  13.638 -0.1860 -0.3686 -0.0604
 1867TIP3    H127016   6.495   5.029  13.708 -0.7590 -0.8491 -0.7188
 1867TIP3    H227017   6.614   4.978  13.628  0.3911 -0.0011  0.4086
 1868TIP3   OH227018   2.280   5.497   2.260  0.1349 -0.3933 -0.4455
 1868TIP3    H127019   2.310   5.438   2.329 -0.4748  0.6487  0.7467
 1868TIP3    H227020   2.224   5.560   2.305  0.3121  0.7597 -1.7685
 1869TIP3   OH227021   0.723   2.266  13.427  0.3635 -0.5640  0.4570
 1869TIP3    H127022   0.728   2.172  13.412 -0.5605 -0.5931  0.2928
 1869TIP3    H227023   0.815   2.294  13.432  0.7466 -0.9920 -2.5551
 1870TIP3   OH227024   2.907   3.585  15.745 -0.1456  0.0996 -0.3080
 1870TIP3    H127025   2.961   3.659  15.773  0.0192  0.0040 -0.3728
 1870TIP3    H227026   2.855   3.620  15.672  0.5384 -0.0766 -0.8939
 1871TIP3   OH227027   3.168   1.293   3.466  0.3908 -0.1675 -0.5845
 1871TIP3    H127028   3.170   1.199   3.447 -0.2218  0.0359 -1.7992
 1871TIP3    H227029   3.143   1.333   3.382  0.0962  1.0326  0.0579
 1872TIP3   OH227030   6.429   1.378   5.236  0.1871  0.6992  0.1714
 1872TIP3    H127031   6.446   1.446   5.171  0.6516  0.6702  0.2630
 1872TIP3    H227032   6.484   1.400   5.310  0.6085  0.0365  0.0651
 1873TIP3   OH227033   0.483   2.477   4.218  0.6456  0.0145 -0.3451
 1873TIP3    H127034   0.548   2.445   4.281 -0.7623 -1.0721  0.6245
 1873TIP3    H227035   0.499   2.571   4.214  0.9748  0.0847  1.4560
 1874TIP3   OH227036   2.136   3.004   0.035 -0.5744 -0.0254 -0.0244
 1874TIP3    H127037   2.190   3.070  -0.007 -0.1808 -0.8162 -0.7984
 1874TIP3    H227038   2.072   3.054   0.086 -0.1350  0.9355 -0.3895
 1875TIP3   OH227039   4.043   1.053   4.455 -0.0898 -0.3243  0.6187
 1875TIP3    H127040   4.128   1.009   4.453 -0.1439 -0.4625  1.2674
 1875TIP3    H227041   4.035   1.094   4.369 -1.2664 -3.9010 -1.1481
 1876TIP3   OH227042   1.020   5.869  13.813  0.0348  0.9490  0.4033
 1876TIP3    H127043   1.051   5.958  13.792 -0.2891  0.8752 -0.4226
 1876TIP3    H227044   1.093   5.812  13.789 -0.0349  0.9297  0.2388
 1877TIP3   OH227045   2.750   4.869   1.574 -0.0983  0.7099  0.2890
 1877TIP3    H127046   2.716   4.937   1.632  0.4947  0.3625  1.0664
 1877TIP3    H227047   2.842   4.861   1.598 -0.0958 -0.1745  0.0269
 1878TIP3   OH227048   5.394   6.722   3.627 -0.1894 -0.0198 -0.9690
 1878TIP3    H127049   5.358   6.673   3.554  0.6230 -1.2523 -0.5713
 1878TIP3    H227050   5.471   6.672   3.654 -0.1051  0.7546  0.3151
 1879TIP3   OH227051   6.005   3.452  16.189 -0.6899  0.0089 -0.0521
 1879TIP3    H127052   5.996   3.361  16.161 -0.6175  0.0584 -0.2312
 1879TIP3    H227053   5.918   3.474  16.223 -0.1867 -0.7648  1.8797
 1880TIP3   OH227054   0.939   6.468  15.343 -0.9588  0.0910  0.7830
 1880TIP3    H127055   0.980   6.475  15.429 -0.3218 -0.7580  0.5547
 1880TIP3    H227056   1.012   6.471  15.281 -1.0991 -2.4313  0.4095
 1881TIP3   OH227057   1.575   5.409   1.487 -0.6640  0.2533 -0.0163
 1881TIP3    H127058   1.658   5.457   1.483 -0.5408  0.3516  2.2040
 1881TIP3    H227059   1.594   5.335   1.546 -2.1977  0.4273  0.7500
 1882TIP3   OH227060   0.064   0.460  16.980  0.3113  0.6061  0.0443
 1882TIP3    H127061   0.052   0.528  16.914  2.3797 -0.6854 -1.7953
 1882TIP3    H227062   0.129   0.496  17.040  2.0907  0.0218 -1.4339
 1883TIP3   OH227063   3.656   4.182   2.989 -0.3191 -0.3005  0.2192
 1883TIP3    H127064   3.605   4.257   3.020 -0.8096 -0.5889  0.1174
 1883TIP3    H227065   3.629   4.110   3.045 -0.4418 -0.5880 -0.2108
 1884TIP3   OH227066   2.261   2.490   3.301 -0.1191  0.2337  0.1790
 1884TIP3    H127067   2.225   2.427   3.363 -0.6802  0.3065 -0.0746
 1884TIP3    H227068   2.245   2.575   3.341 -1.2283  0.3289 -0.4484
 1885TIP3   OH227069   4.396   2.851  14.318  0.0343  0.3443 -0.3374
 1885TIP3    H127070   4.367   2.917  14.255 -1.6044  0.0144  0.0189
 1885TIP3    H227071   4.315   2.815  14.354  0.9210 -0.3110  1.0935
 1886TIP3   OH227072   1.371   6.584  12.577  0.3807 -0.1652 -0.1810
 1886TIP3    H127073   1.325   6.507  12.545  0.1177 -0.3214  0.5310
 1886TIP3    H227074   1.369   6.646  12.504 -0.2151 -0.4918 -0.4480
 1887TIP3   OH227075   0.296   4.448   1.624 -0.2664  0.0147  0.2789
 1887TIP3    H127076   0.230   4.497   1.673 -1.4489  0.2932 -1.4985
 1887TIP3    H227077   0.367   4.511   1.611  0.0107 -0.0228  1.4691
 1888TIP3   OH227078   5.060   2.147  11.279  0.2223 -0.1243 -0.0337
 1888TIP3    H127079   5.057   2.052  11.269  1.6507 -0.0204 -2.0810
 1888TIP3    H227080   4.971   2.171  11.307 -0.5326 -1.9449 -0.6890
 1889TIP3   OH227081   4.461   4.256   3.305  0.4400  0.5054  0.3674
 1889TIP3    H127082   4.404   4.257   3.228  0.9778  1.7184 -0.0350
 1889TIP3    H227083   4.549   4.271   3.270  0.7015  0.9593  1.1934
 1890TIP3   OH227084   5.539   2.075   4.417 -0.0861  0.1766 -0.3106
 1890TIP3    H127085   5.462   2.128   4.439 -0.7532  0.0179 -2.1396
 1890TIP3    H227086   5.511   2.021   4.343  2.4923  1.8980 -2.7314
 1891TIP3   OH227087   5.729   2.238   2.589 -0.2612 -0.3286  0.1846
 1891TIP3    H127088   5.744   2.179   2.515 -1.5856 -1.1098  0.5173
 1891TIP3    H227089   5.744   2.325   2.554  1.5610 -0.8181 -0.3701
 1892TIP3   OH227090   4.010   3.863   3.460 -0.3799 -0.4077 -0.1434
 1892TIP3    H127091   3.925   3.903   3.444 -0.8310 -0.8377  1.1374
 1892TIP3    H227092   4.072   3.922   3.417 -1.2421  0.3800 -0.3325
 1893TIP3   OH227093   5.800   2.591   4.681  0.2154  0.2120 -0.1756
 1893TIP3    H127094   5.818   2.568   4.771 -0.4209 -0.7004 -0.2692
 1893TIP3    H227095   5.708   2.617   4.681  0.5503  1.4647 -0.3309
 1894TIP3   OH227096   4.941   2.502   4.292 -0.3784 -0.2774  0.1319
 1894TIP3    H127097   4.892   2.571   4.247 -0.2036  1.1106  1.9333
 1894TIP3    H227098   4.890   2.484   4.371  0.1534 -1.4569  0.2308
 1895TIP3   OH227099   0.123   1.304   2.358 -0.0269  0.3009 -0.1884
 1895TIP3    H127100   0.113   1.326   2.451  0.8355  0.1102 -0.0419
 1895TIP3    H227101   0.038   1.325   2.320  0.1350  2.0526  0.3111
 1896TIP3   OH227102   4.033   5.106  12.484  0.0093 -0.4452 -0.3383
 1896TIP3    H127103   4.078   5.103  12.400  1.2050  3.3348 -0.0277
 1896TIP3    H227104   4.034   5.016  12.516  1.5595 -1.5912 -3.3027
 1897TIP3   OH227105   3.808   0.127  16.809  0.0308 -0.1469 -0.0117
 1897TIP3    H127106   3.760   0.197  16.853  0.7394  1.1514 -1.2107
 1897TIP3    H227107   3.858   0.172  16.740  0.9526 -1.7678 -0.4533
 1898TIP3   OH227108   1.986   6.096  15.818  0.4199  0.2712 -0.0346
 1898TIP3    H127109   2.018   6.081  15.907  0.4284  0.4677 -0.0058
 1898TIP3    H227110   1.983   6.008  15.779 -2.8365 -0.3524  1.2550
 1899TIP3   OH227111   2.413   5.106   0.541  0.1645 -0.1311 -0.6515
 1899TIP3    H127112   2.505   5.079   0.538  0.4945  0.9882 -0.8052
 1899TIP3    H227113   2.404   5.152   0.625  0.2136  1.3572 -1.4327
 1900TIP3   OH227114   4.900   5.849  14.933  0.0523  0.1096  0.8190
 1900TIP3    H127115   4.897   5.880  14.843 -1.1168  1.4481  1.2664
 1900TIP3    H227116   4.988   5.815  14.945  0.5711  0.9188 -0.5160
 1901TIP3   OH227117   0.332   4.946  12.618  0.0188  0.0665  0.2751
 1901TIP3    H127118   0.310   4.864  12.573  0.2534 -1.4067  2.6943
 1901TIP3    H227119   0.281   5.013  12.572 -1.9729 -1.7750 -0.3524
 1902TIP3   OH227120   1.459   1.927   6.558 -0.4201  0.3137  0.4408
 1902TIP3    H127121   1.373   1.890   6.538  0.3888 -2.5385  1.7282
 1902TIP3    H227122   1.521   1.856   6.538  1.6217  2.0606  0.1477
 1903TIP3   OH227123   3.375   5.354  13.057  0.3703 -0.2719  0.1950
 1903TIP3    H127124   3.416   5.269  13.040  1.1236  0.4032 -1.6352
 1903TIP3    H227125   3.337   5.380  12.973  2.3857  2.3211 -0.0700
 1904TIP3   OH227126   2.494   5.655  14.977  0.0263  0.2661  0.5694
 1904TIP3    H127127   2.522   5.579  15.028 -0.1820 -0.7295 -0.7520
 1904TIP3    H227128   2.400   5.641  14.963  0.0612  0.5646  0.0040
 1905TIP3   OH227129   3.835   5.820   0.806 -0.4488 -0.2711  0.1039
 1905TIP3    H127130   3.747   5.857   0.798 -0.3771 -0.0449  0.3451
 1905TIP3    H227131   3.820   5.726   0.820 -0.6343 -0.3139 -0.3702
 1906TIP3   OH227132   6.126   2.805   1.238 -0.5081 -0.0616  0.1797
 1906TIP3    H127133   6.105   2.724   1.191 -0.8122  0.0738  0.0754
 1906TIP3    H227134   6.136   2.777   1.329  0.1772 -0.3381  0.0249
 1907TIP3   OH227135   2.681   0.553  13.142  0.3218  0.1272 -0.0978
 1907TIP3    H127136   2.766   0.596  13.134  1.1633 -1.0935  1.6633
 1907TIP3    H227137   2.620   0.613  13.100  1.8087  1.8526  0.0963
 1908TIP3   OH227138   3.472   3.366  14.313 -0.2292 -0.0698  0.3696
 1908TIP3    H127139   3.414   3.380  14.388  1.6501 -2.5976  2.5154
 1908TIP3    H227140   3.469   3.271  14.299  0.7975  0.1568 -1.6593
 1909TIP3   OH227141   1.021   2.901  16.709 -0.2242 -0.5237  0.8331
 1909TIP3    H127142   1.042   2.907  16.803  0.3228  1.0035  0.6477
 1909TIP3    H227143   1.103   2.924  16.665 -0.9653  0.7065  0.0280
 1910TIP3   OH227144   4.694   2.357  13.552  0.3289  0.1008  0.4814
 1910TIP3    H127145   4.662   2.268  13.569 -1.3888  0.8183  1.2778
 1910TIP3    H227146   4.775   2.363  13.601 -0.7238 -0.3160  2.3718
 1911TIP3   OH227147   0.331   1.387  11.857 -0.4584 -0.3163  0.0905
 1911TIP3    H127148   0.266   1.323  11.829 -0.5447  0.2000 -0.9222
 1911TIP3    H227149   0.391   1.395  11.783  1.1441 -1.2281  1.2118
 1912TIP3   OH227150   2.675   4.072   4.852 -0.2614  0.4963  0.1966
 1912TIP3    H127151   2.705   4.090   4.763 -1.3532 -0.5998 -0.4159
 1912TIP3    H227152   2.597   4.018   4.841  0.5893 -1.1953  1.8463
 1913TIP3   OH227153   4.951   3.100  16.275  0.4300 -0.0488  0.1248
 1913TIP3    H127154   4.987   3.049  16.348 -1.3548 -2.3587 -0.4906
 1913TIP3    H227155   4.866   3.129  16.306 -0.1784 -0.7158 -0.8391
 1914TIP3   OH227156   2.669   0.332  16.253 -0.3214 -0.4685 -0.2289
 1914TIP3    H127157   2.698   0.333  16.162  0.0896  2.0042 -0.1540
 1914TIP3    H227158   2.740   0.288  16.300  0.2519 -0.3054 -0.9137
 1915TIP3   OH227159   4.510   5.306  11.834 -0.0335  0.1906  0.1394
 1915TIP3    H127160   4.588   5.341  11.878  1.0813 -1.3098 -0.5655
 1915TIP3    H227161   4.524   5.212  11.832 -0.1615  0.1383 -3.1167
 1916TIP3   OH227162   5.273   4.586  12.541  0.0433 -0.1316  0.2797
 1916TIP3    H127163   5.332   4.518  12.573  0.1093  0.1418  0.7397
 1916TIP3    H227164   5.204   4.538  12.495  0.0696 -0.5120  0.6318
 1917TIP3   OH227165   5.071   5.895   4.576 -0.1191  0.6583  0.2353
 1917TIP3    H127166   5.130   5.913   4.650 -1.7104  1.0462  1.4594
 1917TIP3    H227167   5.068   5.978   4.528  1.0741  0.3493 -0.4240
 1918TIP3   OH227168   0.775   3.313   5.220 -0.2141 -0.1289 -0.1959
 1918TIP3    H127169   0.766   3.408   5.230  1.7283 -0.0733  1.8955
 1918TIP3    H227170   0.868   3.300   5.200 -0.2902 -1.6290  0.3178
 1919TIP3   OH227171   6.347   6.269   3.792  0.6865 -0.0863 -0.3357
 1919TIP3    H127172   6.436   6.297   3.813  0.0575  2.4761 -0.7558
 1919TIP3    H227173   6.357   6.209   3.719  1.9661  2.7131 -2.6505
 1920TIP3   OH227174   5.884   3.243  12.801  0.7156  0.0646 -0.3970
 1920TIP3    H127175   5.905   3.273  12.712  1.4821 -0.9850 -0.5866
 1920TIP3    H227176   5.796   3.275  12.817  1.0002  1.2665 -1.0867
 1921TIP3   OH227177   0.672   0.372  12.890  0.1164 -0.1554 -0.4107
 1921TIP3    H127178   0.748   0.424  12.918  1.2725 -1.3341 -1.2717
 1921TIP3    H227179   0.701   0.281  12.899 -1.5144 -0.6589  0.0715
 1922TIP3   OH227180   4.431   6.500  14.544 -0.2393 -0.1560 -0.5420
 1922TIP3    H127181   4.374   6.444  14.597 -0.1826 -0.5328 -0.8689
 1922TIP3    H227182   4.371   6.550  14.489 -0.2533 -0.5990 -0.9316
 1923TIP3   OH227183   5.923   2.110   2.767  0.4181 -0.0371 -0.0144
 1923TIP3    H127184   5.838   2.143   2.738  0.1248  0.8932  1.7078
 1923TIP3    H227185   5.978   2.112   2.689 -1.4209 -1.8265 -1.4763
 1924TIP3   OH227186   4.169   0.928   2.960  0.4310  0.5423  0.2398
 1924TIP3    H127187   4.107   0.868   3.000  0.0661  0.2859 -0.6949
 1924TIP3    H227188   4.178   0.898   2.870 -0.2021  2.1965 -0.4294
 1925TIP3   OH227189   0.525   6.650  15.928  0.2813 -0.0581 -0.3136
 1925TIP3    H127190   0.452   6.604  15.887 -0.3622  0.0991  0.6267
 1925TIP3    H227191   0.491   6.738  15.944  0.2394 -0.3427  1.2609
 1926TIP3   OH227192   4.488   3.129  12.031 -0.2412  0.2581  0.3820
 1926TIP3    H127193   4.558   3.188  12.003 -1.1596  1.4014  0.3873
 1926TIP3    H227194   4.483   3.141  12.126  1.3197 -1.8557  0.7795
 1927TIP3   OH227195   4.633   5.975  14.976 -0.0192  0.4381 -0.2208
 1927TIP3    H127196   4.684   6.052  15.003 -0.8519  0.6776  0.7208
 1927TIP3    H227197   4.640   5.914  15.049 -2.6745  1.2767  0.8515
 1928TIP3   OH227198   0.587   1.005   0.205 -0.3050 -0.0429  0.3346
 1928TIP3    H127199   0.659   1.055   0.242  1.3337 -0.7186 -1.7668
 1928TIP3    H227200   0.534   1.070   0.158 -1.0003  0.4095  1.6722
 1929TIP3   OH227201   6.562   0.098  15.211 -0.6769  0.2762  0.3016
 1929TIP3    H127202   6.550   0.144  15.295 -1.6237 -0.7712  0.7600
 1929TIP3    H227203   6.535   0.008  15.229  0.7598 -0.3936 -0.6865
 1930TIP3   OH227204   2.586   6.074  10.827  0.2854 -0.3909  0.2017
 1930TIP3    H127205   2.565   6.016  10.901  0.5751 -1.4213 -0.5034
 1930TIP3    H227206   2.664   6.035  10.787  1.5960  1.5068  0.7684
 1931TIP3   OH227207   4.331   4.338  11.000  0.3142 -0.0994 -0.3352
 1931TIP3    H127208   4.268   4.274  11.033  2.2636 -0.9489  2.0106
 1931TIP3    H227209   4.307   4.420  11.043  0.1042 -0.1366 -0.3812
 1932TIP3   OH227210   0.776   4.967   5.622 -0.1815  0.1988 -0.2187
 1932TIP3    H127211   0.834   5.038   5.651  1.5865 -1.0766 -0.4828
 1932TIP3    H227212   0.759   4.985   5.530 -1.2899  1.2743  0.1780
 1933TIP3   OH227213   5.495   0.733  13.929  0.8172  0.2488 -0.1906
 1933TIP3    H127214   5.534   0.783  13.858  0.4590 -0.9516 -1.2783
 1933TIP3    H227215   5.434   0.793  13.971  2.5826  1.6548  0.5220
 1934TIP3   OH227216   5.470   1.882   2.366  0.6256 -0.0690 -0.0266
 1934TIP3    H127217   5.458   1.815   2.298 -1.3055  1.2696 -1.1129
 1934TIP3    H227218   5.457   1.965   2.321  0.4216  0.9348  1.7715
 1935TIP3   OH227219   1.576   3.332  15.500 -0.3331  0.6103 -0.1599
 1935TIP3    H127220   1.581   3.236  15.499 -1.1645  0.5368  0.9084
 1935TIP3    H227221   1.638   3.360  15.434  0.5089 -0.6513  0.0666
 1936TIP3   OH227222   2.141   4.736  15.274  0.4416 -0.7822 -0.0553
 1936TIP3    H127223   2.156   4.699  15.360 -1.5277 -3.0308 -0.5686
 1936TIP3    H227224   2.064   4.792  15.285 -0.2222 -1.5972 -0.4486
 1937TIP3   OH227225   4.238   2.686   3.631 -0.6423  0.1040 -0.2065
 1937TIP3    H127226   4.245   2.599   3.592 -1.1202 -0.7272  1.4946
 1937TIP3    H227227   4.173   2.731   3.576 -0.6215 -0.7086 -0.9245
 1938TIP3   OH227228   6.429   1.818  16.935  0.6358 -0.3263  0.5899
 1938TIP3    H127229   6.423   1.855  17.023 -0.9792 -3.5291  2.0005
 1938TIP3    H227230   6.465   1.730  16.948 -2.0267 -1.9001 -1.5347
 1939TIP3   OH227231   2.179   2.740   2.077 -0.1739 -0.1011  0.4834
 1939TIP3    H127232   2.143   2.693   2.002  0.7945  1.8953 -1.3417
 1939TIP3    H227233   2.237   2.806   2.038  0.8999  0.5770  3.0377
 1940TIP3   OH227234   1.513   5.450  10.897  0.1106 -0.6074  0.2172
 1940TIP3    H127235   1.479   5.512  10.962  2.0927  0.3638  0.4080
 1940TIP3    H227236   1.460   5.371  10.909 -1.8532  0.6951  0.6216
 1941TIP3   OH227237   5.366   3.223  16.796 -0.0494  0.2736 -0.8235
 1941TIP3    H127238   5.279   3.235  16.757 -0.6298 -2.1547 -0.4451
 1941TIP3    H227239   5.392   3.135  16.769  1.1796 -0.0226  1.1441
 1942TIP3   OH227240   2.568   2.690   0.388 -0.0560 -0.1687  0.2753
 1942TIP3    H127241   2.523   2.751   0.446 -0.2116  0.5211 -0.5421
 1942TIP3    H227242   2.539   2.604   0.416 -1.9631  0.2551 -0.2549
 1943TIP3   OH227243   5.026   1.484  15.303  0.2897 -0.5162  0.4223
 1943TIP3    H127244   4.965   1.552  15.275  3.1053  1.0187 -2.6706
 1943TIP3    H227245   4.972   1.405  15.309 -2.5613  1.3369  1.2767
 1944TIP3   OH227246   6.179   4.756   1.816 -0.1232  0.4787  0.6253
 1944TIP3    H127247   6.242   4.795   1.755 -1.0098 -1.1002 -1.4096
 1944TIP3    H227248   6.228   4.689   1.862  0.0558  0.2588  0.1207
 1945TIP3   OH227249   2.494   5.222  16.155  0.1671  0.1704 -0.5871
 1945TIP3    H127250   2.495   5.220  16.251 -0.8117  0.2522 -0.5682
 1945TIP3    H227251   2.508   5.314  16.133  0.0472  0.2046 -0.5184
 1946TIP3   OH227252   2.383   2.081   2.532 -0.3722 -0.1355 -0.0064
 1946TIP3    H127253   2.338   2.043   2.607 -1.7736  1.5478  0.0856
 1946TIP3    H227254   2.314   2.127   2.484  0.8770  0.6453 -1.1195
 1947TIP3   OH227255   0.127   4.533  11.108  0.0746  0.0363 -0.3886
 1947TIP3    H127256   0.220   4.511  11.106  0.1130 -0.1306  1.2826
 1947TIP3    H227257   0.087   4.476  11.043  0.9482 -0.9348 -0.0991
 1948TIP3   OH227258   4.121   0.710  14.150 -0.0870 -0.4741  0.3308
 1948TIP3    H127259   4.085   0.755  14.073  0.8899 -0.6745 -0.2696
 1948TIP3    H227260   4.046   0.669  14.192 -0.4086 -2.1267 -1.7112
 1949TIP3   OH227261   3.387   3.673   1.537  0.4396  0.3295  0.1603
 1949TIP3    H127262   3.456   3.692   1.600 -1.4524  1.7256  1.9467
 1949TIP3    H227263   3.306   3.703   1.579 -1.3820 -1.7929 -1.5546
 1950TIP3   OH227264   3.344   2.464   6.186  0.5801 -0.1597  1.1334
 1950TIP3    H127265   3.304   2.501   6.107  1.1998 -1.0473  0.3838
 1950TIP3    H227266   3.301   2.510   6.258  0.1142  0.7847  0.2818
 1951TIP3   OH227267   0.041   1.152  16.554  0.4180 -0.0604  0.5370
 1951TIP3    H127268  -0.036   1.166  16.499  1.2663  1.7337 -0.2733
 1951TIP3    H227269   0.058   1.237  16.593  1.7603 -0.5311  1.0264
 1952TIP3   OH227270   1.070   1.635   0.437 -0.9934 -0.7701 -0.2598
 1952TIP3    H127271   1.112   1.603   0.357 -0.1367  1.1811 -0.6470
 1952TIP3    H227272   1.060   1.558   0.492  4.2265 -1.3298  0.3950
 1953TIP3   OH227273   1.068   6.465  15.577  0.0500  0.1136  0.6860
 1953TIP3    H127274   1.153   6.452  15.533  0.2517 -0.3256  1.2028
 1953TIP3    H227275   1.041   6.378  15.604 -2.5376 -0.4654 -3.0028
 1954TIP3   OH227276   2.258   4.362   2.251 -0.0644 -0.1472  0.5648
 1954TIP3    H127277   2.181   4.333   2.299 -1.2908 -1.2259 -1.8816
 1954TIP3    H227278   2.279   4.447   2.290 -0.9040 -0.9384  2.9602
 1955TIP3   OH227279   6.227   0.814   3.299  0.3182  0.2130  0.0989
 1955TIP3    H127280   6.301   0.869   3.274  1.0272 -1.1889 -1.0097
 1955TIP3    H227281   6.151   0.871   3.291  1.1406  1.3403  0.0902
 1956TIP3   OH227282   6.066   1.286   0.177 -0.1732 -0.0497  0.7201
 1956TIP3    H127283   6.032   1.358   0.125 -1.1687 -0.7208  0.4187
 1956TIP3    H227284   5.998   1.267   0.241  0.8838  0.5204  2.0687
 1957TIP3   OH227285   5.523   6.703  17.227  0.4106  0.0128  0.3710
 1957TIP3    H127286   5.603   6.655  17.206  0.4078 -0.6223  1.6554
 1957TIP3    H227287   5.535   6.728  17.319 -0.5537  0.5379  0.3581
 1958TIP3   OH227288   4.496   6.122  12.823 -0.5027  0.1696 -0.0198
 1958TIP3    H127289   4.518   6.212  12.797 -1.5435  0.4873  0.1484
 1958TIP3    H227290   4.503   6.123  12.919 -3.2227  0.8787  0.2498
 1959TIP3   OH227291   0.764   6.026  16.136  0.1737 -0.0919 -0.3007
 1959TIP3    H127292   0.764   5.931  16.131 -1.7407 -0.1571  0.0375
 1959TIP3    H227293   0.766   6.055  16.045 -1.3653 -0.5393 -0.5072
 1960TIP3   OH227294   2.432   2.743  12.387  0.3136 -0.2630  0.1708
 1960TIP3    H127295   2.464   2.674  12.330 -0.5948  0.4449 -1.2690
 1960TIP3    H227296   2.338   2.727  12.394 -0.1559  1.5284 -1.2764
 1961TIP3   OH227297   2.870   2.586   6.154 -0.1232 -0.6220 -0.2171
 1961TIP3    H127298   2.776   2.585   6.171 -0.5909  1.6208 -2.1247
 1961TIP3    H227299   2.895   2.494   6.151 -1.3445 -1.3073  4.3707
 1962TIP3   OH227300   6.256   0.377   4.829  0.2794 -0.0911 -0.1494
 1962TIP3    H127301   6.195   0.323   4.878 -0.1555  1.5335  1.2268
 1962TIP3    H227302   6.214   0.463   4.825  3.0359  1.5618  2.2408
 1963TIP3   OH227303   2.117   4.918   4.052  0.4753 -0.6531 -0.1238
 1963TIP3    H127304   2.051   4.950   3.990 -0.5757 -1.8732  0.3333
 1963TIP3    H227305   2.078   4.932   4.138  0.5909 -1.8610  0.1373
 1964TIP3   OH227306   1.655   0.818   4.515 -0.7261  0.3861  0.1194
 1964TIP3    H127307   1.631   0.854   4.600  0.6637  0.6496  0.4241
 1964TIP3    H227308   1.675   0.894   4.461 -1.0874  0.1947 -0.2947
 1965TIP3   OH227309   1.010   3.938  11.272 -0.0873 -0.1946 -0.4060
 1965TIP3    H127310   1.074   3.964  11.206  0.6877 -1.9568 -0.4197
 1965TIP3    H227311   0.972   3.857  11.238 -1.5656  0.2357  0.1227
 1966TIP3   OH227312   6.142   6.614   4.385 -0.1060 -0.6733  0.0305
 1966TIP3    H127313   6.134   6.588   4.477  1.3145 -0.4578  0.2465
 1966TIP3    H227314   6.210   6.556   4.351 -1.0274 -1.1451 -1.0529
 1967TIP3   OH227315   3.673   1.374  16.426  0.2132  0.2617 -0.2088
 1967TIP3    H127316   3.758   1.370  16.470  0.2406  0.2043 -0.2662
 1967TIP3    H227317   3.693   1.404  16.337  0.0578  1.2547  0.0803
 1968TIP3   OH227318   2.940   0.677  14.752  0.2758 -0.4198 -0.5635
 1968TIP3    H127319   2.910   0.601  14.702  1.4675 -1.2826 -0.0232
 1968TIP3    H227320   3.024   0.649  14.788 -1.1546 -0.4228  3.1664
 1969TIP3   OH227321   4.171   1.812  16.614  0.2329  0.1074 -0.1700
 1969TIP3    H127322   4.218   1.792  16.533  0.0758  0.0794 -0.2533
 1969TIP3    H227323   4.082   1.783  16.599  0.5623 -1.3918  0.6006
 1970TIP3   OH227324   5.555   6.554   4.560  0.9734  0.4365 -0.1718
 1970TIP3    H127325   5.574   6.514   4.475  0.1936  0.4001 -0.3306
 1970TIP3    H227326   5.611   6.631   4.563  2.4790 -0.6099  0.1177
 1971TIP3   OH227327   1.672   1.444   5.418  0.5480 -0.0550  0.1252
 1971TIP3    H127328   1.586   1.402   5.423  0.8153 -0.6617 -0.2679
 1971TIP3    H227329   1.720   1.392   5.353  1.2520  0.2062  0.4305
 1972TIP3   OH227330   3.210   3.614   6.012  0.0236 -0.0260 -0.0970
 1972TIP3    H127331   3.287   3.579   6.055  0.6249 -0.5503 -1.5266
 1972TIP3    H227332   3.243   3.654   5.931 -0.9120  1.9147  0.4145
 1973TIP3   OH227333   6.046   4.372  13.432  0.3148 -0.1440  0.0295
 1973TIP3    H127334   5.974   4.413  13.479  0.8393  1.2130 -0.3018
 1973TIP3    H227335   6.118   4.433  13.440  0.6571 -0.2372 -1.8489
 1974TIP3   OH227336   0.816   3.186   2.631 -0.1267  0.4466 -0.6195
 1974TIP3    H127337   0.758   3.226   2.696 -0.7614 -0.1349 -0.8272
 1974TIP3    H227338   0.880   3.137   2.683 -0.7626 -0.1941 -0.4416
 1975TIP3   OH227339   5.398   5.297   0.976  0.1627  0.1330 -0.2678
 1975TIP3    H127340   5.480   5.311   0.928 -0.2160  0.5130 -0.8177
 1975TIP3    H227341   5.377   5.205   0.961  0.7988 -0.1371  0.3887
 1976TIP3   OH227342   4.555   5.102  15.832  0.1132  0.3754  0.1496
 1976TIP3    H127343   4.480   5.139  15.786  1.3525  1.5058 -1.0555
 1976TIP3    H227344   4.625   5.100  15.766  1.1913 -0.4956  1.2750
 1977TIP3   OH227345   4.497   0.728   5.537 -0.3065 -0.2357 -0.2474
 1977TIP3    H127346   4.450   0.811   5.537  1.3963  0.7892  0.8935
 1977TIP3    H227347   4.475   0.689   5.622 -1.9220 -1.4984 -1.1903
 1978TIP3   OH227348   2.965   4.945   5.879  0.8655 -0.0609 -0.4313
 1978TIP3    H127349   3.036   4.890   5.911  0.8680 -0.4718 -1.1267
 1978TIP3    H227350   2.886   4.906   5.917  0.9413 -0.0238 -0.2309
 1979TIP3   OH227351   5.173   5.358  10.978 -0.0109  0.3060  0.1604
 1979TIP3    H127352   5.119   5.437  10.982 -0.5713 -0.1013  1.0096
 1979TIP3    H227353   5.141   5.311  10.901 -0.5488  0.3043  0.3801
 1980TIP3   OH227354   1.206   6.370   2.669 -0.3004 -0.4384  0.2488
 1980TIP3    H127355   1.154   6.380   2.748  1.6469  0.0068  1.5352
 1980TIP3    H227356   1.229   6.460   2.643  0.4884 -0.6431  0.1940
 1981TIP3   OH227357   5.170   5.664   1.310  0.0823 -0.5856 -0.0233
 1981TIP3    H127358   5.190   5.741   1.257 -2.4805  0.0842 -0.1549
 1981TIP3    H227359   5.224   5.595   1.273  1.5507  0.8543 -0.6931
 1982TIP3   OH227360   6.709   4.314  14.976  0.0288  0.3987  0.3077
 1982TIP3    H127361   6.710   4.231  15.023 -0.0541  0.1355 -0.1435
 1982TIP3    H227362   6.719   4.289  14.884 -0.8289  0.8330  0.0925
 1983TIP3   OH227363   0.192   6.697  11.736  0.4108  0.1716 -0.2992
 1983TIP3    H127364   0.144   6.739  11.665  0.8411  1.2322  0.0236
 1983TIP3    H227365   0.138   6.713  11.814  0.6958  0.3418 -0.1343
 1984TIP3   OH227366   1.122   2.300  13.722  0.0482 -0.0778 -0.1449
 1984TIP3    H127367   1.129   2.303  13.818  1.5561  1.0247 -0.2618
 1984TIP3    H227368   1.058   2.367  13.701  0.0643  0.0072  0.0690
 1985TIP3   OH227369   5.716   2.435  15.771  0.1405 -0.4001  0.2913
 1985TIP3    H127370   5.785   2.459  15.709  0.3394  1.5862  1.2243
 1985TIP3    H227371   5.762   2.397  15.845  0.2524  0.7425  0.8278
 1986TIP3   OH227372   5.327   6.376  14.909  0.3806  0.1769  0.0088
 1986TIP3    H127373   5.342   6.437  14.982 -1.0600  0.6619 -0.0611
 1986TIP3    H227374   5.240   6.340  14.927  0.8542 -1.2133 -0.4285
 1987TIP3   OH227375   0.747   1.786   3.950 -0.1226 -0.0507  0.1342
 1987TIP3    H127376   0.813   1.817   4.011  0.5373  2.0743 -1.5275
 1987TIP3    H227377   0.686   1.860   3.942 -0.3730 -0.3974 -1.4731
 1988TIP3   OH227378   4.516   0.554  13.336 -0.1247  0.2944  0.1966
 1988TIP3    H127379   4.427   0.528  13.315  0.0014 -0.9541  1.0919
 1988TIP3    H227380   4.568   0.474  13.325  0.9148  1.0144 -0.3981
 1989TIP3   OH227381   3.834   0.545   5.545 -0.6102  0.4986 -0.0402
 1989TIP3    H127382   3.806   0.453   5.542 -2.2280  0.9218  0.9578
 1989TIP3    H227383   3.846   0.563   5.638  0.2145  1.1691 -0.2678
 1990TIP3   OH227384   1.451   0.736   2.025 -0.1416 -0.6198 -0.6749
 1990TIP3    H127385   1.546   0.749   2.033 -0.0791 -1.0667 -0.6654
 1990TIP3    H227386   1.429   0.772   1.940 -0.1630  0.5775 -0.1820
 1991TIP3   OH227387   6.076   1.600  15.700 -0.2397 -0.2608  0.4480
 1991TIP3    H127388   6.112   1.527  15.649  0.4277  0.0779  0.4326
 1991TIP3    H227389   6.127   1.600  15.781 -1.4211 -0.9157  1.2286
 1992TIP3   OH227390   6.006   1.970   5.961 -0.0615  0.4239 -0.3881
 1992TIP3    H127391   5.987   2.063   5.951 -1.6451  0.0163 -1.5423
 1992TIP3    H227392   5.921   1.930   5.980  0.9146 -0.5406  2.4327
 1993TIP3   OH227393   6.646   2.341   3.770  0.0192 -0.4256  0.1043
 1993TIP3    H127394   6.616   2.413   3.824  1.6875  2.2900 -2.2709
 1993TIP3    H227395   6.740   2.334   3.789  0.3070 -0.4860 -1.2428
 1994TIP3   OH227396   5.697   1.070   2.747  0.2248  0.1394 -0.3343
 1994TIP3    H127397   5.612   1.113   2.736  0.6182  0.6898 -1.4733
 1994TIP3    H227398   5.750   1.105   2.675  2.0695  1.3911  1.5098
 1995TIP3   OH227399   0.442   4.891   5.761 -0.3001  0.0109 -0.0886
 1995TIP3    H127400   0.527   4.856   5.735  0.0803  0.5022  0.4848
 1995TIP3    H227401   0.440   4.880   5.856 -0.7744  0.2425 -0.0708
 1996TIP3   OH227402   5.329   1.528   5.549 -0.1467 -0.2029 -0.0528
 1996TIP3    H127403   5.419   1.532   5.517 -0.0234  0.8466  0.3814
 1996TIP3    H227404   5.316   1.611   5.594 -0.6405 -1.1938  1.7348
 1997TIP3   OH227405   6.288   4.568  13.835  0.2541 -0.1686  0.7634
 1997TIP3    H127406   6.361   4.562  13.897 -0.0924  1.9907  1.4508
 1997TIP3    H227407   6.226   4.501  13.865  0.5354  0.1677  2.1793
 1998TIP3   OH227408   0.670   4.602  13.269  0.2210  0.0734  0.0040
 1998TIP3    H127409   0.595   4.608  13.328  0.5692 -0.1496  0.4712
 1998TIP3    H227410   0.699   4.511  13.275 -0.5097 -0.3040 -1.4767
 1999TIP3   OH227411   0.517   5.073   0.157  0.0170  0.1338 -0.1950
 1999TIP3    H127412   0.458   5.004   0.187  0.7707 -0.2811  0.3469
 1999TIP3    H227413   0.601   5.030   0.146  0.0576  0.5282 -1.7853
 2000TIP3   OH227414   2.910   5.210   3.043  0.3130 -0.4315 -0.2544
 2000TIP3    H127415   2.987   5.256   3.078  0.9344  0.5424 -2.6469
 2000TIP3    H227416   2.941   5.121   3.027  0.6583 -0.3059 -0.3066
 2001TIP3   OH227417   6.259   5.672   0.442  0.0322  0.1326 -0.1352
 2001TIP3    H127418   6.355   5.676   0.437 -0.0117  0.4940 -0.7801
 2001TIP3    H227419   6.241   5.586   0.480  0.6057  0.0055 -0.1367
 2002TIP3   OH227420   1.534   2.966  14.510 -0.0413 -0.1381 -0.2787
 2002TIP3    H127421   1.471   2.910  14.555  1.0437 -0.4485  0.9331
 2002TIP3    H227422   1.553   2.921  14.428  0.0393 -1.0239  0.2179
 2003TIP3   OH227423   5.994   3.239  12.133  0.4404  0.4145 -0.3929
 2003TIP3    H127424   6.010   3.148  12.108  1.2727  0.5331 -0.3279
 2003TIP3    H227425   6.073   3.286  12.105 -0.0210  1.1316 -0.5034
 2004TIP3   OH227426   4.739   0.003  14.313  0.1117 -0.0125 -0.1801
 2004TIP3    H127427   4.711  -0.071  14.259  0.1688  0.3968 -0.7906
 2004TIP3    H227428   4.826   0.026  14.278  0.4581 -0.1747  0.5511
 2005TIP3   OH227429   1.477   4.507  11.540  0.9566  0.2531 -0.3783
 2005TIP3    H127430   1.508   4.513  11.450 -3.1318  0.7391 -1.9307
 2005TIP3    H227431   1.499   4.593  11.578  0.9196  0.8215 -1.5949
 2006TIP3   OH227432   3.823   3.218  16.567  0.2227  0.0662  0.3265
 2006TIP3    H127433   3.808   3.126  16.545 -0.0865  0.3585 -0.7442
 2006TIP3    H227434   3.908   3.238  16.530 -0.3701  0.6079 -0.7962
 2007TIP3   OH227435   4.215   2.434  12.652  0.0091  0.0623  0.8482
 2007TIP3    H127436   4.177   2.521  12.655 -1.3277 -0.5052  0.9339
 2007TIP3    H227437   4.304   2.445  12.687 -0.5615  1.1696  2.0083
 2008TIP3   OH227438   5.855   5.869  11.205  0.0738 -0.3461 -0.1536
 2008TIP3    H127439   5.821   5.876  11.115  0.9561 -0.2893 -0.4893
 2008TIP3    H227440   5.916   5.796  11.201  1.1900  0.5502  0.0535
 2009TIP3   OH227441   5.578   1.798   1.918  0.5291  0.1426 -0.4697
 2009TIP3    H127442   5.619   1.746   1.988 -1.7491 -0.6527  0.3784
 2009TIP3    H227443   5.564   1.884   1.958 -0.3792 -0.1810 -0.0743
 2010TIP3   OH227444   2.183   1.306  13.542 -0.2961  0.1580 -0.3083
 2010TIP3    H127445   2.159   1.399  13.536 -0.6910  0.2011  1.3968
 2010TIP3    H227446   2.277   1.305  13.526 -0.1824  0.9475  0.2158
 2011TIP3   OH227447   4.496   2.094   1.364 -0.6050 -0.2798 -0.2169
 2011TIP3    H127448   4.510   2.019   1.307 -1.0700 -0.2871 -0.3228
 2011TIP3    H227449   4.571   2.092   1.424  0.4501  0.3308 -1.4570
 2012TIP3   OH227450   2.891   6.139   0.950  0.1549  0.3244  0.4830
 2012TIP3    H127451   2.939   6.059   0.927 -1.1787 -0.4826  0.3630
 2012TIP3    H227452   2.861   6.124   1.040 -0.7132  0.3509  0.2121
 2013TIP3   OH227453   0.414   2.776   0.826  0.0162 -0.3362 -0.1365
 2013TIP3    H127454   0.392   2.867   0.842 -1.2197 -0.9908  2.4939
 2013TIP3    H227455   0.329   2.733   0.811  0.5287 -1.1663 -0.8066
 2014TIP3   OH227456   4.106   1.217   5.206 -0.5553 -0.6179  0.1875
 2014TIP3    H127457   4.161   1.158   5.154 -0.1924 -0.6588  0.6061
 2014TIP3    H227458   4.070   1.279   5.142  1.0658  0.2563  0.0513
 2015TIP3   OH227459   4.714   2.715  11.626 -0.5671  0.2620 -0.1296
 2015TIP3    H127460   4.722   2.680  11.537 -1.6978 -0.1362 -0.0809
 2015TIP3    H227461   4.698   2.639  11.681 -2.0308  0.7268  0.1127
 2016TIP3   OH227462   3.731   5.791   2.939  0.0471 -0.5214  0.0202
 2016TIP3    H127463   3.799   5.724   2.941 -0.0116 -0.6021 -0.5613
 2016TIP3    H227464   3.775   5.870   2.906 -0.5944 -1.1301 -2.4641
 2017TIP3   OH227465   5.067   6.758  13.559 -0.8173  0.1194  0.6596
 2017TIP3    H127466   5.081   6.836  13.612 -1.2909 -1.2189  2.9043
 2017TIP3    H227467   4.975   6.736  13.573 -0.8486 -0.4967 -0.4394
 2018TIP3   OH227468   5.820   1.657   2.883 -0.2902  0.1780 -0.2302
 2018TIP3    H127469   5.815   1.708   2.963  2.2384  0.0300  0.0796
 2018TIP3    H227470   5.879   1.706   2.826  0.1446 -1.0855 -0.9190
 2019TIP3   OH227471   0.855   1.555  15.960 -0.0372  0.1047  0.0005
 2019TIP3    H127472   0.925   1.608  15.998  1.5380 -1.8008 -0.0584
 2019TIP3    H227473   0.865   1.566  15.866 -0.4826  0.5934  0.0010
 2020TIP3   OH227474   5.774   0.974  11.144 -0.0810  0.2378  0.0026
 2020TIP3    H127475   5.851   0.944  11.095  0.1826 -0.2364  0.6801
 2020TIP3    H227476   5.809   1.037  11.207 -0.4126  0.8393 -0.4153
 2021TIP3   OH227477   4.580   6.300  16.217  0.1939 -0.8593 -0.5552
 2021TIP3    H127478   4.609   6.209  16.207  0.6065 -0.9298  0.9989
 2021TIP3    H227479   4.628   6.332  16.293 -0.6774  0.3581 -0.4968
 2022TIP3   OH227480   4.089   4.209  13.742  0.0700 -0.1619 -0.3771
 2022TIP3    H127481   3.995   4.212  13.723 -0.1370  1.9988  0.6944
 2022TIP3    H227482   4.104   4.121  13.777 -1.9790  0.0985  1.3335
 2023TIP3   OH227483   5.775   5.991   4.093 -0.2208 -1.1291 -0.2881
 2023TIP3    H127484   5.709   5.936   4.050 -1.0102 -0.7840  0.4586
 2023TIP3    H227485   5.726   6.040   4.159  0.6630 -0.3301 -0.2062
 2024TIP3   OH227486   4.470   3.648  13.552  0.0603 -0.0116  0.1073
 2024TIP3    H127487   4.510   3.709  13.614  1.1263 -1.2858  0.7172
 2024TIP3    H227488   4.466   3.697  13.470  0.1011  1.1562  0.7802
 2025TIP3   OH227489   3.751   5.327   5.911  0.5595 -0.6052  0.4949
 2025TIP3    H127490   3.820   5.355   5.972  1.1116  0.9625 -0.7753
 2025TIP3    H227491   3.670   5.338   5.960  0.9927  0.5890  0.9772
 2026TIP3   OH227492   3.255   4.679  14.521 -0.1822 -0.0735 -0.0375
 2026TIP3    H127493   3.247   4.692  14.616 -1.8510 -1.2276  0.0216
 2026TIP3    H227494   3.181   4.727  14.484  0.6867  0.7069 -0.8118
 2027TIP3   OH227495   0.218   1.672   2.947  0.1472  0.4093  0.1111
 2027TIP3    H127496   0.314   1.669   2.944  0.1688 -1.5838  0.9782
 2027TIP3    H227497   0.192   1.583   2.969 -1.8857  1.1092  0.8115
 2028TIP3   OH227498   6.744   0.911   0.277 -0.2157 -0.5587 -0.3300
 2028TIP3    H127499   6.691   0.937   0.353 -0.0320 -0.5795 -0.1933
 2028TIP3    H227500   6.763   0.818   0.292 -0.8941 -0.7848 -0.8315
 2029TIP3   OH227501   4.528   4.458   5.779  0.3635 -0.0434  0.0233
 2029TIP3    H127502   4.614   4.444   5.742  1.4964 -1.5526  2.9116
 2029TIP3    H227503   4.472   4.392   5.738 -0.3511  2.7207 -4.0214
 2030TIP3   OH227504   4.643   5.190   2.388  0.0005  0.1450 -0.2007
 2030TIP3    H127505   4.548   5.180   2.384  0.0180 -0.0809 -0.0594
 2030TIP3    H227506   4.660   5.272   2.341 -0.4606  1.3670  1.6578
 2031TIP3   OH227507   1.374   6.057  13.660 -0.1962 -0.2236  0.2218
 2031TIP3    H127508   1.441   6.045  13.593 -0.2555  0.7056 -0.0121
 2031TIP3    H227509   1.391   6.143  13.697 -1.3285  0.0821  0.0743
 2032TIP3   OH227510   1.464   6.215   0.533 -0.6479 -0.1460  0.2846
 2032TIP3    H127511   1.374   6.213   0.566 -0.7078  0.2884  0.1520
 2032TIP3    H227512   1.513   6.161   0.595 -1.2466 -1.5365 -0.4084
 2033TIP3   OH227513   1.458   3.998   5.541  0.0248 -0.8127  0.3207
 2033TIP3    H127514   1.483   4.090   5.534  0.5751 -0.9526  0.3785
 2033TIP3    H227515   1.363   3.998   5.533  0.1156 -0.3547 -0.8683
 2034TIP3   OH227516   4.361   0.367   3.166 -0.4647  0.1038 -0.4165
 2034TIP3    H127517   4.431   0.335   3.222 -1.6604  0.2535  1.2225
 2034TIP3    H227518   4.399   0.442   3.120  1.1486 -1.2296 -1.3693
 2035TIP3   OH227519   3.689   2.221  12.331  0.0681 -0.3961  0.4180
 2035TIP3    H127520   3.618   2.176  12.376  0.0965 -1.1215 -0.2338
 2035TIP3    H227521   3.744   2.255  12.401 -1.1157  0.5215  0.9477
 2036TIP3   OH227522   4.202   2.416   1.877  0.2374  0.2409 -0.5285
 2036TIP3    H127523   4.229   2.468   1.802 -0.1444  1.2926  0.0495
 2036TIP3    H227524   4.107   2.422   1.879  0.2248 -0.0099 -0.1294
 2037TIP3   OH227525   3.183   4.746  11.247  0.1414  0.2415 -0.2374
 2037TIP3    H127526   3.109   4.699  11.210  1.4297 -1.5503 -0.6850
 2037TIP3    H227527   3.203   4.814  11.182 -0.0382 -0.3925 -0.9699
 2038TIP3   OH227528   1.512   0.368   1.856 -0.0395 -0.0813  0.2855
 2038TIP3    H127529   1.572   0.413   1.916  0.4519  1.1466 -1.0728
 2038TIP3    H227530   1.427   0.407   1.875 -0.2122 -0.9345  1.3544
 2039TIP3   OH227531   3.495   5.553   3.797 -0.7536 -0.6717  0.5764
 2039TIP3    H127532   3.501   5.513   3.884 -1.3625 -1.0781  0.4390
 2039TIP3    H227533   3.406   5.587   3.792 -0.6724 -0.5075  0.1710
 2040TIP3   OH227534   3.342   4.040  11.792  0.1932 -0.5690  0.0996
 2040TIP3    H127535   3.309   4.097  11.862  1.3325  0.5308 -0.2337
 2040TIP3    H227536   3.263   4.004  11.752 -0.6506  1.6358 -0.3813
 2041TIP3   OH227537   6.412   1.794   5.007 -0.7880 -0.0639 -0.6418
 2041TIP3    H127538   6.465   1.716   5.025 -1.5396 -0.2487  0.9067
 2041TIP3    H227539   6.472   1.867   5.020  0.2312 -0.3397 -3.1674
 2042TIP3   OH227540   5.409   1.978  12.011  0.1576 -0.5522  0.7088
 2042TIP3    H127541   5.479   1.954  11.950  0.5788 -0.1557  1.0263
 2042TIP3    H227542   5.441   1.950  12.097 -0.2996 -0.8329  0.7906
 2043TIP3   OH227543   3.196   0.537  16.820 -0.5250 -0.2244  0.2663
 2043TIP3    H127544   3.124   0.474  16.809 -1.7676  1.4442 -2.0883
 2043TIP3    H227545   3.260   0.513  16.753  0.3302 -0.6375  1.2085
 2044TIP3   OH227546   4.950   0.874   1.340  0.0587 -0.4249 -0.4038
 2044TIP3    H127547   4.954   0.779   1.349 -1.5165 -0.4668  0.1528
 2044TIP3    H227548   4.994   0.908   1.418 -1.3025 -0.7317  0.5275
 2045TIP3   OH227549   1.127   3.291   0.213 -0.1045 -0.3496 -0.6752
 2045TIP3    H127550   1.072   3.279   0.136  1.2819 -0.4295 -1.6835
 2045TIP3    H227551   1.200   3.345   0.183 -0.0807  0.5354  0.8553
 2046TIP3   OH227552   2.130   1.263   6.107  0.4568  0.2129  0.0406
 2046TIP3    H127553   2.223   1.251   6.125  0.4866  2.3679  1.7110
 2046TIP3    H227554   2.087   1.245   6.191 -0.5911 -0.1648 -0.5573
 2047TIP3   OH227555   3.268   5.232   1.845  0.5100  0.0674  0.5885
 2047TIP3    H127556   3.309   5.298   1.789 -1.0975 -0.0961 -0.8607
 2047TIP3    H227557   3.325   5.156   1.838  2.3047  1.1615  2.1575
 2048TIP3   OH227558   5.842   4.599   2.733  0.7284 -0.2573  0.0892
 2048TIP3    H127559   5.799   4.643   2.660  1.6236  2.3553  1.0267
 2048TIP3    H227560   5.796   4.631   2.811  1.1836 -1.2895  0.8108
 2049TIP3   OH227561   3.693   0.539   4.860  0.8958 -0.3657 -0.2326
 2049TIP3    H127562   3.629   0.503   4.799  1.8044 -1.5070 -0.5570
 2049TIP3    H227563   3.668   0.631   4.869 -0.1221 -0.5179 -1.1976
 2050TIP3   OH227564   3.286   6.033  14.615  0.0515 -0.3023 -0.6436
 2050TIP3    H127565   3.365   6.065  14.570  0.7438 -1.7294 -0.4886
 2050TIP3    H227566   3.312   5.949  14.652 -1.1166 -0.1153  0.6911
 2051TIP3   OH227567   2.956   1.121  11.367 -0.7334  0.1616  0.1540
 2051TIP3    H127568   2.985   1.042  11.414  0.1029  0.7799  0.7079
 2051TIP3    H227569   2.959   1.096  11.275  0.2362 -0.2473  0.2747
 2052TIP3   OH227570   5.172   5.896   2.549 -0.1321  0.0583 -0.5987
 2052TIP3    H127571   5.256   5.859   2.522 -0.4278 -0.4813 -0.7950
 2052TIP3    H227572   5.116   5.885   2.472 -1.2127 -2.1628  0.4083
 2053TIP3   OH227573   5.196   6.410   1.740  0.2760  0.1558  0.2705
 2053TIP3    H127574   5.185   6.315   1.739 -1.5547  0.3221 -0.9773
 2053TIP3    H227575   5.220   6.431   1.830  3.1370 -1.6721  0.0659
 2054TIP3   OH227576   4.566   0.358  10.981  0.1460  0.7066  0.0995
 2054TIP3    H127577   4.497   0.418  10.954  1.0376  2.2159  1.0256
 2054TIP3    H227578   4.608   0.331  10.899 -0.2748  1.3618 -0.3446
 2055TIP3   OH227579   5.604   3.481   3.570  0.5070  0.6590  0.2253
 2055TIP3    H127580   5.559   3.561   3.597 -0.1564 -0.0809  1.4285
 2055TIP3    H227581   5.606   3.486   3.474 -0.8110  1.4383  0.2055
 2056TIP3   OH227582   0.905   5.740  14.151  0.5385 -0.1200 -0.6160
 2056TIP3    H127583   0.963   5.794  14.204 -1.4169  0.5364  0.9695
 2056TIP3    H227584   0.866   5.679  14.213 -0.2165 -0.7745 -1.6964
 2057TIP3   OH227585   4.717   3.351  11.712  0.1904 -0.2437 -0.1269
 2057TIP3    H127586   4.729   3.336  11.618 -1.2824 -0.1789 -0.3487
 2057TIP3    H227587   4.687   3.267  11.747  1.3304 -0.4379  0.4083
 2058TIP3   OH227588   3.603   5.876   2.682 -0.2842  0.2896  0.2113
 2058TIP3    H127589   3.593   5.852   2.774  2.0793 -0.6985  0.2955
 2058TIP3    H227590   3.687   5.838   2.657  0.3191  2.6532 -1.6759
 2059TIP3   OH227591   6.618   1.121  16.378 -0.0676 -0.0412  0.5545
 2059TIP3    H127592   6.526   1.130  16.403 -0.3367 -3.5699  1.3462
 2059TIP3    H227593   6.617   1.062  16.303  1.5511 -0.5748  0.9086
 2060TIP3   OH227594   2.095   5.738  11.663 -0.5328 -0.0305 -0.2088
 2060TIP3    H127595   2.162   5.806  11.671 -0.7780  0.2543 -0.5566
 2060TIP3    H227596   2.013   5.786  11.653 -0.8685 -0.3716  0.8086
 2061TIP3   OH227597   5.432   5.323  16.201 -0.2390 -0.9706  0.4398
 2061TIP3    H127598   5.362   5.375  16.241 -0.8582 -0.6574 -0.9870
 2061TIP3    H227599   5.396   5.297  16.116  1.2326 -1.1603 -0.1439
 2062TIP3   OH227600   4.844   2.435   5.226  0.3512  0.4724 -0.3780
 2062TIP3    H127601   4.841   2.522   5.267  1.4390  1.6826 -2.6645
 2062TIP3    H227602   4.936   2.410   5.232  0.6775  0.9942 -2.5629
 2063TIP3   OH227603   5.867   5.646   5.680  0.2736 -0.1341  0.1761
 2063TIP3    H127604   5.832   5.668   5.766 -2.0844 -0.3435 -0.6645
 2063TIP3    H227605   5.944   5.702   5.671 -0.6558  1.4726  1.5529
 2064TIP3   OH227606   6.133   3.251  11.201  0.2220  0.5334  0.0705
 2064TIP3    H127607   6.079   3.205  11.137  0.6833 -0.9564  0.7239
 2064TIP3    H227608   6.188   3.309  11.148  0.8674 -0.9500 -0.9390
 2065TIP3   OH227609   0.669   2.806   2.153  0.0712  0.4414 -0.1259
 2065TIP3    H127610   0.655   2.862   2.077  0.4347  1.5426  0.5809
 2065TIP3    H227611   0.606   2.837   2.218  0.1423 -0.1062  0.2172
 2066TIP3   OH227612   0.721   5.310  14.721 -0.1820 -0.2118  0.1087
 2066TIP3    H127613   0.686   5.393  14.688 -1.0036 -1.5747 -2.8331
 2066TIP3    H227614   0.814   5.312  14.696  0.4352  0.7827  2.2793
 2067TIP3   OH227615   5.171   4.002  15.592 -0.7741 -0.0836  0.1805
 2067TIP3    H127616   5.191   4.005  15.685  1.2637 -0.9661 -0.1740
 2067TIP3    H227617   5.179   4.093  15.563  0.4300 -0.0692  0.5328
 2068TIP3   OH227618   2.189   3.645  15.454 -0.9323 -0.0796  0.0129
 2068TIP3    H127619   2.246   3.603  15.390  2.5981  1.9175  1.5464
 2068TIP3    H227620   2.172   3.577  15.519  0.5705 -0.5028 -0.0029
 2069TIP3   OH227621   1.100   2.517   5.523  0.1487 -0.1702 -0.4571
 2069TIP3    H127622   1.066   2.551   5.605  0.2970  0.6143 -0.7194
 2069TIP3    H227623   1.113   2.423   5.540  1.2235  0.1608  0.7680
 2070TIP3   OH227624   4.912   2.284   4.143  0.3938 -0.0365  0.0380
 2070TIP3    H127625   4.829   2.252   4.178 -0.0591  1.4794  0.4343
 2070TIP3    H227626   4.924   2.370   4.184  3.4724 -1.2419  2.0402
 2071TIP3   OH227627   1.486   5.244   5.112  0.1444 -0.0629 -0.2820
 2071TIP3    H127628   1.486   5.325   5.060  1.4713  1.0017  1.2906
 2071TIP3    H227629   1.557   5.256   5.175 -1.2750 -1.3736  1.6797
 2072TIP3   OH227630   6.723   4.920   2.758  0.5442 -0.0223  0.5862
 2072TIP3    H127631   6.753   4.918   2.849 -0.1150 -1.3557  0.7968
 2072TIP3    H227632   6.670   4.999   2.753  1.8872  0.9383  0.9095
 2073TIP3   OH227633   4.711   2.532  15.871 -0.0927 -0.9160 -0.5468
 2073TIP3    H127634   4.776   2.540  15.941 -1.5106  2.6162  0.5896
 2073TIP3    H227635   4.756   2.482  15.802  3.0730 -0.4510  0.9804
 2074TIP3   OH227636   4.265   6.082   5.642 -0.4475 -0.2921  0.4615
 2074TIP3    H127637   4.301   6.115   5.724  0.1872 -1.3595  0.6395
 2074TIP3    H227638   4.190   6.139   5.624  1.0933  1.7680  0.2642
 2075TIP3   OH227639   4.894   0.555  14.846 -0.4438 -0.5767 -0.1475
 2075TIP3    H127640   4.895   0.460  14.829  1.6698 -0.4201 -1.2336
 2075TIP3    H227641   4.870   0.594  14.762  0.1630 -0.1026 -0.1016
 2076TIP3   OH227642   3.465   1.167   2.058  0.1759 -0.2622 -0.2011
 2076TIP3    H127643   3.477   1.080   2.019  0.4828 -0.7357  0.8953
 2076TIP3    H227644   3.549   1.186   2.100  0.2684  0.7904 -0.8498
 2077TIP3   OH227645   0.885   3.974   3.604 -0.0756 -0.2078 -0.5593
 2077TIP3    H127646   0.801   3.950   3.644  0.8340 -0.6650  1.1808
 2077TIP3    H227647   0.912   3.896   3.556 -0.7439  0.0289 -1.3503
 2078TIP3   OH227648   5.582   3.905   5.456 -0.2209  0.1456  0.6691
 2078TIP3    H127649   5.505   3.961   5.469 -1.4547 -1.7166  2.1852
 2078TIP3    H227650   5.649   3.943   5.512  0.7202  2.8957 -2.0889
 2079TIP3   OH227651   6.116   3.586  12.922 -0.3453  0.0398  0.5714
 2079TIP3    H127652   6.091   3.672  12.957  1.6821  0.8547  0.1806
 2079TIP3    H227653   6.052   3.569  12.853 -0.0757  1.8676 -0.1990
 2080TIP3   OH227654   1.274   2.333  12.144 -0.4403  0.0469 -0.1038
 2080TIP3    H127655   1.277   2.370  12.232 -3.1912  1.0565 -0.3129
 2080TIP3    H227656   1.217   2.393  12.095  0.4892 -0.8225 -2.4267
 2081TIP3   OH227657   2.761   0.613  15.254  0.2415  0.0761 -0.5374
 2081TIP3    H127658   2.791   0.668  15.181  1.1855  1.3965  0.7901
 2081TIP3    H227659   2.744   0.528  15.214 -1.2930  1.2748 -2.6951
 2082TIP3   OH227660   5.552   5.985  14.706 -0.1368 -0.2656  0.5721
 2082TIP3    H127661   5.469   6.026  14.681  1.4241  0.7682 -3.7663
 2082TIP3    H227662   5.536   5.891  14.696 -0.7810 -0.0807 -0.2200
 2083TIP3   OH227663   2.599   1.061  14.205 -0.0479 -0.1125  0.1561
 2083TIP3    H127664   2.505   1.040  14.204 -0.7945  2.7882 -0.1215
 2083TIP3    H227665   2.634   1.011  14.278 -2.6154  1.4501  2.6661
 2084TIP3   OH227666   6.741   0.289   0.323 -0.8410 -0.8614 -0.8802
 2084TIP3    H127667   6.818   0.256   0.278 -0.2575  0.3812 -0.8371
 2084TIP3    H227668   6.691   0.334   0.255  0.6267  2.0606 -0.1812
 2085TIP3   OH227669   6.420   2.145   3.436  0.1927  0.2153 -0.3659
 2085TIP3    H127670   6.464   2.217   3.483  0.5070 -0.3900  0.2840
 2085TIP3    H227671   6.472   2.067   3.458 -2.2105 -0.8771  1.9544
 2086TIP3   OH227672   0.126   0.651  13.535 -0.1257  0.0494 -0.5766
 2086TIP3    H127673   0.210   0.674  13.495 -0.2220 -0.1039 -0.8632
 2086TIP3    H227674   0.105   0.565  13.499  0.8148 -1.0670  1.3636
 2087TIP3   OH227675   6.455   2.676  13.593  0.3611 -0.3042  0.3258
 2087TIP3    H127676   6.373   2.655  13.637 -0.4054  0.8336 -0.5032
 2087TIP3    H227677   6.491   2.749  13.644 -0.9767  1.6285 -1.3417
 2088TIP3   OH227678   2.671   6.175   1.508 -0.0082 -0.3213 -0.7077
 2088TIP3    H127679   2.622   6.257   1.517  0.9160  0.1443  0.1704
 2088TIP3    H227680   2.612   6.118   1.458 -2.1314 -0.3151  1.5755
 2089TIP3   OH227681   4.055   5.588   5.505  0.3363  0.7261  0.1036
 2089TIP3    H127682   4.031   5.532   5.578  1.0472 -0.2247 -0.3687
 2089TIP3    H227683   3.982   5.651   5.498  0.0714  0.5833  1.3443
 2090TIP3   OH227684   1.721   4.718   2.352  0.3188  0.0307 -0.0217
 2090TIP3    H127685   1.658   4.740   2.420  0.6193  1.1541 -0.0834
 2090TIP3    H227686   1.740   4.802   2.309  1.8504 -0.2793  0.0068
 2091TIP3   OH227687   2.365   2.374   1.344  0.1871  0.0995 -0.3475
 2091TIP3    H127688   2.392   2.355   1.434 -0.9197  0.7900  0.1493
 2091TIP3    H227689   2.299   2.308   1.325 -0.7468  0.9269 -0.0585
 2092TIP3   OH227690   1.458   0.277   4.855 -0.3646 -0.1318 -0.3820
 2092TIP3    H127691   1.506   0.222   4.917  0.6592  0.9216 -0.2244
 2092TIP3    H227692   1.525   0.315   4.799 -0.9590  1.6005  0.0310
 2093TIP3   OH227693   1.846   6.099   4.788 -0.0347 -0.0090  0.3999
 2093TIP3    H127694   1.770   6.064   4.740 -0.8771  1.7166  0.3914
 2093TIP3    H227695   1.917   6.100   4.724  0.5575 -3.2016  0.8430
 2094TIP3   OH227696   6.496   4.608   3.109  0.1616  0.0539  0.5149
 2094TIP3    H127697   6.590   4.591   3.116  0.0560 -0.4180  0.8317
 2094TIP3    H227698   6.463   4.597   3.198  0.1076  2.1737  0.8033
 2095TIP3   OH227699   6.341   3.382  11.058 -0.3010 -0.0042 -0.2515
 2095TIP3    H127700   6.400   3.309  11.037  0.3754  1.0435 -2.3112
 2095TIP3    H227701   6.278   3.383  10.985 -1.6533  0.1445  0.8855
 2096TIP3   OH227702   4.187   3.713  14.300 -0.5421  0.0581 -0.2528
 2096TIP3    H127703   4.238   3.654  14.245  0.5756  0.6454  0.1131
 2096TIP3    H227704   4.137   3.656  14.358  0.8174 -0.5548  0.3664
 2097TIP3   OH227705   0.522   2.898   0.188  0.3413 -0.1970  0.7108
 2097TIP3    H127706   0.565   2.889   0.103 -0.3728 -2.0175  0.4946
 2097TIP3    H227707   0.432   2.868   0.174 -0.4986  1.7139  1.5926
 2098TIP3   OH227708   3.867   2.151   2.587  0.1007  0.5507 -0.2426
 2098TIP3    H127709   3.954   2.176   2.557 -0.7736 -0.0312 -3.7361
 2098TIP3    H227710   3.862   2.057   2.572 -1.0722  0.5394  0.1102
 2099TIP3   OH227711   2.618   1.173  12.012 -0.2843 -0.0070  0.0644
 2099TIP3    H127712   2.575   1.145  11.931 -0.7819  1.0780 -0.0573
 2099TIP3    H227713   2.547   1.204  12.068  0.1159 -0.2331  0.7206
 2100TIP3   OH227714   5.834   1.116   2.507 -0.2730 -0.4645 -0.2233
 2100TIP3    H127715   5.879   1.036   2.536  0.2305  0.0492  0.4415
 2100TIP3    H227716   5.883   1.145   2.431  1.1223  0.6012  1.0416
 2101TIP3   OH227717   0.530   5.818   1.917  0.0219  0.2800 -0.0934
 2101TIP3    H127718   0.472   5.894   1.916  0.0949  0.3316 -1.1048
 2101TIP3    H227719   0.471   5.743   1.908 -0.2125  0.0635  2.4813
 2102TIP3   OH227720   5.998   5.494  15.533  0.1862  0.5546  0.1504
 2102TIP3    H127721   5.979   5.569  15.588  2.2379  1.9394 -0.8861
 2102TIP3    H227722   6.031   5.427  15.593 -0.2745  1.0055  0.9153
 2103TIP3   OH227723   3.376   5.569  12.660  0.1239 -0.3498  0.1263
 2103TIP3    H127724   3.439   5.607  12.721  0.4642 -1.1715  0.3003
 2103TIP3    H227725   3.293   5.612  12.681  0.5463  0.4832  0.1307
 2104TIP3   OH227726   3.544   2.701   6.061 -0.0715 -0.6078 -0.3111
 2104TIP3    H127727   3.621   2.647   6.042 -0.0161 -0.5305 -0.3087
 2104TIP3    H227728   3.570   2.789   6.033 -0.4494 -0.7252 -1.0560
 2105TIP3   OH227729   3.832   5.189   2.357  0.6819 -0.0291 -0.1845
 2105TIP3    H127730   3.859   5.186   2.266  0.0517  0.5405 -0.3974
 2105TIP3    H227731   3.899   5.138   2.404  3.0168  2.5553 -0.4702
 2106TIP3   OH227732   3.000   5.739   1.160  0.0175 -0.1888  0.4641
 2106TIP3    H127733   2.920   5.790   1.174  0.0561  0.1285 -0.3660
 2106TIP3    H227734   3.045   5.741   1.244 -0.2259  0.7316  0.5848
 2107TIP3   OH227735   4.225   1.929   5.736  0.2474  0.3918 -0.3616
 2107TIP3    H127736   4.317   1.956   5.734  0.6323 -0.5087  1.8723
 2107TIP3    H227737   4.203   1.929   5.829 -2.2311  1.1821 -0.8743
 2108TIP3   OH227738   2.321   2.261   2.781 -0.0075  0.7346 -0.4401
 2108TIP3    H127739   2.273   2.282   2.861 -1.1532  2.0100 -1.4244
 2108TIP3    H227740   2.313   2.166   2.773 -1.9283  0.8425 -0.2804
 2109TIP3   OH227741   2.829   1.641  13.943 -0.1258 -0.0586 -0.1740
 2109TIP3    H127742   2.916   1.654  13.905  0.5683 -1.1459  0.9478
 2109TIP3    H227743   2.800   1.557  13.909 -0.2072 -0.2630  0.3859
 2110TIP3   OH227744   0.795   3.144   4.310  0.3986 -0.0367  0.1848
 2110TIP3    H127745   0.852   3.179   4.242  1.0222 -0.1339  0.6425
 2110TIP3    H227746   0.708   3.141   4.270  0.6183  0.6073 -0.3529
 2111TIP3   OH227747   2.297   3.022  15.185 -0.1289  0.2110 -0.0490
 2111TIP3    H127748   2.385   3.037  15.150 -0.8640  1.1849 -1.6116
 2111TIP3    H227749   2.312   2.987  15.273  1.8098 -1.0468 -0.8109
 2112TIP3   OH227750   2.504   1.462   2.137 -0.3994 -0.6041 -0.1261
 2112TIP3    H127751   2.487   1.453   2.043  0.6710  0.6865 -0.4853
 2112TIP3    H227752   2.581   1.518   2.142 -1.5641  0.9784  1.5676
 2113TIP3   OH227753   0.113   5.614   0.805  0.0696  0.0498 -0.5762
 2113TIP3    H127754   0.057   5.648   0.875 -0.0402 -0.0652 -0.6075
 2113TIP3    H227755   0.182   5.680   0.795 -0.0778  0.2095 -0.5586
 2114TIP3   OH227756   0.222   2.770  15.712  0.3886 -0.0777  0.1339
 2114TIP3    H127757   0.193   2.811  15.630 -2.5922 -0.3695  0.9139
 2114TIP3    H227758   0.178   2.822  15.780  2.1861 -0.3169  1.5328
 2115TIP3   OH227759   6.270   5.460   2.347  0.0336 -0.1340  0.3779
 2115TIP3    H127760   6.263   5.390   2.412 -2.0104 -0.1926  0.1645
 2115TIP3    H227761   6.329   5.425   2.280 -1.3666 -1.9139  0.0088
 2116TIP3   OH227762   4.179   6.593   5.206  0.1753  0.1723  0.1243
 2116TIP3    H127763   4.227   6.513   5.184  0.5048 -0.0029  1.4222
 2116TIP3    H227764   4.091   6.579   5.170  0.1968 -0.8180  0.4297
 2117TIP3   OH227765   0.377   6.065  13.114  0.0880 -0.0707 -0.0616
 2117TIP3    H127766   0.414   6.090  13.029 -2.4558  0.8637 -1.0064
 2117TIP3    H227767   0.284   6.086  13.106 -0.4433 -1.0689  2.5758
 2118TIP3   OH227768   2.233   0.576   2.168 -0.0856  0.1170 -0.1355
 2118TIP3    H127769   2.137   0.574   2.167 -0.0984  0.6023 -0.1571
 2118TIP3    H227770   2.258   0.554   2.079 -0.2234  1.5684 -0.5630
 2119TIP3   OH227771   2.457   5.694  15.587 -0.1236  0.1774 -0.0766
 2119TIP3    H127772   2.547   5.708  15.617  0.2694 -0.7479 -0.7704
 2119TIP3    H227773   2.430   5.612  15.629 -0.5355  0.2919 -0.1139
 2120TIP3   OH227774   1.906   2.343   1.152  0.1385  0.1360 -0.1063
 2120TIP3    H127775   1.853   2.307   1.223 -0.5415  2.8624  0.8934
 2120TIP3    H227776   1.845   2.352   1.079 -0.4450  1.7735  0.5380
 2121TIP3   OH227777   2.825   2.959  15.249 -0.9611 -0.0775  0.0481
 2121TIP3    H127778   2.744   2.952  15.299 -1.3880  0.5379 -0.5435
 2121TIP3    H227779   2.836   3.053  15.235  1.3829  0.1482  2.5811
 2122TIP3   OH227780   5.112   0.611  15.636  0.5851 -0.0492 -0.5373
 2122TIP3    H127781   5.089   0.699  15.667  1.6607 -0.3812  1.3323
 2122TIP3    H227782   5.203   0.598  15.665 -0.2856 -2.6767  1.3948
 2123TIP3   OH227783   0.188   5.467  10.387 -0.0142  0.5800 -0.6618
 2123TIP3    H127784   0.171   5.373  10.385  1.5807  0.2603 -2.4259
 2123TIP3    H227785   0.224   5.483  10.474 -1.2533 -0.2299  0.0290
 2124TIP3   OH227786   4.915   4.517   3.002 -0.7467  0.1199  0.2567
 2124TIP3    H127787   4.970   4.483   3.073 -0.7738 -1.0534 -0.2627
 2124TIP3    H227788   4.826   4.512   3.036 -0.7501 -0.3456  0.1872
 2125TIP3   OH227789   3.793   0.702   1.944 -0.1968  0.2765 -0.1510
 2125TIP3    H127790   3.738   0.639   1.896 -1.0575  1.2848 -0.5226
 2125TIP3    H227791   3.815   0.656   2.025 -2.3785  0.1400  0.4516
 2126TIP3   OH227792   6.732   2.906  11.021  0.3511  0.1528 -0.4255
 2126TIP3    H127793   6.684   2.982  10.990  0.7259  0.2344 -0.8268
 2126TIP3    H227794   6.688   2.831  10.981 -0.3377  0.1158  0.3863
 2127TIP3   OH227795   1.682   3.775   5.729  0.6432 -0.2911  0.4398
 2127TIP3    H127796   1.637   3.711   5.784 -1.7915 -0.8849 -2.0445
 2127TIP3    H227797   1.691   3.853   5.785 -0.5338 -1.2518  2.0517
 2128TIP3   OH227798   5.446   3.093   0.059  0.0787  0.1151 -0.6069
 2128TIP3    H127799   5.431   3.040  -0.019 -2.5267  0.5578 -0.4994
 2128TIP3    H227800   5.526   3.142   0.040  1.3268 -2.1239 -1.6213
 2129TIP3   OH227801   5.062   6.747  15.844  0.2555 -0.6712 -0.7739
 2129TIP3    H127802   4.968   6.734  15.855  0.5255 -1.3226  1.1201
 2129TIP3    H227803   5.071   6.797  15.763 -1.9127  2.3465  0.6987
 2130TIP3   OH227804   0.654   5.522  15.674  0.0010 -0.8062  0.8240
 2130TIP3    H127805   0.645   5.565  15.590 -0.6498  0.7911  1.6790
 2130TIP3    H227806   0.736   5.473  15.667  1.5009  1.6286  0.2359
 2131TIP3   OH227807   6.111   6.043  11.454  0.2437 -0.6790 -0.1858
 2131TIP3    H127808   6.050   5.990  11.506 -0.3081  0.5616  0.5064
 2131TIP3    H227809   6.105   6.130  11.494  0.7528  0.0135 -1.5791
 2132TIP3   OH227810   4.207   5.178   3.468  0.5622  0.9228 -0.5385
 2132TIP3    H127811   4.142   5.136   3.523  0.4915  0.0909 -1.2361
 2132TIP3    H227812   4.207   5.127   3.387 -0.4805  3.0416 -1.9660
 2133TIP3   OH227813   3.680   5.994  15.643 -0.7071  0.1249 -0.5712
 2133TIP3    H127814   3.633   6.009  15.561  1.0352 -0.2187 -1.6806
 2133TIP3    H227815   3.621   5.940  15.695 -1.8488  0.3542 -1.5944
 2134TIP3   OH227816   4.089   5.032  15.951  0.1952 -0.5256 -0.6428
 2134TIP3    H127817   4.087   4.953  16.006 -3.0356  1.6103  2.8645
 2134TIP3    H227818   4.175   5.071  15.968 -0.2637 -0.5363  2.2733
 2135TIP3   OH227819   2.418   3.531   3.727 -0.4345  0.7275  0.1015
 2135TIP3    H127820   2.409   3.466   3.798  1.6114 -0.4690 -0.6526
 2135TIP3    H227821   2.356   3.601   3.751  0.5219  0.6382  3.3580
 2136TIP3   OH227822   6.029   5.991   1.588 -0.0520  0.1673 -0.1465
 2136TIP3    H127823   6.002   6.082   1.572 -2.8835 -0.6769 -0.5894
 2136TIP3    H227824   6.046   5.955   1.501 -0.0124 -0.0366 -0.0548
 2137TIP3   OH227825   5.292   1.423  14.150  0.7293 -0.2219  0.1592
 2137TIP3    H127826   5.355   1.495  14.151  1.2035 -0.5996  2.7663
 2137TIP3    H227827   5.222   1.455  14.093  1.0738  2.1883  0.9307
 2138TIP3   OH227828   3.199   2.988   4.229  0.2149  0.6020 -0.2786
 2138TIP3    H127829   3.148   3.068   4.245  0.4360  0.6433  0.2143
 2138TIP3    H227830   3.156   2.921   4.282  1.2492  0.8512  0.9139
 2139TIP3   OH227831   1.129   5.122   2.837 -0.7255 -0.2531  0.9636
 2139TIP3    H127832   1.205   5.169   2.872  0.0583  0.8797 -2.0278
 2139TIP3    H227833   1.167   5.059   2.775 -2.1412 -1.1016  0.9244
 2140TIP3   OH227834   4.377   6.517   0.175 -0.4688  0.6304  0.2773
 2140TIP3    H127835   4.301   6.528   0.232  0.1252  2.7212  0.7321
 2140TIP3    H227836   4.450   6.502   0.234 -0.3621 -0.4371 -0.1140
 2141TIP3   OH227837   5.928   3.039  14.807 -0.2098 -0.1810  0.2046
 2141TIP3    H127838   5.936   3.120  14.756  0.1414 -0.9462 -0.9858
 2141TIP3    H227839   6.017   3.004  14.811 -0.5260 -1.0447 -0.1819
 2142TIP3   OH227840   1.964   1.228  14.670 -0.7392 -0.0454  0.3356
 2142TIP3    H127841   2.032   1.162  14.660 -2.3929 -1.5254 -2.6430
 2142TIP3    H227842   1.926   1.211  14.756  1.0529 -0.7722  1.0178
 2143TIP3   OH227843   0.020   1.427   2.633  0.3503  0.1673 -0.1718
 2143TIP3    H127844   0.065   1.374   2.699  0.5245  0.2305 -0.2392
 2143TIP3    H227845  -0.044   1.478   2.682  0.8336  0.5994  0.0158
 2144TIP3   OH227846   3.317   2.708   2.965 -0.0988 -0.3508 -0.2194
 2144TIP3    H127847   3.356   2.624   2.991 -0.2699  0.0306  1.4174
 2144TIP3    H227848   3.391   2.768   2.959 -0.1051 -0.3357 -0.1509
 2145TIP3   OH227849   1.960   6.381   2.232  0.3776  0.2444  0.1512
 2145TIP3    H127850   1.992   6.291   2.226  0.5877  0.2884  0.6223
 2145TIP3    H227851   1.977   6.418   2.146 -1.2738 -0.6804 -0.6372
 2146TIP3   OH227852   5.210   2.982  16.125  0.0277 -0.1092  0.2007
 2146TIP3    H127853   5.290   3.035  16.118 -0.3670  0.9074  2.4261
 2146TIP3    H227854   5.241   2.891  16.118  1.4704  0.2427  1.4603
 2147TIP3   OH227855   3.435   1.834   3.052  0.2559  0.3887 -0.3340
 2147TIP3    H127856   3.343   1.835   3.024  0.0802  1.0232  0.2372
 2147TIP3    H227857   3.445   1.914   3.103  0.7846 -0.3587  0.7521
 2148TIP3   OH227858   5.611   3.316   1.056 -0.5489  0.4684  0.8930
 2148TIP3    H127859   5.679   3.376   1.024  0.4960 -0.7127  0.7933
 2148TIP3    H227860   5.646   3.282   1.138 -0.3828 -1.1511  0.1990
 2149TIP3   OH227861   2.681   3.658   3.318 -0.1575  0.3080  0.0222
 2149TIP3    H127862   2.637   3.726   3.265 -2.0120 -0.5710  0.3409
 2149TIP3    H227863   2.610   3.619   3.369  0.7626 -2.1348 -0.4362
 2150TIP3   OH227864   1.410   1.381  14.511 -1.4622 -0.6364 -0.1467
 2150TIP3    H127865   1.409   1.457  14.569  1.7858 -1.6085  1.4470
 2150TIP3    H227866   1.320   1.374  14.479 -2.1473  3.1611  0.4808
 2151TIP3   OH227867   2.923   4.063  15.135  0.1679  0.0154 -0.4269
 2151TIP3    H127868   2.911   4.156  15.157 -1.7306 -0.5871  1.4384
 2151TIP3    H227869   3.007   4.040  15.175  0.4745  0.8069 -0.5807
 2152TIP3   OH227870   1.663   0.777  14.907  0.0294  0.5689 -0.7675
 2152TIP3    H127871   1.663   0.769  14.812 -1.4923 -0.8989 -0.7118
 2152TIP3    H227872   1.723   0.709  14.937  1.2654  1.6736 -0.6770
 2153TIP3   OH227873   3.800   2.686  15.997 -0.1345 -0.2654 -0.2028
 2153TIP3    H127874   3.774   2.621  16.063  0.5860  0.0336  0.3933
 2153TIP3    H227875   3.888   2.659  15.970  0.4243  0.7944  0.5067
 2154TIP3   OH227876   1.661   5.554   0.585 -0.7512  0.0685  0.7717
 2154TIP3    H127877   1.735   5.494   0.588 -0.6086  0.2537  1.0285
 2154TIP3    H227878   1.648   5.581   0.676  1.3418  3.0457  0.3389
 2155TIP3   OH227879   4.834   1.132  14.535 -0.0887  0.4540 -0.1568
 2155TIP3    H127880   4.828   1.131  14.439 -1.4356 -0.5151 -0.0883
 2155TIP3    H227881   4.756   1.179  14.563  0.1746  0.5180  0.4807
 2156TIP3   OH227882   4.354   2.726  13.537 -0.4246 -0.5306 -0.4293
 2156TIP3    H127883   4.392   2.651  13.493  0.5991 -0.5429  0.4533
 2156TIP3    H227884   4.302   2.689  13.608  0.0904 -0.4035  0.0136
 2157TIP3   OH227885   3.605   0.659  15.881 -0.2448  0.0093 -0.3207
 2157TIP3    H127886   3.682   0.714  15.899 -0.6991  0.3152  0.7446
 2157TIP3    H227887   3.641   0.582  15.836  0.5162  0.7170 -0.9650
 2158TIP3   OH227888   0.197   1.851  15.173  0.0827 -0.0898  0.5354
 2158TIP3    H127889   0.150   1.934  15.175 -2.2819 -1.3650  1.8186
 2158TIP3    H227890   0.233   1.846  15.084 -0.1102  2.0520  0.2862
 2159TIP3   OH227891   2.414   2.451  13.402 -0.0502  0.3654 -0.1349
 2159TIP3    H127892   2.339   2.479  13.455  0.8235  0.2359  1.2131
 2159TIP3    H227893   2.416   2.513  13.329 -1.0730  0.7668  0.1602
 2160TIP3   OH227894   4.748   1.527  14.021  0.2327  0.2279  0.5496
 2160TIP3    H127895   4.726   1.483  14.103  0.9358  1.1218  1.2535
 2160TIP3    H227896   4.688   1.491  13.957 -3.3404  2.4613  2.2878
 2161TIP3   OH227897   4.589   0.904  10.941 -0.5934 -0.0018  0.2408
 2161TIP3    H127898   4.520   0.904  10.874  0.8252  1.5852 -1.3533
 2161TIP3    H227899   4.610   0.997  10.953  0.9089 -0.4098  1.0651
 2162TIP3   OH227900   4.923   5.412  10.598  0.3810 -0.1576 -0.1749
 2162TIP3    H127901   4.925   5.505  10.575  0.2356  0.1758  1.0666
 2162TIP3    H227902   4.920   5.367  10.514  2.9327  0.8561 -0.9174
 2163TIP3   OH227903   4.193   2.254  10.727 -0.1422 -0.1766  0.3748
 2163TIP3    H127904   4.266   2.197  10.754 -0.8557 -0.9856  0.6580
 2163TIP3    H227905   4.185   2.239  10.633  0.6329  0.6119  0.1706
 2164TIP3   OH227906   2.233   0.257   1.104  0.3929  0.4784 -0.3394
 2164TIP3    H127907   2.257   0.311   1.180  0.6375 -0.4595  0.2742
 2164TIP3    H227908   2.203   0.175   1.143  0.4878  0.0020 -1.2651
 2165TIP3   OH227909   0.090   6.314  10.311  0.2450  0.1532 -0.1802
 2165TIP3    H127910   0.024   6.383  10.313  1.1896  1.1295 -0.7339
 2165TIP3    H227911   0.144   6.330  10.389  2.3234  2.0555 -1.8490
 2166TIP3   OH227912   3.708   5.220  10.905 -0.5135 -0.3631 -1.0379
 2166TIP3    H127913   3.669   5.308  10.900 -1.4831 -0.7355 -0.2281
 2166TIP3    H227914   3.637   5.164  10.935 -0.1925 -1.6369 -2.5568
 2167TIP3   OH227915   5.268   5.244   4.477 -0.7049 -0.0906 -0.2626
 2167TIP3    H127916   5.350   5.197   4.491 -1.6167 -1.4628  0.8784
 2167TIP3    H227917   5.291   5.319   4.423  1.7926  1.0681  2.1344
 2168TIP3   OH227918   0.662   5.899  16.752 -0.1410  0.0993  0.1337
 2168TIP3    H127919   0.656   5.809  16.718 -0.4747 -0.5222  1.7352
 2168TIP3    H227920   0.585   5.908  16.808  0.7282  0.8129  1.2499
 2169TIP3   OH227921   5.335   5.718  14.095  0.0924 -0.3950  0.2222
 2169TIP3    H127922   5.299   5.805  14.110  1.4096  0.1218  0.5063
 2169TIP3    H227923   5.279   5.660  14.148 -2.4087 -0.1313 -1.9496
 2170TIP3   OH227924   2.844   1.950  12.515 -0.1017 -0.3787 -0.2583
 2170TIP3    H127925   2.825   1.954  12.421  2.1526  1.2280 -0.7159
 2170TIP3    H227926   2.927   1.903  12.521  0.9674  1.5086  0.6660
 2171TIP3   OH227927   0.496   5.535   3.447 -0.4379  0.0386 -0.1606
 2171TIP3    H127928   0.487   5.629   3.465  1.8337  0.3499 -0.3927
 2171TIP3    H227929   0.487   5.493   3.532 -2.6671  0.3101 -0.2042
 2172TIP3   OH227930   5.563   2.409   4.424  0.5471  0.1853  0.0274
 2172TIP3    H127931   5.482   2.363   4.446  0.7163  0.1081  0.5051
 2172TIP3    H227932   5.538   2.470   4.355 -0.2641  1.2815  1.2383
 2173TIP3   OH227933   1.036   0.673   1.545  0.0194 -0.1052  0.3303
 2173TIP3    H127934   1.023   0.727   1.622 -2.8480 -1.1406  0.7073
 2173TIP3    H227935   0.984   0.716   1.476 -1.2370 -1.5725  0.2912
 2174TIP3   OH227936   3.452   3.363   1.623 -0.2182 -0.0021 -0.0664
 2174TIP3    H127937   3.359   3.355   1.642 -0.5795  0.4461 -1.5104
 2174TIP3    H227938   3.480   3.441   1.671 -0.4985 -0.3348  0.6455
 2175TIP3   OH227939   3.423   6.268   4.137  0.1628 -0.1247 -0.4733
 2175TIP3    H127940   3.332   6.240   4.124 -0.4448  1.8203 -0.7581
 2175TIP3    H227941   3.437   6.335   4.071  1.2297  0.8277  0.6633
 2176TIP3   OH227942   1.871   2.549   4.149 -0.4588  0.5049 -0.0173
 2176TIP3    H127943   1.827   2.574   4.068 -1.2595 -0.0284  0.2448
 2176TIP3    H227944   1.950   2.502   4.119 -0.5744  0.6051 -0.4844
 2177TIP3   OH227945   4.246   3.258   0.408  0.4165 -0.0939  0.3163
 2177TIP3    H127946   4.216   3.266   0.318 -0.1557 -1.5102  0.3619
 2177TIP3    H227947   4.260   3.349   0.437  1.0482  0.3656 -1.3141
 2178TIP3   OH227948   1.205   5.164   3.484  0.2543 -0.3139 -0.1147
 2178TIP3    H127949   1.132   5.218   3.452 -2.1038 -3.1576  0.0358
 2178TIP3    H227950   1.165   5.104   3.547  2.8922 -1.5415  0.5344
 2179TIP3   OH227951   4.003   5.527   1.842  0.3150  0.0775 -0.3414
 2179TIP3    H127952   4.006   5.448   1.788 -0.1879  0.3871 -0.8252
 2179TIP3    H227953   4.095   5.548   1.859  0.4619 -0.2827 -0.6901
 2180TIP3   OH227954   4.048   5.349  14.805 -0.1346  0.4115  0.7070
 2180TIP3    H127955   4.073   5.341  14.713  0.3733  1.3188  0.7491
 2180TIP3    H227956   4.019   5.440  14.814  0.6148  0.5805  1.6167
 2181TIP3   OH227957   2.226   1.798  12.629  0.3373  0.7510  0.2823
 2181TIP3    H127958   2.223   1.870  12.567  1.2159  1.7502  1.3518
 2181TIP3    H227959   2.210   1.838  12.714 -1.4061 -0.6683  0.6999
 2182TIP3   OH227960   4.165   2.598   4.724 -0.0246  0.3154 -0.0887
 2182TIP3    H127961   4.216   2.546   4.786  0.2507 -1.2100 -1.5187
 2182TIP3    H227962   4.179   2.689   4.752  1.7620 -0.1846  0.8215
 2183TIP3   OH227963   1.488   0.727   5.865 -0.5542  0.1754 -0.0572
 2183TIP3    H127964   1.421   0.793   5.878  0.2946  1.1647 -0.5721
 2183TIP3    H227965   1.551   0.742   5.935 -0.9126 -0.8271  0.4977
 2184TIP3   OH227966   0.971   1.493   0.681 -0.1488  0.3434 -0.0283
 2184TIP3    H127967   0.926   1.547   0.746  0.7501  1.4146 -0.2618
 2184TIP3    H227968   1.063   1.498   0.706  0.3338  1.5094 -1.8462
 2185TIP3   OH227969   3.405   3.305  13.275 -0.0801 -0.3128 -0.0924
 2185TIP3    H127970   3.375   3.352  13.197  0.2052  0.4014  0.2204
 2185TIP3    H227971   3.494   3.279  13.255 -0.4241 -1.2293 -0.4833
 2186TIP3   OH227972   1.446   3.841  11.722  0.2834  0.5376  0.0579
 2186TIP3    H127973   1.466   3.803  11.637  0.2887 -2.5736  1.3047
 2186TIP3    H227974   1.369   3.896  11.707 -1.3614 -2.0094 -1.5655
 2187TIP3   OH227975   6.466   3.139   0.800 -0.1585  0.0499  0.8745
 2187TIP3    H127976   6.494   3.164   0.711 -1.5327 -3.2787 -0.6749
 2187TIP3    H227977   6.377   3.173   0.807 -0.2027 -0.0446  0.7821
 2188TIP3   OH227978   2.224   3.848   2.788 -0.0101 -0.6037 -0.0687
 2188TIP3    H127979   2.260   3.914   2.847  0.1024  0.2051 -1.0105
 2188TIP3    H227980   2.134   3.835   2.817 -0.3931  0.8077 -0.5400
 2189TIP3   OH227981   1.284   0.570  10.445  0.0602  0.4858  0.4333
 2189TIP3    H127982   1.219   0.512  10.405  0.1277 -0.0404  1.0822
 2189TIP3    H227983   1.332   0.515  10.507  2.8551  0.1558 -1.7875
 2190TIP3   OH227984   0.489   3.225   4.636  0.2100  0.2615 -0.7117
 2190TIP3    H127985   0.421   3.284   4.669  0.2974  0.8505 -1.5532
 2190TIP3    H227986   0.564   3.281   4.618  1.5063 -0.5678  1.5994
 2191TIP3   OH227987   5.144   6.173  16.077  0.4614  0.5537  0.4892
 2191TIP3    H127988   5.049   6.170  16.093  0.1696 -1.6811 -1.1369
 2191TIP3    H227989   5.171   6.259  16.108 -2.3283  1.8012 -0.2316
 2192TIP3   OH227990   1.885   0.332   5.320  1.0414 -0.1050  0.2505
 2192TIP3    H127991   1.790   0.341   5.325  0.9346  0.1623 -1.5572
 2192TIP3    H227992   1.912   0.312   5.410 -0.7035 -0.1340  0.8084
 2193TIP3   OH227993   1.519   4.517   5.520  0.6021 -0.7354 -0.4503
 2193TIP3    H127994   1.484   4.431   5.497 -0.4426 -0.1096 -1.3044
 2193TIP3    H227995   1.449   4.578   5.496  1.7950  0.4547 -0.9643
 2194TIP3   OH227996   4.699   5.906  12.877  0.1244 -0.2918  0.4600
 2194TIP3    H127997   4.653   5.970  12.823  1.3975 -1.7447 -2.6406
 2194TIP3    H227998   4.638   5.885  12.948 -1.4041  2.2638  0.0173
 2195TIP3   OH227999   2.189   1.585  12.916 -0.2661 -0.3298  0.1294
 2195TIP3    H128000   2.099   1.607  12.895  0.2221  1.3653 -0.3949
 2195TIP3    H228001   2.190   1.490  12.923 -1.8435 -0.4636 -0.9843
 2196TIP3   OH228002   1.192   4.901  16.786  0.0182 -0.5078 -0.3677
 2196TIP3    H128003   1.269   4.852  16.814 -0.2942 -0.5041  0.5270
 2196TIP3    H228004   1.118   4.855  16.827 -0.3500  0.2041 -0.2270
 2197TIP3   OH228005   2.217   3.269  15.153  0.2480 -0.2679 -0.5160
 2197TIP3    H128006   2.259   3.282  15.238 -1.3834  3.3165 -0.0941
 2197TIP3    H228007   2.222   3.174  15.138  0.8678 -1.0130  3.4071
 2198TIP3   OH228008   2.286   2.205  16.395 -0.5053  0.3761  0.0480
 2198TIP3    H128009   2.199   2.230  16.362  0.0188  1.6071 -0.4834
 2198TIP3    H228010   2.337   2.187  16.316 -0.3151 -0.5221  0.3653
 2199TIP3   OH228011   3.862   6.281   2.531 -0.0278  0.5501  0.8974
 2199TIP3    H128012   3.925   6.218   2.568 -0.4026  0.9645  2.3071
 2199TIP3    H228013   3.810   6.309   2.606 -0.0248  2.3750  0.2532
 2200TIP3   OH228014   6.363   4.935   0.713  0.0686 -0.2764  0.4038
 2200TIP3    H128015   6.413   4.905   0.789 -0.8963 -0.9472  0.7944
 2200TIP3    H228016   6.422   4.922   0.638  1.3207  1.1091  1.0967
 2201TIP3   OH228017   4.626   2.558  11.099  0.3652 -1.0251 -0.1517
 2201TIP3    H128018   4.676   2.515  11.030 -1.0062 -0.5374 -1.4844
 2201TIP3    H228019   4.536   2.530  11.086  0.0357 -0.7693  1.3367
 2202TIP3   OH228020   0.085   4.093   5.139  0.0455 -0.2474 -0.0300
 2202TIP3    H128021   0.035   4.173   5.150  0.4848 -0.1238  1.2187
 2202TIP3    H228022   0.146   4.113   5.068 -0.3894  0.2417 -0.2715
 2203TIP3   OH228023   2.345   2.260  11.856  0.2147  0.6233 -0.0027
 2203TIP3    H128024   2.384   2.243  11.942 -0.7850  1.3910  0.6295
 2203TIP3    H228025   2.411   2.310  11.809  1.3890 -1.0978 -0.2727
 2204TIP3   OH228026   6.453   3.868  15.949  0.3010 -0.2351 -0.6080
 2204TIP3    H128027   6.374   3.844  15.900 -1.4348  0.1680  1.8458
 2204TIP3    H228028   6.516   3.799  15.927 -1.9499 -2.7111  0.1529
 2205TIP3   OH228029   3.481   3.827   0.347 -0.2209 -0.8424 -0.1643
 2205TIP3    H128030   3.411   3.831   0.282 -1.3485 -0.5997  1.0453
 2205TIP3    H228031   3.453   3.760   0.409  0.2919 -0.2775  0.7023
 2206TIP3   OH228032   6.009   3.507   0.722  0.4068 -0.2504  0.2924
 2206TIP3    H128033   6.015   3.521   0.628 -0.0956 -0.4274  0.2337
 2206TIP3    H228034   6.036   3.591   0.760 -0.0487  0.0411 -0.0205
 2207TIP3   OH228035   1.345   2.282   1.985  0.5726 -0.4593  0.0598
 2207TIP3    H128036   1.370   2.358   2.037 -1.6696  0.5365 -0.1893
 2207TIP3    H228037   1.317   2.217   2.049  1.4944 -0.7003  0.2292
 2208TIP3   OH228038   4.610   3.913  17.218  0.4417  0.0684  0.2984
 2208TIP3    H128039   4.662   3.887  17.295 -1.4033 -0.7552  1.3282
 2208TIP3    H228040   4.560   3.835  17.196 -1.4776  1.2367  0.3010
 2209TIP3   OH228041   6.504   5.325  16.187  0.0104 -0.5605  0.0503
 2209TIP3    H128042   6.569   5.313  16.257 -1.0388 -0.9005  0.9984
 2209TIP3    H228043   6.470   5.413  16.200 -0.5362 -0.8034  0.2726
 2210TIP3   OH228044   1.793   4.372   4.646  0.5080  0.0247  0.1293
 2210TIP3    H128045   1.718   4.313   4.649  0.8075 -0.3949 -0.4447
 2210TIP3    H228046   1.829   4.360   4.558  1.4082  0.0169  0.4901
 2211TIP3   OH228047   0.179   4.762  13.698 -0.5989  0.5048 -0.0231
 2211TIP3    H128048   0.218   4.711  13.769 -0.4314 -0.8908 -1.0615
 2211TIP3    H228049   0.233   4.841  13.692  2.0276 -1.2382 -1.2262
 2212TIP3   OH228050   2.289   6.578  13.802 -0.2094  0.3616 -0.2555
 2212TIP3    H128051   2.362   6.521  13.825 -1.6063 -0.9449  1.1765
 2212TIP3    H228052   2.279   6.636  13.878 -1.8274 -0.7539  0.4333
 2213TIP3   OH228053   4.667   2.923   1.347  0.0768  0.3557  0.3420
 2213TIP3    H128054   4.617   3.005   1.341  1.0615  0.9466  0.0730
 2213TIP3    H228055   4.757   2.951   1.364  0.3157 -0.7015  0.8704
 2214TIP3   OH228056   3.002   3.836   3.060  0.7738  0.1900 -0.0040
 2214TIP3    H128057   3.092   3.810   3.039  1.1744  1.5635 -0.0843
 2214TIP3    H228058   2.991   3.809   3.151  0.0390 -3.1015 -0.9243
 2215TIP3   OH228059   3.675   1.137   0.876 -0.0556 -0.4089  0.5230
 2215TIP3    H128060   3.704   1.201   0.811 -0.1318 -1.4430 -0.5875
 2215TIP3    H228061   3.754   1.089   0.900 -0.3258 -1.2812 -0.2704
 2216TIP3   OH228062   2.559   3.703   5.316 -0.3273  0.3051  0.0553
 2216TIP3    H128063   2.476   3.703   5.268  0.3005  2.0653 -1.1468
 2216TIP3    H228064   2.576   3.611   5.337 -1.8071 -0.2438 -1.0278
 2217TIP3   OH228065   6.746   4.973   5.945  0.4978 -0.3281  0.1894
 2217TIP3    H128066   6.778   4.960   6.034  1.4678  0.4866 -0.0212
 2217TIP3    H228067   6.809   5.033   5.905  0.4304 -1.1496 -1.2409
 2218TIP3   OH228068   1.713   2.510   3.241  0.2003  0.9297 -0.3670
 2218TIP3    H128069   1.620   2.487   3.246  0.3527  0.1556 -0.9239
 2218TIP3    H228070   1.723   2.552   3.156  0.1595  2.0330  0.1514
 2219TIP3   OH228071   2.011   0.241   3.191 -0.3187  0.1063 -0.6293
 2219TIP3    H128072   2.039   0.270   3.105  0.3597  1.4788  0.0327
 2219TIP3    H228073   1.915   0.235   3.184 -0.3146  0.7295 -1.3096
 2220TIP3   OH228074   1.911   2.507   3.491  0.0935  0.3425 -0.5280
 2220TIP3    H128075   1.912   2.473   3.581 -3.5043  1.9489  0.3059
 2220TIP3    H228076   1.987   2.564   3.486  0.3778  0.2164  1.5077
 2221TIP3   OH228077   6.164   3.756   4.220 -0.1134  0.3688  0.2099
 2221TIP3    H128078   6.130   3.800   4.298  0.7170  0.6677  0.4048
 2221TIP3    H228079   6.128   3.667   4.227 -2.6881  1.2379 -0.7395
 2222TIP3   OH228080   3.565   0.816   3.630 -0.1801 -0.3585 -0.8332
 2222TIP3    H128081   3.577   0.743   3.691 -1.7614 -0.5674 -0.7274
 2222TIP3    H228082   3.557   0.775   3.544  0.0591 -0.2162 -0.9237
 2223TIP3   OH228083   4.836   5.376   4.713 -0.3390  0.2123 -0.0813
 2223TIP3    H128084   4.852   5.404   4.623  1.5755  0.3341  0.2741
 2223TIP3    H228085   4.849   5.281   4.711  2.3469  0.5023  0.5459
 2224TIP3   OH228086   6.124   2.866   0.820 -0.3081 -0.2558 -0.5442
 2224TIP3    H128087   6.169   2.920   0.885 -0.8870 -0.0066 -0.3375
 2224TIP3    H228088   6.035   2.903   0.816 -0.8927 -1.5386  0.0148
 2225TIP3   OH228089   1.449   4.066   4.126  0.7301 -0.1896 -0.0154
 2225TIP3    H128090   1.362   4.103   4.109 -0.1929 -1.5581  1.4641
 2225TIP3    H228091   1.486   4.124   4.192 -0.2071 -1.1160  1.3760
 2226TIP3   OH228092   4.014   3.324  17.172 -0.2206 -0.2835  0.0840
 2226TIP3    H128093   3.936   3.295  17.125 -0.6998 -1.5785  1.5694
 2226TIP3    H228094   4.081   3.259  17.151 -0.8589 -1.7366  2.2416
 2227TIP3   OH228095   4.268   6.208  15.091  0.3028  0.1517 -0.2248
 2227TIP3    H128096   4.302   6.139  15.034 -0.8683  0.4571 -1.3407
 2227TIP3    H228097   4.176   6.186  15.104 -0.3484  1.9304 -1.3660
 2228TIP3   OH228098   4.645   4.366   0.938  0.1466  0.0744 -0.1424
 2228TIP3    H128099   4.607   4.431   0.996 -0.6989  1.1268 -1.7832
 2228TIP3    H228100   4.725   4.337   0.982  0.3899  2.0037  0.7833
 2229TIP3   OH228101   4.487   0.108  15.102 -0.0856 -0.7337 -0.0213
 2229TIP3    H128102   4.549   0.039  15.128  0.7593  0.4503  1.2670
 2229TIP3    H228103   4.535   0.189  15.117 -2.2588  0.2921  2.0138
 2230TIP3   OH228104   0.496   6.780   2.567 -0.3574 -0.1213  0.1164
 2230TIP3    H128105   0.476   6.699   2.519 -2.5828  0.3931  0.0522
 2230TIP3    H228106   0.529   6.750   2.652  0.9462 -1.0512 -0.6708
 2231TIP3   OH228107   6.277   1.453  13.103  0.1841  0.1882  0.0782
 2231TIP3    H128108   6.200   1.436  13.156  1.9840 -1.0865  2.5012
 2231TIP3    H228109   6.272   1.390  13.031 -0.7679 -0.2247  0.4969
 2232TIP3   OH228110   5.838   5.489   4.254 -1.1590 -0.2813  0.1422
 2232TIP3    H128111   5.825   5.581   4.274 -1.8471 -0.3398 -0.0159
 2232TIP3    H228112   5.845   5.486   4.159 -0.6125 -0.3307  0.1820
 2233TIP3   OH228113   6.202   5.166   1.814 -0.3546 -0.2818  0.9473
 2233TIP3    H128114   6.122   5.115   1.825 -0.6763 -0.0973 -0.3931
 2233TIP3    H228115   6.173   5.248   1.774  0.6609 -0.8265 -1.0416
 2234TIP3   OH228116   4.060   4.160   0.240 -0.2607  0.3258 -0.5051
 2234TIP3    H128117   3.966   4.153   0.258  0.1112 -1.7019  0.9920
 2234TIP3    H228118   4.070   4.124   0.152 -0.7707 -0.4466 -0.2558
 2235TIP3   OH228119   4.089   2.388   5.384  0.3590  0.4934 -0.4384
 2235TIP3    H128120   4.073   2.431   5.300  0.7681  0.8809 -0.3273
 2235TIP3    H228121   4.147   2.449   5.430 -2.5017  1.9681  1.4976
 2236TIP3   OH228122   3.292   6.727  13.379  0.9795 -0.0835 -0.1229
 2236TIP3    H128123   3.281   6.633  13.391  3.2126 -0.2773  0.9074
 2236TIP3    H228124   3.370   6.735  13.323  2.3018  1.1231  1.7695
 2237TIP3   OH228125   6.198   4.650  11.564  0.1456 -0.0540  0.4936
 2237TIP3    H128126   6.154   4.566  11.554 -2.3557  1.0940  1.0172
 2237TIP3    H228127   6.207   4.684  11.475 -2.3566  0.7141  0.4452
 2238TIP3   OH228128   5.902   5.081   0.106 -0.2004 -0.2292  0.6027
 2238TIP3    H128129   5.809   5.060   0.099 -0.2840 -0.2719  1.6834
 2238TIP3    H228130   5.937   5.015   0.165  1.0464 -1.7195 -1.6712
 2239TIP3   OH228131   4.682   3.812  10.819  0.1922  0.0656  0.2869
 2239TIP3    H128132   4.754   3.760  10.853  0.0039  0.6607  1.6291
 2239TIP3    H228133   4.615   3.809  10.888 -1.6480 -1.5335 -1.3969
 2240TIP3   OH228134   3.040   2.296   4.575  0.4662  0.3498  0.5662
 2240TIP3    H128135   2.996   2.227   4.624 -1.0006 -0.2210 -1.4058
 2240TIP3    H228136   3.131   2.293   4.604  0.1679 -1.5648  1.4294
 2241TIP3   OH228137   3.451   0.376   4.970  0.2402 -0.2953 -0.3718
 2241TIP3    H128138   3.380   0.440   4.965  0.1088 -0.4774 -0.9287
 2241TIP3    H228139   3.473   0.372   5.063 -0.9901 -0.7778 -0.0796
 2242TIP3   OH228140   0.166   6.002   3.803  0.2075 -0.5661 -0.1062
 2242TIP3    H128141   0.140   5.910   3.797  0.5948 -0.6736 -0.1795
 2242TIP3    H228142   0.262   6.000   3.807  0.1909 -0.2728  1.7110
 2243TIP3   OH228143   2.500   1.939  17.234  0.4522 -0.1722  0.3280
 2243TIP3    H128144   2.562   1.892  17.290  1.4478 -1.6207 -1.8423
 2243TIP3    H228145   2.555   1.995  17.179 -0.5384  1.6456  1.1263
 2244TIP3   OH228146   3.075   0.084  13.441 -0.2740  0.0317  0.1853
 2244TIP3    H128147   3.077   0.152  13.374  0.5200 -0.8363 -0.7012
 2244TIP3    H228148   3.143   0.021  13.415 -0.9464 -1.0862  0.9921
 2245TIP3   OH228149   1.753   1.009  11.308  0.3005 -0.2291  0.5384
 2245TIP3    H128150   1.795   1.093  11.287  2.7353 -1.3614  0.4998
 2245TIP3    H228151   1.685   0.999  11.242  1.3371  0.7954 -0.7515
 2246TIP3   OH228152   1.696   1.124  13.933 -0.5111 -0.3436  0.4408
 2246TIP3    H128153   1.733   1.211  13.943  1.1136 -1.1863  2.6078
 2246TIP3    H228154   1.630   1.118  14.002 -1.2732 -0.5499 -0.2822
 2247TIP3   OH228155   6.566   5.043  13.223  0.0850  0.5037 -0.3705
 2247TIP3    H128156   6.511   5.003  13.290  0.0142  1.1181 -0.0560
 2247TIP3    H228157   6.625   4.973  13.195  0.8520  0.5318  1.1124
 2248TIP3   OH228158   4.577   0.091  15.755 -0.5695 -0.4734 -0.0268
 2248TIP3    H128159   4.535   0.175  15.736 -0.4889 -0.7894 -1.7076
 2248TIP3    H228160   4.656   0.090  15.700  0.2368 -1.0362  1.0847
 2249TIP3   OH228161   1.030   1.360  14.197 -0.0238 -0.0854 -0.0282
 2249TIP3    H128162   0.978   1.282  14.178  1.6037 -1.3275  0.3322
 2249TIP3    H228163   1.001   1.424  14.133 -1.9258 -0.7253  0.1241
 2250TIP3   OH228164   1.889   2.941  14.370 -0.6659 -0.1305  0.3354
 2250TIP3    H128165   1.813   2.963  14.316  0.1273 -0.4591 -0.9574
 2250TIP3    H228166   1.901   3.018  14.425 -0.8981  0.6565 -0.6723
 2251TIP3   OH228167   5.716   3.405  16.226  0.5892 -0.0739 -0.1383
 2251TIP3    H128168   5.711   3.485  16.279  2.4660 -1.1238  1.7875
 2251TIP3    H228169   5.675   3.338  16.281  1.7857 -1.0117 -0.3467
 2252TIP3   OH228170   5.649   3.910  15.587  0.2500 -0.0083  0.3215
 2252TIP3    H128171   5.714   3.949  15.645 -1.8555  0.6454  2.3926
 2252TIP3    H228172   5.683   3.824  15.566  2.5742  0.9569 -0.1186
 2253TIP3   OH228173   3.208   0.317  17.002  0.5311 -0.0421 -0.1832
 2253TIP3    H128174   3.147   0.391  17.006  0.8363  0.1656  0.8471
 2253TIP3    H228175   3.245   0.322  16.914 -0.7796 -0.0521 -0.7632
 2254TIP3   OH228176   0.558   3.546   1.450 -0.0321 -0.8537  0.3143
 2254TIP3    H128177   0.638   3.535   1.399 -1.2478 -1.8494 -1.4857
 2254TIP3    H228178   0.507   3.611   1.402  0.0392  0.5114  1.9632
 2255TIP3   OH228179   3.903   5.638  13.185  1.0188  0.0398 -0.0043
 2255TIP3    H128180   3.884   5.555  13.230 -0.8603  0.1450 -0.5383
 2255TIP3    H228181   3.996   5.632  13.162  0.9383 -1.8835  0.0261
 2256TIP3   OH228182   5.392   6.618  16.768 -0.0372  0.4469  0.1673
 2256TIP3    H128183   5.389   6.682  16.697 -1.6674  0.1750 -0.0624
 2256TIP3    H228184   5.300   6.595  16.783  0.4837 -1.7190  0.3517
 2257TIP3   OH228185   3.697   4.306  13.927  0.0056  0.0804 -0.8663
 2257TIP3    H128186   3.739   4.293  13.842  0.2895 -0.3286 -0.6644
 2257TIP3    H228187   3.756   4.364  13.975 -0.2702  0.5017 -1.0310
 2258TIP3   OH228188   6.401   4.878   2.220  0.5306  0.0079  0.1179
 2258TIP3    H128189   6.365   4.846   2.303  2.4417  1.7953  1.7376
 2258TIP3    H228190   6.442   4.801   2.181  1.4393 -0.4552  1.8825
 2259TIP3   OH228191   6.734   3.811   5.064 -0.1049 -0.3956  0.2905
 2259TIP3    H128192   6.807   3.867   5.041  0.5029 -1.8045 -1.4367
 2259TIP3    H228193   6.657   3.867   5.058  0.6791  0.7818  0.8940
 2260TIP3   OH228194   2.733   2.961  17.124 -0.5119  0.2531  0.0351
 2260TIP3    H128195   2.749   2.872  17.158 -0.6817  0.8970  1.9392
 2260TIP3    H228196   2.785   3.018  17.180  0.4677  1.3093 -1.8643
 2261TIP3   OH228197   2.231   2.622   1.390  0.2963 -1.0285  0.1199
 2261TIP3    H128198   2.302   2.663   1.440 -0.0756 -1.3532  0.9419
 2261TIP3    H228199   2.256   2.530   1.382  0.8681 -0.7771 -1.2503
 2262TIP3   OH228200   1.907   4.865   1.610  0.6054 -0.1730  0.2402
 2262TIP3    H128201   1.988   4.841   1.565  1.5054  0.3182  1.5074
 2262TIP3    H228202   1.911   4.819   1.693 -0.4718 -0.2059  0.2862
 2263TIP3   OH228203   3.395   4.502  14.928  0.1435  0.0850 -0.0058
 2263TIP3    H128204   3.333   4.542  14.867  1.0286  0.9967 -0.3452
 2263TIP3    H228205   3.472   4.559  14.925  0.7839 -0.6931  0.8359
 2264TIP3   OH228206   1.878   3.968   3.856  0.7200 -0.8292 -0.0443
 2264TIP3    H128207   1.810   3.904   3.838  2.0718 -1.7661 -2.3832
 2264TIP3    H228208   1.862   4.038   3.793 -0.1477  0.7232  1.8131
 2265TIP3   OH228209   1.711   0.172  11.272 -0.0720 -0.3719  0.1429
 2265TIP3    H128210   1.803   0.148  11.273 -0.0003 -0.2218 -1.0902
 2265TIP3    H228211   1.708   0.260  11.309  0.3195 -0.2886 -0.0207
 2266TIP3   OH228212   2.536   0.237  13.102 -0.0978  0.1633  0.2184
 2266TIP3    H128213   2.601   0.304  13.122 -2.0106  2.0963  0.3615
 2266TIP3    H228214   2.524   0.190  13.185 -0.0422  0.8583  0.6254
 2267TIP3   OH228215   0.985   5.018  15.256 -0.4816 -0.2935  0.2815
 2267TIP3    H128216   1.011   5.045  15.168 -0.3161 -0.5999  0.2351
 2267TIP3    H228217   1.061   5.039  15.310 -1.0445  1.0650  0.5828
 2268TIP3   OH228218   4.809   4.884  13.727  0.2400  0.0667  0.3643
 2268TIP3    H128219   4.773   4.845  13.648 -2.0952 -0.2100  1.4906
 2268TIP3    H228220   4.826   4.811  13.786  0.0295  0.4141  0.8679
 2269TIP3   OH228221   6.161   3.582   3.699  0.2556  0.3176  0.3626
 2269TIP3    H128222   6.079   3.598   3.653  1.2143  1.5284 -1.0219
 2269TIP3    H228223   6.144   3.609   3.789 -0.5495  1.6414 -0.1592
 2270TIP3   OH228224   1.544   2.225  15.049 -0.1468 -0.2968 -0.4167
 2270TIP3    H128225   1.633   2.246  15.021 -0.1541  0.2238 -0.0607
 2270TIP3    H228226   1.544   2.130  15.059 -0.3166 -0.6182 -2.8026
 2271TIP3   OH228227   2.128   4.136  12.012 -0.4493  0.4024 -0.0014
 2271TIP3    H128228   2.079   4.212  12.043 -1.5368 -0.6593  1.0202
 2271TIP3    H228229   2.204   4.172  11.967 -1.8477  2.1300 -1.1127
 2272TIP3   OH228230   3.704   0.090  15.137 -0.2199  0.7172 -0.1343
 2272TIP3    H128231   3.681   0.041  15.058  3.6338 -0.0268 -1.0034
 2272TIP3    H228232   3.704   0.182  15.110  1.1885  0.4595 -1.0932
 2273TIP3   OH228233   5.636   3.974  16.351 -0.0848 -0.0945 -0.2856
 2273TIP3    H128234   5.649   4.061  16.388 -0.4995  0.1485 -0.7026
 2273TIP3    H228235   5.723   3.944  16.326  0.2994 -0.5010  1.3921
 2274TIP3   OH228236   5.236   0.016  13.828 -0.0700  0.3289 -0.2773
 2274TIP3    H128237   5.206   0.085  13.769 -0.0008 -0.0628 -0.7799
 2274TIP3    H228238   5.302  -0.032  13.777  0.3371  0.2722  0.2860
 2275TIP3   OH228239   5.317   4.535  14.677 -0.0920 -0.2047  0.0736
 2275TIP3    H128240   5.317   4.443  14.652  1.9927 -0.2154 -0.0307
 2275TIP3    H228241   5.269   4.538  14.760 -0.8812 -1.2386 -0.3327
 2276TIP3   OH228242   0.978   5.026  16.232  0.5726  0.2410  0.1278
 2276TIP3    H128243   1.047   4.992  16.289 -0.5412 -1.8151  0.3488
 2276TIP3    H228244   0.898   4.984  16.264 -0.3859  0.5543 -1.7211
 2277TIP3   OH228245   4.704   4.468   4.833 -0.7649 -0.1168 -0.0504
 2277TIP3    H128246   4.728   4.493   4.743 -1.5767  0.5325 -0.0992
 2277TIP3    H228247   4.787   4.467   4.880 -0.5928  2.2218 -0.1641
 2278TIP3   OH228248   5.656   0.009   6.299 -0.0121 -0.0182 -0.5067
 2278TIP3    H128249   5.575   0.034   6.254  0.5283  1.4338 -0.7265
 2278TIP3    H228250   5.726   0.035   6.239  0.6282 -2.3950 -0.8752
 2279TIP3   OH228251   4.732   3.138   4.794 -0.0360  0.4925 -0.0723
 2279TIP3    H128252   4.654   3.192   4.786  0.5080  1.4038  0.5305
 2279TIP3    H228253   4.750   3.136   4.888  1.4071  1.4139 -0.2982
 2280TIP3   OH228254   2.348   4.512   2.945 -0.3698 -0.4564  0.1578
 2280TIP3    H128255   2.312   4.594   2.911 -0.3708 -0.7167 -0.4875
 2280TIP3    H228256   2.329   4.514   3.039 -0.1674  0.3834  0.1835
 2281TIP3   OH228257   5.540   2.417  11.596 -0.0377  0.3852 -0.2396
 2281TIP3    H128258   5.552   2.438  11.503 -1.7468 -0.2123 -0.6131
 2281TIP3    H228259   5.603   2.347  11.612 -0.6720 -0.4677 -1.3183
 2282TIP3   OH228260   1.730   1.084   3.128  0.4144  0.2146  0.1544
 2282TIP3    H128261   1.813   1.039   3.147  0.0515 -1.0904 -1.1443
 2282TIP3    H228262   1.750   1.177   3.139  1.7517 -0.1423  0.9381
 2283TIP3   OH228263   2.116   1.784  13.575 -0.0101  0.2547 -0.5118
 2283TIP3    H128264   2.207   1.809  13.592 -0.3587  0.9844  0.3492
 2283TIP3    H228265   2.123   1.710  13.515  1.1329  0.7115 -0.9841
 2284TIP3   OH228266   0.177   3.829   0.744 -0.3210 -0.0904  0.1475
 2284TIP3    H128267   0.142   3.916   0.725  0.3518  0.0971 -0.2856
 2284TIP3    H228268   0.260   3.846   0.788  0.6137 -0.4794 -1.3932
 2285TIP3   OH228269   4.687   1.538  15.680  0.1550  0.8859  0.0356
 2285TIP3    H128270   4.683   1.574  15.591  1.4854  1.3486  0.1462
 2285TIP3    H228271   4.610   1.482  15.687 -0.3062  1.3424 -1.1922
 2286TIP3   OH228272   4.504   2.288   2.881  0.1698  0.0281  0.0447
 2286TIP3    H128273   4.580   2.239   2.912 -0.4619 -0.2294  1.2652
 2286TIP3    H228274   4.433   2.262   2.940 -0.4829  1.4636 -0.0643
 2287TIP3   OH228275   1.849   5.000   4.612  0.7118 -0.3179 -0.0762
 2287TIP3    H128276   1.851   4.904   4.619  1.1928 -0.1870  2.2026
 2287TIP3    H228277   1.814   5.016   4.524  0.6888 -2.5730 -0.5530
 2288TIP3   OH228278   1.240   4.328  14.407 -0.0883 -0.3076  0.5076
 2288TIP3    H128279   1.193   4.286  14.334 -0.1921  0.4592  0.1239
 2288TIP3    H228280   1.171   4.354  14.468 -0.1189  0.2574  0.2384
 2289TIP3   OH228281   6.220   6.512  16.045  0.5369  0.0743  0.5100
 2289TIP3    H128282   6.260   6.426  16.033  0.9438  0.3749 -0.3593
 2289TIP3    H228283   6.258   6.545  16.126 -0.9883 -1.3051  1.8593
 2290TIP3   OH228284   3.859   2.178   1.478  0.1540 -0.3907  0.6895
 2290TIP3    H128285   3.803   2.118   1.428  1.1155  0.0407 -0.9999
 2290TIP3    H228286   3.886   2.128   1.555 -0.0400 -1.7126 -0.0685
 2291TIP3   OH228287   6.549   0.500  15.058  0.5083  0.3308  0.3920
 2291TIP3    H128288   6.510   0.571  15.109 -1.3723 -1.7664  2.0689
 2291TIP3    H228289   6.629   0.477  15.105  0.8949  1.0289  0.0877
 2292TIP3   OH228290   1.497   6.446   2.835 -0.5292  0.1231  0.8389
 2292TIP3    H128291   1.450   6.381   2.781 -0.8323  1.6605 -0.8354
 2292TIP3    H228292   1.492   6.411   2.924 -0.5634 -2.2086 -0.0123
 2293TIP3   OH228293   4.496   1.982  12.503  0.0927  0.4647 -0.3132
 2293TIP3    H128294   4.416   2.032  12.519  0.5850  1.4978 -0.9990
 2293TIP3    H228295   4.557   2.046  12.467  0.8387 -0.5751 -0.9226
 2294TIP3   OH228296   6.483   6.636  12.853  0.4261  0.5105  0.2496
 2294TIP3    H128297   6.441   6.721  12.852 -0.3310  0.1454  0.6503
 2294TIP3    H228298   6.421   6.578  12.898 -0.4974 -0.9632 -2.6135
 2295TIP3   OH228299   0.509   1.133   1.760 -0.4408  0.3496  0.4673
 2295TIP3    H128300   0.504   1.220   1.719 -1.4145  0.1833  0.1947
 2295TIP3    H228301   0.592   1.133   1.806  0.8531  0.4764 -1.7102
 2296TIP3   OH228302   1.964   5.519  11.802 -0.1117  0.2658  0.6339
 2296TIP3    H128303   2.020   5.591  11.775  2.1258 -1.0379  1.4613
 2296TIP3    H228304   1.899   5.559  11.860 -0.2142  1.8805 -0.5451
 2297TIP3   OH228305   4.183   2.456  13.288 -0.3675 -0.0739  0.4334
 2297TIP3    H128306   4.180   2.373  13.336 -0.9560  0.0095  0.5487
 2297TIP3    H228307   4.091   2.478  13.272 -0.1980 -1.0445 -2.3987
 2298TIP3   OH228308   1.736   5.810  11.231 -0.4729  0.0672  0.4845
 2298TIP3    H128309   1.693   5.884  11.188 -0.2754 -0.3457 -0.4351
 2298TIP3    H228310   1.733   5.832  11.325  0.7009  1.8518  0.1510
 2299TIP3   OH228311   2.641   1.904   2.583 -0.0727 -0.0262  0.1487
 2299TIP3    H128312   2.599   1.991   2.580  0.9041  0.5362  1.5588
 2299TIP3    H228313   2.580   1.850   2.633  0.1757  0.3933  0.9289
 2300TIP3   OH228314   5.358   0.195   1.918  0.2449 -0.0836 -0.7299
 2300TIP3    H128315   5.281   0.247   1.894  0.7561  0.6448 -0.8130
 2300TIP3    H228316   5.432   0.240   1.877  0.7082 -0.8498 -0.7651
 2301TIP3   OH228317   4.845   3.288   0.532 -0.0387 -0.2643  0.0028
 2301TIP3    H128318   4.830   3.365   0.588 -1.4746  0.4246 -1.2411
 2301TIP3    H228319   4.830   3.321   0.443  2.0378 -1.3511 -0.8188
 2302TIP3   OH228320   3.635   0.148   1.452  0.0054  0.0240  0.0979
 2302TIP3    H128321   3.713   0.182   1.407 -0.5825  0.2788 -0.7654
 2302TIP3    H228322   3.610   0.218   1.512  0.9376 -0.4128  1.0177
 2303TIP3   OH228323   4.373   6.636   2.781  0.5486  0.0279  0.3969
 2303TIP3    H128324   4.331   6.722   2.773  1.1677  0.4815  1.6903
 2303TIP3    H228325   4.325   6.580   2.720  0.8249  1.5300 -1.2539
 2304TIP3   OH228326   3.825   0.679   6.205 -0.1938  0.0087  0.0415
 2304TIP3    H128327   3.901   0.698   6.150 -0.3214 -0.9625 -0.5040
 2304TIP3    H228328   3.755   0.658   6.142 -0.0761 -2.1231  0.5552
 2305TIP3   OH228329   1.246   5.735  10.952  0.5616  0.1371 -0.0421
 2305TIP3    H128330   1.158   5.710  10.982  0.5151  0.4676  0.0898
 2305TIP3    H228331   1.230   5.789  10.875  0.6104  1.1249  0.6272
 2306TIP3   OH228332   3.459   3.505   6.767 -0.5591  0.0976 -0.3190
 2306TIP3    H128333   3.387   3.444   6.753  0.2730 -1.5578  1.8989
 2306TIP3    H228334   3.490   3.486   6.856  1.7487  1.6548 -0.6812
 2307TIP3   OH228335   1.684   2.548   6.291  0.0875  0.1691 -0.4688
 2307TIP3    H128336   1.727   2.627   6.326  0.7590 -0.5070  0.2632
 2307TIP3    H228337   1.753   2.482   6.290 -0.5499 -0.5020 -0.7991
 2308TIP3   OH228338   4.081   0.642   4.346  0.4022  0.6064 -0.7931
 2308TIP3    H128339   4.168   0.642   4.384  0.4146  0.4999 -0.8198
 2308TIP3    H228340   4.083   0.711   4.279  0.4837  0.5638 -0.8341
 2309TIP3   OH228341   6.435   3.142   3.103 -0.5186  0.5865 -0.1402
 2309TIP3    H128342   6.395   3.081   3.042 -1.6232  0.9082  0.2300
 2309TIP3    H228343   6.525   3.154   3.071 -1.0157  0.6009 -1.5784
 2310TIP3   OH228344   6.262   0.297   1.179 -0.9533  0.3444  0.3199
 2310TIP3    H128345   6.169   0.277   1.193 -0.9685  0.8408  0.9942
 2310TIP3    H228346   6.272   0.387   1.209 -0.0742 -0.0008  1.1395
 2311TIP3   OH228347   5.103   0.208  13.707  0.1564 -0.0681  0.1743
 2311TIP3    H128348   5.022   0.229  13.753  0.4248  1.9179 -0.1385
 2311TIP3    H228349   5.129   0.291  13.666  1.9305 -0.8431 -0.3708
 2312TIP3   OH228350   0.416   6.460  16.899 -0.4577 -0.2528  0.2137
 2312TIP3    H128351   0.471   6.508  16.837 -2.3482  1.3123 -0.3560
 2312TIP3    H228352   0.472   6.446  16.975  1.2302 -0.2529 -0.9620
 2313TIP3   OH228353   4.916   2.871  14.867  0.3800 -0.5096 -0.5875
 2313TIP3    H128354   4.864   2.810  14.814  2.1440 -2.4549 -0.2170
 2313TIP3    H228355   4.854   2.939  14.892 -1.2559 -1.1558 -2.5645
 2314TIP3   OH228356   4.993   0.586  13.622  0.4043 -0.2440 -0.1125
 2314TIP3    H128357   4.940   0.606  13.544 -0.2982 -1.4011  0.0507
 2314TIP3    H228358   5.068   0.539  13.588  2.7651  3.5000 -0.6685
 2315TIP3   OH228359   5.658   2.564  16.924  0.0049 -0.0777  0.3683
 2315TIP3    H128360   5.645   2.634  16.988 -2.7695  0.7337 -0.9355
 2315TIP3    H228361   5.699   2.608  16.849  1.6554 -0.6738  0.8796
 2316TIP3   OH228362   2.922   5.562   3.833 -0.0637 -0.4329 -0.0987
 2316TIP3    H128363   2.884   5.503   3.767  0.8739 -3.1548  1.6116
 2316TIP3    H228364   2.858   5.563   3.904  0.5138 -0.4388  0.4292
 2317TIP3   OH228365   0.787   4.645   4.824  0.0160  0.4993  0.3262
 2317TIP3    H128366   0.786   4.621   4.917  1.2773  0.8443  0.4559
 2317TIP3    H228367   0.827   4.570   4.780  2.0355  1.4034  0.4645
 2318TIP3   OH228368   0.077   0.894  14.918  0.0286  0.6526 -0.3220
 2318TIP3    H128369  -0.001   0.922  14.966 -1.2471 -3.1445  0.1323
 2318TIP3    H228370   0.050   0.814  14.872  3.6549 -0.9160 -0.0799
 2319TIP3   OH228371   5.552   0.673   5.591 -0.2337  0.4519 -0.2826
 2319TIP3    H128372   5.642   0.643   5.607 -0.9226 -1.5168  0.1533
 2319TIP3    H228373   5.512   0.675   5.678 -1.2525 -0.9720 -0.6850
 2320TIP3   OH228374   4.281   6.275  14.599  0.2604 -0.6073 -0.4267
 2320TIP3    H128375   4.300   6.253  14.508  2.3269 -1.6718  0.1933
 2320TIP3    H228376   4.278   6.191  14.644 -1.4051 -0.1455  0.4266
 2321TIP3   OH228377   3.586   3.601  15.480  0.9539 -0.1938 -0.9814
 2321TIP3    H128378   3.657   3.620  15.541  1.6305 -1.2866 -1.3991
 2321TIP3    H228379   3.516   3.566  15.535  0.5466  1.2770 -0.5153
 2322TIP3   OH228380   3.371   2.797   0.330 -0.0403  0.3347 -0.0260
 2322TIP3    H128381   3.447   2.741   0.314  0.1212  0.0233  1.6502
 2322TIP3    H228382   3.384   2.830   0.419 -2.0261  0.0102  0.4187
 2323TIP3   OH228383   0.393   6.239  10.517 -0.0554 -0.5528  0.4965
 2323TIP3    H128384   0.325   6.306  10.520  1.3735  1.0595 -0.9255
 2323TIP3    H228385   0.441   6.250  10.599  0.1546  0.1667  0.2826
 2324TIP3   OH228386   5.968   5.621   3.478  0.1006 -0.0182  0.3085
 2324TIP3    H128387   5.982   5.642   3.386  0.9318  0.3449  0.5114
 2324TIP3    H228388   5.991   5.528   3.485 -2.5742 -0.8238 -0.3767
 2325TIP3   OH228389   3.195   3.034   6.648 -0.2751 -0.1494 -0.2157
 2325TIP3    H128390   3.146   2.977   6.589  0.7831 -0.4836 -0.7990
 2325TIP3    H228391   3.287   3.022   6.623  0.2214 -0.3290  1.5271
 2326TIP3   OH228392   2.341   6.112   3.549  0.1404 -0.0975  0.1351
 2326TIP3    H128393   2.385   6.065   3.479  1.7365  0.6340  0.5957
 2326TIP3    H228394   2.385   6.197   3.552 -0.6562  0.3035  1.2878
 2327TIP3   OH228395   3.101   2.111  12.391  0.6763 -1.1161 -0.5767
 2327TIP3    H128396   3.109   2.120  12.486  0.0083 -1.8584 -0.4341
 2327TIP3    H228397   3.039   2.179  12.365 -1.3376 -2.6530 -0.0578
 2328TIP3   OH228398   4.218   0.888  14.332  0.9102  0.1714  0.1453
 2328TIP3    H128399   4.176   0.846  14.258  0.6680  0.7454 -0.0502
 2328TIP3    H228400   4.223   0.820  14.399 -0.9104  0.2456  0.4094
 2329TIP3   OH228401   2.972   1.253   0.358  0.4014  0.1991 -0.5421
 2329TIP3    H128402   2.987   1.306   0.280 -2.2983  0.9468 -0.6710
 2329TIP3    H228403   2.923   1.177   0.326 -1.7284  1.0606  0.4586
 2330TIP3   OH228404   3.507   2.564   0.830 -0.1395 -0.1333  0.0012
 2330TIP3    H128405   3.476   2.528   0.747  0.4740  0.3354 -0.4338
 2330TIP3    H228406   3.532   2.487   0.881 -0.6304 -0.4312 -0.1953
 2331TIP3   OH228407   2.620   1.990   1.835  0.3450  0.3209 -0.2006
 2331TIP3    H128408   2.712   2.014   1.849  0.1029 -0.1163  2.8055
 2331TIP3    H228409   2.571   2.047   1.894 -1.2149 -0.3406 -0.8041
 2332TIP3   OH228410   5.636   3.408   5.376  0.5746 -0.3019 -0.4030
 2332TIP3    H128411   5.620   3.501   5.361  0.7053 -0.4286 -1.3855
 2332TIP3    H228412   5.581   3.386   5.451 -0.1060  0.3764 -0.6933
 2333TIP3   OH228413   4.113   4.279   5.095  0.1102 -0.0383 -0.3174
 2333TIP3    H128414   4.201   4.316   5.101  0.9443 -2.1106  1.4857
 2333TIP3    H228415   4.112   4.209   5.160 -2.5716 -0.7331 -0.9918
 2334TIP3   OH228416   5.261   3.554  10.310  0.2724 -0.6469  0.0295
 2334TIP3    H128417   5.287   3.461  10.312  0.5380 -0.5970 -0.7637
 2334TIP3    H228418   5.338   3.601  10.340 -0.7822 -0.8132  3.4449
 2335TIP3   OH228419   2.195   3.688  14.132  0.4500  0.2052 -0.2831
 2335TIP3    H128420   2.164   3.777  14.150  0.3795  0.4747 -1.6723
 2335TIP3    H228421   2.119   3.643  14.096  0.3157 -0.6205  0.9623
 2336TIP3   OH228422   5.527   2.521   4.165 -0.2098 -0.7189  0.0875
 2336TIP3    H128423   5.560   2.608   4.142 -0.8841  0.5834  3.3937
 2336TIP3    H228424   5.434   2.524   4.144 -0.0186 -1.0566 -0.8200
 2337TIP3   OH228425   3.872   1.386   3.298  0.3811  0.5337 -0.0881
 2337TIP3    H128426   3.782   1.408   3.324  0.8807  2.0921  0.4290
 2337TIP3    H228427   3.874   1.404   3.204  0.2129  0.7535 -0.0530
 2338TIP3   OH228428   2.635   6.193  12.119 -0.0184  0.1120  0.3345
 2338TIP3    H128429   2.572   6.141  12.169 -0.2361 -0.3186 -0.3754
 2338TIP3    H228430   2.697   6.224  12.184  0.9179 -2.1597  0.6060
 2339TIP3   OH228431   6.734   1.205  14.352  0.2950  0.0288 -0.0166
 2339TIP3    H128432   6.829   1.204  14.361  0.1544 -0.1539  1.8247
 2339TIP3    H228433   6.702   1.166  14.433 -1.3791  1.7412  0.2088
 2340TIP3   OH228434   6.405   2.864  14.862 -0.1289  0.7308  0.4309
 2340TIP3    H128435   6.433   2.864  14.954 -0.0020 -1.9864  0.4471
 2340TIP3    H228436   6.309   2.866  14.866 -0.1195  1.2221  0.5737
 2341TIP3   OH228437   1.479   2.292   5.699 -0.7631  0.1395 -0.1414
 2341TIP3    H128438   1.437   2.374   5.674 -2.4531 -0.0529  1.7827
 2341TIP3    H228439   1.518   2.259   5.619  0.9264  3.3268 -0.7986
 2342TIP3   OH228440   6.176   5.107  15.169 -0.2114  0.2088  0.3266
 2342TIP3    H128441   6.253   5.162  15.186  0.4929 -0.7873  0.3982
 2342TIP3    H228442   6.133   5.150  15.095  0.4666  0.7293  0.2234
 2343TIP3   OH228443   0.817   1.486  14.445 -0.7135  0.1849  0.5484
 2343TIP3    H128444   0.805   1.504  14.351  1.9981 -0.1722  0.0492
 2343TIP3    H228445   0.796   1.569  14.488 -0.2812  0.8905 -0.5507
 2344TIP3   OH228446   0.842   4.179   1.808  0.2013  0.1956  0.0110
 2344TIP3    H128447   0.843   4.171   1.903  1.8893 -2.7757 -0.1498
 2344TIP3    H228448   0.927   4.217   1.785  0.2215 -0.0579 -0.3535
 2345TIP3   OH228449   6.656   4.367  15.966  0.3471  0.4424 -0.1637
 2345TIP3    H128450   6.681   4.445  15.916  0.1009  0.4576 -0.2666
 2345TIP3    H228451   6.572   4.390  16.007 -0.4131 -0.2267 -1.2752
 2346TIP3   OH228452   1.998   2.988   5.491  0.2449 -0.4667  0.0766
 2346TIP3    H128453   1.911   2.996   5.529  0.1536  0.3553 -0.2884
 2346TIP3    H228454   2.056   3.029   5.555  0.4515 -1.5331  0.5934
 2347TIP3   OH228455   2.624   1.951   3.391 -0.0272  0.0999 -0.1769
 2347TIP3    H128456   2.697   1.956   3.452 -0.9196 -0.4146  0.9750
 2347TIP3    H228457   2.610   1.857   3.376 -0.4635  0.1888 -0.3617
 2348TIP3   OH228458   1.555   4.488  16.015 -0.5160  0.7199  0.3624
 2348TIP3    H128459   1.635   4.537  16.034  0.6854 -1.3647  1.0361
 2348TIP3    H228460   1.575   4.440  15.935 -0.9534 -0.0731  0.7164
 2349TIP3   OH228461   4.944   6.382   2.089  0.4665 -0.3037  0.2708
 2349TIP3    H128462   4.893   6.308   2.056  1.9472 -0.3471 -2.2133
 2349TIP3    H228463   4.908   6.458   2.043 -0.5342  0.4663  2.2260
 2350TIP3   OH228464   4.149   0.373  15.758  0.0131 -0.1701  0.5567
 2350TIP3    H128465   4.209   0.447  15.751 -1.8288  1.5151  1.5582
 2350TIP3    H228466   4.111   0.381  15.846 -1.0702 -1.6498  0.2657
 2351TIP3   OH228467   5.670   4.337  12.444 -0.1783 -0.0576  0.3262
 2351TIP3    H128468   5.579   4.351  12.420  0.0242  0.4554 -0.1578
 2351TIP3    H228469   5.719   4.352  12.362  0.4410  0.7905  0.8363
 2352TIP3   OH228470   4.215   4.892  13.015 -0.2270  0.5235 -0.6725
 2352TIP3    H128471   4.259   4.956  12.961  0.0865  0.5588 -0.3756
 2352TIP3    H228472   4.267   4.887  13.095 -0.0818 -0.3056 -0.8074
 2353TIP3   OH228473   1.997   6.547  14.172  0.1224  0.1090  0.3345
 2353TIP3    H128474   2.037   6.473  14.126  1.7372 -0.3346  2.2785
 2353TIP3    H228475   1.906   6.521  14.185  0.3678 -1.0331 -0.0672
 2354TIP3   OH228476   0.738   6.089   3.432 -0.5468  0.6519  0.0294
 2354TIP3    H128477   0.707   6.021   3.373  1.1279  0.3890 -0.6048
 2354TIP3    H228478   0.712   6.060   3.519  0.2531 -0.8677 -0.2149
 2355TIP3   OH228479   0.541   4.239   5.482  0.4374  0.1682  1.3290
 2355TIP3    H128480   0.541   4.328   5.515 -1.0567  0.2873  1.0371
 2355TIP3    H228481   0.458   4.202   5.509  0.3051 -0.5871  0.0077
 2356TIP3   OH228482   4.586   0.902  14.962 -0.6032  0.1992  0.6158
 2356TIP3    H128483   4.593   0.997  14.948  0.4665 -0.0082 -0.4091
 2356TIP3    H228484   4.538   0.870  14.885  0.5517 -0.2908  0.0780
 2357TIP3   OH228485   4.305   2.719  12.559 -0.6799 -0.0183  0.4434
 2357TIP3    H128486   4.349   2.803  12.549 -0.7769  0.0622  0.6640
 2357TIP3    H228487   4.242   2.715  12.487  1.5337 -1.3388 -1.5337
 2358TIP3   OH228488   3.743   0.336  14.603  0.1888  0.1307  0.0244
 2358TIP3    H128489   3.745   0.268  14.669 -0.2287  0.4420  0.3610
 2358TIP3    H228490   3.664   0.387  14.622  0.9629  1.2571  0.3406
 2359TIP3   OH228491   6.030   0.885   2.594 -0.2202  0.2426  1.0707
 2359TIP3    H128492   6.077   0.927   2.666  0.7471 -0.3878  0.8223
 2359TIP3    H228493   6.098   0.858   2.532 -1.0749  1.5042 -0.5121
 2360TIP3   OH228494   0.875   1.935   4.827 -0.0116 -0.0913  0.8656
 2360TIP3    H128495   0.877   1.894   4.914 -3.3721  0.5578  1.4069
 2360TIP3    H228496   0.889   2.028   4.844  1.1547 -0.1696  0.4340
 2361TIP3   OH228497   2.327   3.640   4.115  0.1815  0.5833 -0.0695
 2361TIP3    H128498   2.415   3.624   4.081  0.0041  1.1759 -0.8126
 2361TIP3    H228499   2.285   3.696   4.050  0.0243  2.2324  1.3870
 2362TIP3   OH228500   3.647   2.928  15.247 -0.3176 -0.0853  0.5814
 2362TIP3    H128501   3.565   2.935  15.296  0.3312 -0.8487  1.8457
 2362TIP3    H228502   3.710   2.978  15.300  0.3172 -0.5684  0.2946
 2363TIP3   OH228503   2.918   5.986  11.761 -0.7848  0.5277  0.0558
 2363TIP3    H128504   3.005   5.947  11.768 -1.2695 -0.5329  0.5376
 2363TIP3    H228505   2.918   6.057  11.825 -0.2937  0.4977  0.0918
 2364TIP3   OH228506   4.604   6.462   2.242 -0.2605  0.3935  0.1828
 2364TIP3    H128507   4.636   6.376   2.270 -3.1696 -0.5263  1.0999
 2364TIP3    H228508   4.583   6.507   2.323 -0.8663  1.0706 -0.3365
 2365TIP3   OH228509   3.389   6.153  13.757 -0.2151 -0.0995  0.3718
 2365TIP3    H128510   3.352   6.237  13.784 -0.4986 -0.1439  0.1299
 2365TIP3    H228511   3.454   6.133  13.824 -1.1566 -0.3838  1.2400
 2366TIP3   OH228512   6.078   1.227   4.012 -0.1891 -0.1915  0.1434
 2366TIP3    H128513   6.040   1.196   4.094 -0.1520  3.0110  1.5352
 2366TIP3    H228514   6.138   1.157   3.985  0.3866 -1.0618  3.2702
 2367TIP3   OH228515   5.926   4.875  12.579 -0.2474 -0.2096 -0.0469
 2367TIP3    H128516   5.856   4.843  12.637  2.5174 -2.2102  2.5250
 2367TIP3    H228517   5.967   4.946  12.628  0.1019  0.3547 -1.1285
 2368TIP3   OH228518   3.138   0.274  13.267  0.7760  0.1753 -0.2333
 2368TIP3    H128519   3.099   0.362  13.262 -0.3673 -0.3228 -0.4936
 2368TIP3    H228520   3.232   0.290  13.271  0.6771  1.3788 -1.5994
 2369TIP3   OH228521   2.454   1.520  14.401 -0.4779  0.0319 -0.1680
 2369TIP3    H128522   2.482   1.575  14.327 -1.7917 -0.7537 -1.2883
 2369TIP3    H228523   2.364   1.546  14.418 -0.8291 -1.1551 -0.1422
 2370TIP3   OH228524   3.636   3.999   0.173 -0.4181 -0.3688 -0.1812
 2370TIP3    H128525   3.544   3.978   0.159 -1.2083  2.6448 -0.1204
 2370TIP3    H228526   3.671   4.014   0.085 -0.1064 -1.0184 -0.1709
 2371TIP3   OH228527   3.299   3.807   3.434  0.2041  0.6455 -0.1896
 2371TIP3    H128528   3.274   3.791   3.525 -0.8023  1.1963 -0.3547
 2371TIP3    H228529   3.336   3.723   3.405  0.3395  0.3963  0.6506
 2372TIP3   OH228530   3.810   5.194  16.905 -0.4840 -0.3167 -0.2066
 2372TIP3    H128531   3.724   5.156  16.891 -0.7321  0.7000 -1.7114
 2372TIP3    H228532   3.805   5.281  16.864  1.5556 -0.6662 -1.3524
 2373TIP3   OH228533   2.541   6.379   0.320 -0.7631 -0.4689  0.3760
 2373TIP3    H128534   2.515   6.359   0.410  1.2558 -0.4128  1.0163
 2373TIP3    H228535   2.614   6.319   0.302 -0.0135  0.6985 -0.6092
 2374TIP3   OH228536   1.837   1.146   0.884  0.0154 -0.4422  0.0845
 2374TIP3    H128537   1.811   1.099   0.805  1.2380  0.0926 -0.6596
 2374TIP3    H228538   1.926   1.117   0.902  1.2312  2.2391 -0.9841
 2375TIP3   OH228539   0.142   3.500   0.921 -0.3520 -0.3233  0.2468
 2375TIP3    H128540   0.166   3.508   0.828 -1.2318  1.1732  0.1227
 2375TIP3    H228541   0.178   3.579   0.962 -0.7952 -0.4977  0.9954
 2376TIP3   OH228542   1.064   5.553  17.151  0.1116  0.1349 -0.4088
 2376TIP3    H128543   0.969   5.555  17.163  0.1187  1.7042 -0.4550
 2376TIP3    H228544   1.098   5.518  17.233 -0.4751 -0.0506 -0.2370
 2377TIP3   OH228545   1.412   1.608   1.180 -0.5855 -0.6058 -0.3422
 2377TIP3    H128546   1.401   1.678   1.116  0.0844 -0.2873 -0.1192
 2377TIP3    H228547   1.507   1.593   1.183 -0.5746 -0.3569  0.8541
 2378TIP3   OH228548   3.710   0.143  14.127  0.7067 -0.0190 -0.5585
 2378TIP3    H128549   3.651   0.074  14.155  0.3507  0.5131  0.0188
 2378TIP3    H228550   3.662   0.187  14.056  1.2102 -0.7651 -1.3876
 2379TIP3   OH228551   6.544   0.050  14.400 -0.1873  0.1934 -0.2214
 2379TIP3    H128552   6.516  -0.024  14.347 -0.9185 -0.1941  0.6734
 2379TIP3    H228553   6.588   0.109  14.339 -1.0673 -0.2105 -1.2647
 2380TIP3   OH228554   3.017   1.230   2.319  0.7250  0.1037  1.0495
 2380TIP3    H128555   2.968   1.311   2.307 -0.3909 -0.4131  1.9646
 2380TIP3    H228556   3.098   1.244   2.269 -1.0418  0.3220 -1.9994
 2381TIP3   OH228557   5.109   0.173  13.165  0.3379 -0.7777  0.4113
 2381TIP3    H128558   5.083   0.198  13.254 -0.3430  0.6731 -0.1561
 2381TIP3    H228559   5.182   0.231  13.144 -0.9425  0.5069 -0.7591
 2382TIP3   OH228560   2.393   3.523   5.610 -0.3421  0.7021  0.2149
 2382TIP3    H128561   2.390   3.514   5.706 -1.8616  1.7690  0.3010
 2382TIP3    H228562   2.358   3.610   5.593  0.8253  0.9078 -1.2815
 2383TIP3   OH228563   1.278   3.935  13.833 -0.1152  0.1933 -0.3718
 2383TIP3    H128564   1.337   4.009  13.817  0.4314 -0.1840 -0.1186
 2383TIP3    H228565   1.248   3.908  13.747 -0.1870  0.6084 -0.4776
 2384TIP3   OH228566   3.444   0.575  14.503 -0.2726  0.0138  0.2054
 2384TIP3    H128567   3.450   0.499  14.561 -1.0867 -0.4132 -0.2592
 2384TIP3    H228568   3.527   0.621  14.515  1.0812 -1.9802 -0.9672
 2385TIP3   OH228569   5.108   1.275  13.397  0.2160  0.0471  0.2851
 2385TIP3    H128570   5.170   1.328  13.447 -0.9973  1.3574  0.4664
 2385TIP3    H228571   5.057   1.338  13.347 -0.2560 -1.0757 -0.6992
 2386TIP3   OH228572   1.362   2.553   2.425 -0.4039  0.0749 -0.3357
 2386TIP3    H128573   1.453   2.583   2.430 -0.0870 -0.3717 -2.6147
 2386TIP3    H228574   1.317   2.604   2.493  1.2087  1.5329 -0.2884
 2387TIP3   OH228575   1.573   5.646  15.121  0.3285 -0.0755  0.0142
 2387TIP3    H128576   1.488   5.682  15.092 -2.0095 -2.5363  3.1075
 2387TIP3    H228577   1.576   5.558  15.083  0.9293 -0.4439  0.8897
 2388TIP3   OH228578   0.186   3.481  16.407 -0.0557  0.2620 -0.1557
 2388TIP3    H128579   0.250   3.550  16.392  0.3875 -0.3457 -1.1969
 2388TIP3    H228580   0.147   3.466  16.320 -0.7684 -0.1786  0.2327
 2389TIP3   OH228581   2.229   3.927  13.301  0.2376  0.0293 -0.5538
 2389TIP3    H128582   2.308   3.893  13.342  0.3203  0.0480 -0.6992
 2389TIP3    H228583   2.198   3.856  13.246 -2.1633 -1.6527  2.5934
 2390TIP3   OH228584   4.876   0.282  12.166  0.2655 -0.1648  0.4216
 2390TIP3    H128585   4.928   0.204  12.185 -0.9822 -0.8491  1.1138
 2390TIP3    H228586   4.934   0.355  12.190  0.8270 -0.9090  1.4106
 2391TIP3   OH228587   3.111   0.738   0.261 -0.3337 -0.7697 -0.5577
 2391TIP3    H128588   3.045   0.684   0.305  0.1623 -0.9594 -0.0325
 2391TIP3    H228589   3.186   0.681   0.250  0.0014 -0.3475 -0.4942
 2392TIP3   OH228590   4.270   6.388   2.316  0.2972  0.3575 -0.0777
 2392TIP3    H128591   4.230   6.414   2.399  0.4571 -0.7147  0.3462
 2392TIP3    H228592   4.358   6.427   2.318  0.6126 -0.3762  0.6417
 2393TIP3   OH228593   0.566   0.431  13.668  0.8197 -0.5081 -0.0328
 2393TIP3    H128594   0.515   0.372  13.612 -1.1375  0.5804  0.4966
 2393TIP3    H228595   0.605   0.374  13.734 -0.3149 -1.3103 -0.0336
 2394TIP3   OH228596   1.317   4.559  12.813  0.3647  0.0076 -0.5470
 2394TIP3    H128597   1.385   4.621  12.839 -0.6271  0.5080  0.9599
 2394TIP3    H228598   1.364   4.492  12.763  2.0115  0.2194  0.6382
 2395TIP3   OH228599   3.772   5.170   4.577 -0.4090  0.3688  0.1334
 2395TIP3    H128600   3.727   5.243   4.534  0.1533 -0.1568 -1.4264
 2395TIP3    H228601   3.843   5.211   4.626  1.1537  0.8180 -2.3191
 2396TIP3   OH228602   0.350   4.589  12.693  0.3941 -0.7302  0.0643
 2396TIP3    H128603   0.382   4.635  12.615  0.1399  0.3791  0.5943
 2396TIP3    H228604   0.300   4.655  12.741 -1.2266 -1.9409  0.1446
 2397TIP3   OH228605   5.937   2.421   1.738 -0.1053  0.3595 -0.5540
 2397TIP3    H128606   5.861   2.376   1.703  0.3504 -0.9049  0.0001
 2397TIP3    H228607   6.008   2.400   1.677  0.5069 -1.1856  0.6103
 2398TIP3   OH228608   3.644   0.091   2.982  0.7873 -0.2080  0.3198
 2398TIP3    H128609   3.635   0.025   3.051 -1.0281 -2.1845 -1.6309
 2398TIP3    H228610   3.601   0.051   2.906 -0.6330  3.3176 -0.9345
 2399TIP3   OH228611   5.334   4.415   2.718 -0.0169  0.0039 -0.2003
 2399TIP3    H128612   5.250   4.385   2.753 -0.3391  1.6692  0.5943
 2399TIP3    H228613   5.314   4.448   2.631 -0.7723  2.6432  0.8646
 2400TIP3   OH228614   3.632   5.975   1.990  0.0371  0.3427  0.2780
 2400TIP3    H128615   3.722   5.987   1.962 -0.1851 -0.4105 -0.8529
 2400TIP3    H228616   3.632   5.995   2.084  2.0751 -2.6927  1.0781
 2401TIP3   OH228617   4.530   0.745   0.545  0.1818 -0.6524  0.5831
 2401TIP3    H128618   4.543   0.826   0.497 -1.3924 -0.2287  0.7994
 2401TIP3    H228619   4.451   0.761   0.597  0.8848 -1.6785  2.0348
 2402TIP3   OH228620   4.560   2.129  16.502 -0.3510 -0.4716  0.3091
 2402TIP3    H128621   4.631   2.189  16.524  0.8111 -1.5041 -0.4888
 2402TIP3    H228622   4.485   2.186  16.482  0.5918  0.6821 -0.0405
 2403TIP3   OH228623   4.061   4.077   2.114 -0.6747 -0.0872  0.4070
 2403TIP3    H128624   3.969   4.052   2.120 -0.8625  0.8944  2.1641
 2403TIP3    H228625   4.082   4.115   2.199  0.4027  2.9628 -1.0699
 2404TIP3   OH228626   0.460   3.857  16.157  0.1744  0.4230  0.7149
 2404TIP3    H128627   0.387   3.918  16.170 -0.2606  0.1709 -0.4661
 2404TIP3    H228628   0.504   3.855  16.242 -1.1254  0.6555  1.4233
 2405TIP3   OH228629   3.181   5.479  15.173 -0.0846 -0.2578  0.0573
 2405TIP3    H128630   3.232   5.511  15.248 -2.8898  2.7724  0.9031
 2405TIP3    H228631   3.234   5.504  15.097  0.4857  1.3849  0.9285
 2406TIP3   OH228632   2.268   5.784  12.258 -0.2046 -0.0426 -0.1462
 2406TIP3    H128633   2.209   5.779  12.333  0.9909 -0.6591  0.7884
 2406TIP3    H228634   2.342   5.727  12.281  1.5821  1.9885 -0.5222
 2407TIP3   OH228635   2.539   1.641  11.203  0.4351  0.0063 -0.6873
 2407TIP3    H128636   2.487   1.707  11.159  0.7001  0.9821  0.4026
 2407TIP3    H228637   2.507   1.642  11.294  0.5067 -1.2996 -0.6268
 2408TIP3   OH228638   3.599   6.344   4.790  0.2802  0.3140 -0.4648
 2408TIP3    H128639   3.651   6.302   4.721  1.7424 -1.6836  1.6889
 2408TIP3    H228640   3.538   6.276   4.818 -0.5311  1.2119 -0.0273
 2409TIP3   OH228641   2.086   2.407  12.265  0.1674  0.4380  0.2821
 2409TIP3    H128642   2.112   2.355  12.189 -0.9557 -0.0763  0.2312
 2409TIP3    H228643   2.035   2.480  12.229 -1.4803 -0.5034  0.5795
 2410TIP3   OH228644   4.995   0.732  16.643  0.1584 -0.2075 -0.2997
 2410TIP3    H128645   5.020   0.765  16.556 -0.2448  1.6268  0.2501
 2410TIP3    H228646   4.915   0.681  16.627 -0.4342  0.8781 -0.8913
 2411TIP3   OH228647   1.959   1.230  10.619 -0.5177 -0.2913 -0.1471
 2411TIP3    H128648   1.864   1.241  10.608 -0.8480 -0.5402  1.9699
 2411TIP3    H228649   1.984   1.302  10.676  0.7461  0.2080 -1.2829
 2412TIP3   OH228650   5.647   2.235  13.117  0.3964  0.1849  0.2714
 2412TIP3    H128651   5.670   2.144  13.136  1.9428  0.0314 -1.9260
 2412TIP3    H228652   5.700   2.286  13.177  2.3933 -0.3353 -0.9615
 2413TIP3   OH228653   4.572   2.974  13.049 -0.5299 -0.4142 -0.4537
 2413TIP3    H128654   4.609   2.889  13.027  1.2955  0.3293 -0.4750
 2413TIP3    H228655   4.636   3.013  13.108 -2.0133  0.4003  0.6696
 2414TIP3   OH228656   5.034   0.695   2.865  0.1398 -0.0609 -0.0422
 2414TIP3    H128657   4.978   0.717   2.940  0.7167 -0.1843  0.4352
 2414TIP3    H228658   5.122   0.694   2.902  0.4299 -0.0906 -0.7397
 2415TIP3   OH228659   3.139   4.159  16.118 -0.4600  0.1082 -0.4613
 2415TIP3    H128660   3.136   4.214  16.197 -2.1624 -0.7811  0.1410
 2415TIP3    H228661   3.198   4.087  16.141 -0.4217  0.2082 -0.2463
 2416TIP3   OH228662   4.551   2.329  10.667 -0.0518  0.1337  0.1618
 2416TIP3    H128663   4.498   2.319  10.588  1.3369  1.7785 -1.0777
 2416TIP3    H228664   4.517   2.264  10.728 -2.8852  0.5295 -0.8452
 2417TIP3   OH228665   0.433   3.916  13.039  0.3633  0.3320  0.0443
 2417TIP3    H128666   0.437   3.840  12.981  0.4089  0.9944 -0.8489
 2417TIP3    H228667   0.479   3.985  12.991 -1.3788  1.4862 -0.0400
 2418TIP3   OH228668   2.198   1.101  14.404  0.0648  0.1442 -0.0126
 2418TIP3    H128669   2.219   1.056  14.322 -1.0143  0.4640 -0.4894
 2418TIP3    H228670   2.161   1.032  14.460  0.6419 -0.0407  0.1410
 2419TIP3   OH228671   5.598   0.963   2.367  0.1743 -0.9906 -0.5303
 2419TIP3    H128672   5.664   0.899   2.337  1.7236  0.1183  0.3893
 2419TIP3    H228673   5.618   0.977   2.459 -1.4358 -0.6764 -0.2012
 2420TIP3   OH228674   2.401   5.839   1.882  0.5050 -0.4227  0.4663
 2420TIP3    H128675   2.389   5.916   1.938  0.0852  0.1233 -0.3507
 2420TIP3    H228676   2.470   5.788   1.926 -0.1663 -0.2739  1.7283
 2421TIP3   OH228677   3.026   3.546   4.854 -0.5790 -0.0676  0.4044
 2421TIP3    H128678   3.037   3.640   4.844  2.3757 -0.3445  0.1599
 2421TIP3    H228679   2.938   3.529   4.823 -1.3967  2.6633  0.9567
 2422TIP3   OH228680   1.212   6.055   3.075 -0.7311 -0.1099  0.1051
 2422TIP3    H128681   1.253   6.114   3.138  1.0104  2.5164 -3.1620
 2422TIP3    H228682   1.129   6.097   3.052  0.5954  1.3544 -2.3667
 2423TIP3   OH228683   6.640   0.574   2.583  0.4335 -0.2445 -0.0785
 2423TIP3    H128684   6.549   0.601   2.576  0.5132  0.2294  0.5972
 2423TIP3    H228685   6.690   0.651   2.557  0.6485 -0.2761  0.2411
 2424TIP3   OH228686   6.438   0.295  16.302 -0.1911  0.5410  0.0782
 2424TIP3    H128687   6.485   0.303  16.219  0.0090  3.4967  0.3590
 2424TIP3    H228688   6.347   0.318  16.280 -1.2220 -2.9900 -0.0430
 2425TIP3   OH228689   1.942   0.619  14.623  0.3039 -0.2770 -0.4118
 2425TIP3    H128690   1.921   0.550  14.686  0.3370  0.4710  0.4269
 2425TIP3    H228691   1.859   0.637  14.579 -0.3087  0.8777  1.1136
 2426TIP3   OH228692   5.112   1.322   0.211  0.2192  0.1439 -0.1778
 2426TIP3    H128693   5.172   1.302   0.283 -1.5975 -1.2216  1.0705
 2426TIP3    H228694   5.084   1.412   0.228 -0.1478 -0.1450  0.8217
 2427TIP3   OH228695   5.111   2.802   0.741 -0.1160 -0.2684  0.0811
 2427TIP3    H128696   5.115   2.895   0.716 -1.4168 -0.8022 -2.5058
 2427TIP3    H228697   5.202   2.779   0.760  0.2662  1.4668  0.5336
 2428TIP3   OH228698   6.693   3.295  12.062 -0.5957  0.2233 -0.2590
 2428TIP3    H128699   6.692   3.208  12.021  1.4415 -0.0398  0.1375
 2428TIP3    H228700   6.650   3.283  12.147  0.0868 -0.5111 -0.0112
 2429TIP3   OH228701   2.431   6.410   1.853 -0.1033  0.0809  0.5253
 2429TIP3    H128702   2.372   6.383   1.783  1.6013  0.4381 -1.1654
 2429TIP3    H228703   2.409   6.502   1.869 -0.6338 -0.0571  0.5934
 2430TIP3   OH228704   3.975   3.090   2.814 -0.0458  0.8214 -0.1033
 2430TIP3    H128705   3.978   3.080   2.719  2.1547  0.0113 -0.0137
 2430TIP3    H228706   4.020   3.173   2.831 -1.2693  1.4488  0.2173
 2431TIP3   OH228707   2.620   6.707   2.303 -0.9204  0.4262 -0.0139
 2431TIP3    H128708   2.648   6.621   2.275 -0.1260  0.3308  1.0103
 2431TIP3    H228709   2.699   6.761   2.298 -1.1088  0.7642  0.5787
 2432TIP3   OH228710   0.941   1.060   2.656 -0.1076 -0.0073  0.4027
 2432TIP3    H128711   0.932   1.043   2.750  0.7484 -0.6139  0.3823
 2432TIP3    H228712   0.857   1.099   2.631 -1.0197 -1.4601  1.0602
 2433TIP3   OH228713   4.600   2.418   4.003 -0.0859 -0.5243 -0.1420
 2433TIP3    H128714   4.518   2.451   3.964  0.8141  3.0044  0.5500
 2433TIP3    H228715   4.582   2.416   4.097  1.1380  2.6473  0.3042
 2434TIP3   OH228716   0.846   6.115   3.738  0.5856  0.4827 -0.6958
 2434TIP3    H128717   0.937   6.092   3.755  0.6112  1.6996  1.1652
 2434TIP3    H228718   0.849   6.208   3.715 -0.3070  1.0463  1.2683
 2435TIP3   OH228719   1.393   2.092  15.654 -0.6953  0.1724 -0.5886
 2435TIP3    H128720   1.396   2.018  15.593 -0.8587 -2.0212  1.9254
 2435TIP3    H228721   1.300   2.117  15.656 -0.6869  0.2848 -1.2043
 2436TIP3   OH228722   0.257   2.114  15.708  0.0214 -0.5506 -0.0905
 2436TIP3    H128723   0.348   2.097  15.735  0.3687 -3.5054 -2.6498
 2436TIP3    H228724   0.208   2.040  15.742 -0.9630 -0.3114 -0.9664
 2437TIP3   OH228725   4.392   4.138  17.221  0.3909  0.3758  0.1214
 2437TIP3    H128726   4.298   4.132  17.237  0.2796  0.3729 -0.5288
 2437TIP3    H228727   4.428   4.174  17.302 -0.2941  1.2970  0.0294
 2438TIP3   OH228728   5.702   0.582   5.946 -0.1176  0.0569 -0.0402
 2438TIP3    H128729   5.619   0.586   5.899 -0.4368  1.3898  0.5923
 2438TIP3    H228730   5.714   0.671   5.980  0.2973 -0.7633  2.0620
 2439TIP3   OH228731   3.777   0.556  16.127 -0.3844 -0.1440 -0.4542
 2439TIP3    H128732   3.709   0.504  16.085  0.3229 -0.4657 -1.2322
 2439TIP3    H228733   3.730   0.612  16.189 -1.0639 -2.6678  1.4864
 2440TIP3   OH228734   4.076   4.388  15.502 -0.1256  0.1830 -0.6710
 2440TIP3    H128735   4.012   4.383  15.573 -1.8497  0.2804 -2.1490
 2440TIP3    H228736   4.120   4.472  15.515 -0.6976  0.3771  0.0558
 2441TIP3   OH228737   4.204   4.890   0.142  0.0482 -0.4353  0.1532
 2441TIP3    H128738   4.126   4.923   0.098 -0.3061 -0.9466  0.3927
 2441TIP3    H228739   4.215   4.801   0.109  0.0027 -0.6866  0.7978
 2442TIP3   OH228740   1.793   1.072   1.226  0.0838  0.0055  0.1891
 2442TIP3    H128741   1.741   1.020   1.287 -0.9540  0.3549 -0.3775
 2442TIP3    H228742   1.764   1.043   1.139  0.6608  0.3835 -0.1318
 2443TIP3   OH228743   1.791   5.322   1.992 -0.0289 -0.3750  0.3249
 2443TIP3    H128744   1.837   5.391   1.945 -0.0824 -2.5788 -3.3212
 2443TIP3    H228745   1.701   5.352   1.998  0.3118  0.6499  0.5123
 2444TIP3   OH228746   6.789   5.703   4.326  0.5834 -1.1559 -0.1749
 2444TIP3    H128747   6.818   5.776   4.381  2.2436 -0.4702 -1.8811
 2444TIP3    H228748   6.752   5.745   4.249  0.9976 -2.1099 -0.9064
 2445TIP3   OH228749   3.978   6.085   5.039  0.0296 -0.1777  0.1134
 2445TIP3    H128750   3.913   6.153   5.022  0.5180 -0.0856 -1.5001
 2445TIP3    H228751   3.929   6.017   5.087 -1.0535  0.2279 -0.3866
 2446TIP3   OH228752   5.120   0.507  12.293  0.4734  0.1127 -0.4274
 2446TIP3    H128753   5.168   0.443  12.345 -0.9194 -1.2000 -0.6740
 2446TIP3    H228754   5.074   0.561  12.357  0.8695  0.2288 -0.2394
 2447TIP3   OH228755   4.724   1.234   4.887 -0.0926 -0.2946 -0.2514
 2447TIP3    H128756   4.758   1.262   4.972  0.7364 -0.2811 -0.5797
 2447TIP3    H228757   4.640   1.280   4.879  0.3146  0.5382  0.0922
 2448TIP3   OH228758   3.650   5.541   2.788 -0.2417  0.6110 -0.3697
 2448TIP3    H128759   3.684   5.559   2.875  1.0356 -0.7644 -0.5424
 2448TIP3    H228760   3.697   5.601   2.730 -0.8492  1.2917 -0.1743
 2449TIP3   OH228761   6.722   0.018  16.761 -0.1849  0.4278 -0.2641
 2449TIP3    H128762   6.748  -0.047  16.696 -0.2640 -0.2684  0.3886
 2449TIP3    H228763   6.789   0.086  16.755 -0.2445  0.4241 -1.1376
 2450TIP3   OH228764   5.320   2.507  10.971  0.3240  0.1718 -0.6226
 2450TIP3    H128765   5.311   2.456  10.890  0.0016 -1.6719  0.5231
 2450TIP3    H228766   5.247   2.479  11.025  2.8362 -1.9224  2.0022
 2451TIP3   OH228767   0.636   5.653  16.643 -0.8744 -0.1384  0.2875
 2451TIP3    H128768   0.711   5.623  16.695  0.1147  0.7410 -0.5834
 2451TIP3    H228769   0.675   5.681  16.560 -2.3554 -1.0186 -0.7425
 2452TIP3   OH228770   4.830   0.242  11.210 -0.0213 -0.3661  0.0742
 2452TIP3    H128771   4.789   0.190  11.141  0.7516  0.3988 -0.9840
 2452TIP3    H228772   4.906   0.191  11.236  0.5588  0.0680 -0.7404
 2453TIP3   OH228773   1.781   5.788   2.698  0.5295 -0.0203  0.3157
 2453TIP3    H128774   1.808   5.797   2.607  1.1299  0.0556  0.4958
 2453TIP3    H228775   1.686   5.784   2.695  0.4734  1.2691 -0.2144
 2454TIP3   OH228776   5.614   1.719   4.074  0.1376 -0.0120  0.1745
 2454TIP3    H128777   5.692   1.702   4.127  0.9226  0.6660 -0.7431
 2454TIP3    H228778   5.593   1.811   4.089  0.1771  0.1011 -0.4464
 2455TIP3   OH228779   5.482   4.905   3.600 -0.1765 -0.0352 -0.1142
 2455TIP3    H128780   5.435   4.847   3.660  0.6975 -0.8992 -0.2503
 2455TIP3    H228781   5.563   4.927   3.646  0.9468 -1.4678 -1.3365
 2456TIP3   OH228782   0.640   5.206  11.897  0.0122 -0.3033 -0.5998
 2456TIP3    H128783   0.572   5.246  11.843 -0.3040 -1.2647 -0.9389
 2456TIP3    H228784   0.662   5.125  11.851  1.9034  0.3200 -0.8795
 2457TIP3   OH228785   4.550   5.287   4.713 -0.2257 -0.3522 -0.6140
 2457TIP3    H128786   4.547   5.366   4.767 -1.7219 -0.3013 -0.7245
 2457TIP3    H228787   4.460   5.253   4.715  0.5110 -2.3845 -0.1185
 2458TIP3   OH228788   2.797   1.086  13.971 -0.0692 -0.4651 -0.3263
 2458TIP3    H128789   2.869   1.133  14.013 -1.7458  1.7264  0.2798
 2458TIP3    H228790   2.727   1.084  14.037 -1.5473  0.0248 -1.7934
 2459TIP3   OH228791   4.602   5.801   3.296  0.2504  0.2603  0.9120
 2459TIP3    H128792   4.542   5.791   3.369 -1.7943  1.8693 -0.4192
 2459TIP3    H228793   4.663   5.869   3.323 -0.0766  0.3734  1.3622
 2460TIP3   OH228794   5.801   2.060   3.407  0.1652 -0.1116  0.3258
 2460TIP3    H128795   5.778   2.141   3.453 -0.1457 -0.2510  0.4191
 2460TIP3    H228796   5.719   2.033   3.365  0.6076  0.3936 -0.8966
 2461TIP3   OH228797   4.359   3.174  14.463  0.1457  0.1010 -0.1680
 2461TIP3    H128798   4.340   3.183  14.370  0.1184  1.3388 -0.0565
 2461TIP3    H228799   4.414   3.249  14.484 -1.9101  1.3067  1.3425
 2462TIP3   OH228800   6.613   6.020   3.649 -0.2535 -0.5263 -0.4900
 2462TIP3    H128801   6.663   6.059   3.577 -1.9323  2.7627 -0.0763
 2462TIP3    H228802   6.538   5.979   3.606 -0.1894 -0.3833 -0.7418
 2463TIP3   OH228803   5.828   1.302   3.554 -0.2695  0.0433  0.3277
 2463TIP3    H128804   5.790   1.215   3.541 -1.0848  0.0864  2.0902
 2463TIP3    H228805   5.849   1.305   3.648  0.4548  1.4743  0.1494
 2464TIP3   OH228806   0.392   1.385   1.301  0.3778  0.0889  0.1109
 2464TIP3    H128807   0.357   1.296   1.297 -0.3310  0.3871 -1.3778
 2464TIP3    H228808   0.316   1.440   1.321  0.2682  0.5808 -1.4884
 2465TIP3   OH228809   6.392   3.469   0.750  0.5912 -0.1148  0.6653
 2465TIP3    H128810   6.339   3.545   0.724  0.6366 -0.0048  0.8993
 2465TIP3    H228811   6.328   3.398   0.756  0.4987 -0.0239  0.7642
 2466TIP3   OH228812   6.070   3.167   2.889  0.1783 -0.0245 -0.4027
 2466TIP3    H128813   6.134   3.221   2.843 -1.4918  1.4366 -1.1468
 2466TIP3    H228814   6.070   3.200   2.979 -1.5231  1.9933 -1.0738
 2467TIP3   OH228815   4.168   5.354  12.053 -0.0633 -0.2273  0.2207
 2467TIP3    H128816   4.185   5.437  12.098 -0.0526  0.2389 -0.6241
 2467TIP3    H228817   4.232   5.293  12.090  1.3409  0.6776 -0.6243
 2468TIP3   OH228818   2.592   4.468   0.450  0.9183  0.3547  0.3393
 2468TIP3    H128819   2.683   4.461   0.421  0.5937  2.8833 -1.6746
 2468TIP3    H228820   2.576   4.562   0.454 -1.7898 -0.0194  0.0629
 2469TIP3   OH228821   4.018   0.137   2.160  0.4279  0.3972 -0.3968
 2469TIP3    H128822   4.052   0.094   2.239 -0.7271  0.8638  0.3885
 2469TIP3    H228823   3.975   0.067   2.111 -0.8983  0.5026  0.5685
 2470TIP3   OH228824   3.446   0.652  16.922  0.9401 -0.1446  0.3363
 2470TIP3    H128825   3.355   0.641  16.894  1.5560 -1.5455 -1.2552
 2470TIP3    H228826   3.463   0.746  16.911 -0.4047  0.2052  1.0252
 2471TIP3   OH228827   2.374   1.220   0.932 -0.2716  0.0247  0.3730
 2471TIP3    H128828   2.456   1.176   0.912  0.4375  0.2919  2.3956
 2471TIP3    H228829   2.382   1.243   1.025 -1.4954  2.5045 -0.0554
 2472TIP3   OH228830   5.092   2.401  14.533  0.1682 -0.3405 -0.0826
 2472TIP3    H128831   5.003   2.430  14.555  0.3711  0.1681  0.0741
 2472TIP3    H228832   5.146   2.434  14.605  0.9711  1.9822 -1.6456
 2473TIP3   OH228833   3.987   2.564   2.107 -0.3027 -0.5230 -0.2661
 2473TIP3    H128834   4.054   2.573   2.039  0.8250 -0.7927  0.7801
 2473TIP3    H228835   3.933   2.643   2.098 -0.0523 -0.4479 -1.3165
 2474TIP3   OH228836   4.692   6.742   2.661 -0.1263 -0.4233  0.1689
 2474TIP3    H128837   4.664   6.651   2.657  0.2984 -0.5224 -2.6943
 2474TIP3    H228838   4.784   6.741   2.635  0.2725  0.7168  1.3991
 2475TIP3   OH228839   6.447   1.451  12.132 -0.0857 -0.2910  0.3590
 2475TIP3    H128840   6.428   1.409  12.216  1.8872 -0.2613  0.8646
 2475TIP3    H228841   6.496   1.385  12.083 -2.3405 -0.8121 -1.3678
 2476TIP3   OH228842   1.239   4.727   1.008 -0.3969 -0.1820  0.1846
 2476TIP3    H128843   1.307   4.767   1.062  0.2049  1.5614 -1.7375
 2476TIP3    H228844   1.281   4.650   0.969  0.1484  0.2768 -0.1493
 2477TIP3   OH228845   0.411   6.183  13.626  0.2336 -0.0307  0.3447
 2477TIP3    H128846   0.403   6.213  13.535  0.3876  0.3646  0.4604
 2477TIP3    H228847   0.358   6.103  13.629  0.2044 -0.0314 -0.0862
 2478TIP3   OH228848   0.692   5.037  14.749  0.5577 -0.4288 -0.0268
 2478TIP3    H128849   0.786   5.021  14.757  0.4129 -2.8019 -1.8186
 2478TIP3    H228850   0.685   5.128  14.720  2.2848 -0.2402  0.0415
 2479TIP3   OH228851   5.920   4.090   4.341  0.0906 -0.0735  0.1011
 2479TIP3    H128852   5.900   3.997   4.332 -0.4170  0.0521 -0.1408
 2479TIP3    H228853   6.007   4.100   4.302  0.6466 -0.6314  1.1488
 2480TIP3   OH228854   4.989   5.086  16.011  0.1537 -0.5678  0.7023
 2480TIP3    H128855   4.947   5.170  15.997  0.7844 -0.3814 -0.1649
 2480TIP3    H228856   5.043   5.098  16.090 -1.4228 -0.8358  1.8631
 2481TIP3   OH228857   5.538   2.155  16.949 -0.6090 -0.5876  0.4234
 2481TIP3    H128858   5.626   2.194  16.952 -1.5220  1.5843  1.9363
 2481TIP3    H228859   5.481   2.228  16.924 -2.1869 -1.5047  1.2011
 2482TIP3   OH228860   0.148   2.196   6.438  0.0855 -0.2080 -0.4776
 2482TIP3    H128861   0.212   2.125   6.439 -0.5916 -0.8354  0.6631
 2482TIP3    H228862   0.198   2.272   6.468  0.2724 -0.7448  0.6433
 2483TIP3   OH228863   4.658   1.536  12.333 -0.0078  0.1170  0.8096
 2483TIP3    H128864   4.639   1.601  12.400  0.3978 -3.4822  4.8974
 2483TIP3    H228865   4.578   1.483  12.328 -0.8391  1.3898 -3.3748
 2484TIP3   OH228866   3.116   6.218  14.345  0.0672  0.1018  0.3348
 2484TIP3    H128867   3.135   6.299  14.392  0.9924 -0.5977  1.1988
 2484TIP3    H228868   3.188   6.208  14.284 -1.0058  0.8768 -1.1186
 2485TIP3   OH228869   2.240   6.230   0.300  0.1438 -0.2505 -0.1607
 2485TIP3    H128870   2.211   6.307   0.251 -1.4367 -1.8155 -1.8835
 2485TIP3    H228871   2.336   6.233   0.296  0.0799  0.8084 -1.5456
 2486TIP3   OH228872   3.807   4.196  14.827 -0.2020 -0.2560 -0.0340
 2486TIP3    H128873   3.837   4.137  14.758 -1.3223 -0.3157 -0.5059
 2486TIP3    H228874   3.809   4.283  14.787 -1.6628 -0.3904 -0.4621
 2487TIP3   OH228875   4.375   6.744  11.169 -0.0059  0.0606  0.4362
 2487TIP3    H128876   4.424   6.821  11.139  0.0258  1.1333  2.9670
 2487TIP3    H228877   4.443   6.681  11.195 -0.0121 -1.3570 -2.5877
 2488TIP3   OH228878   5.447   2.990  16.728  0.4731  0.2177 -0.1298
 2488TIP3    H128879   5.541   2.993  16.710  0.3873  1.5210 -0.4617
 2488TIP3    H228880   5.408   2.971  16.642  0.3919  0.3622 -0.1239
 2489TIP3   OH228881   2.674   2.714   6.986 -0.5869  0.1382 -0.4981
 2489TIP3    H128882   2.702   2.623   6.998  1.0378  0.5052 -1.2449
 2489TIP3    H228883   2.591   2.720   7.033 -0.2446 -1.4717  0.3779
 2490TIP3   OH228884   1.859   0.963  12.569  0.3188  0.3484 -0.0034
 2490TIP3    H128885   1.808   0.891  12.604  1.1657  0.0540  0.6582
 2490TIP3    H228886   1.849   0.957  12.474 -0.6288  0.1292  0.1112
 2491TIP3   OH228887   4.308   2.197   5.584  0.0277 -0.0502 -0.3415
 2491TIP3    H128888   4.331   2.175   5.494 -0.9576  0.5158 -0.7547
 2491TIP3    H228889   4.275   2.287   5.578 -2.2450 -0.7864  0.1650
 2492TIP3   OH228890   0.384   4.609  15.750  0.0513  0.6710 -0.8156
 2492TIP3    H128891   0.470   4.568  15.756 -0.3889 -0.0595  1.7003
 2492TIP3    H228892   0.366   4.640  15.839 -3.1440 -1.0970 -0.7116
 2493TIP3   OH228893   0.650   3.097   2.444 -0.1000 -0.2439 -0.6037
 2493TIP3    H128894   0.723   3.106   2.505 -0.3316  0.7893 -0.4643
 2493TIP3    H228895   0.625   3.005   2.451 -0.6773  0.0261  1.5234
 2494TIP3   OH228896   1.892   0.914  14.077 -0.2044  0.0145  0.6010
 2494TIP3    H128897   1.911   1.008  14.070  0.9444 -0.2687 -0.4229
 2494TIP3    H228898   1.801   0.906  14.048  0.0516  0.6830 -0.4416
 2495TIP3   OH228899   5.160   3.967   0.116  0.1215  0.3869  0.0940
 2495TIP3    H128900   5.194   3.931   0.035 -0.1653  2.7713 -1.1826
 2495TIP3    H228901   5.228   4.029   0.145  1.2264 -1.9184  2.9237
 2496TIP3   OH228902   1.948   4.125   2.189  0.2968 -0.2137  0.0783
 2496TIP3    H128903   1.979   4.139   2.278 -0.6989  0.4820  0.3363
 2496TIP3    H228904   2.020   4.152   2.133  1.4780 -2.0051  0.6547
 2497TIP3   OH228905   2.461   4.902   2.340  0.5142 -0.5656 -0.4749
 2497TIP3    H128906   2.515   4.944   2.273 -0.3899  0.7154 -0.4410
 2497TIP3    H228907   2.492   4.939   2.423 -0.3673  0.1700 -0.4540
 2498TIP3   OH228908   0.273   5.834  16.088 -0.0285  0.2356 -0.2781
 2498TIP3    H128909   0.301   5.770  16.022  0.5302 -0.7261  0.8651
 2498TIP3    H228910   0.354   5.873  16.120 -0.1599 -0.4051  0.9042
 2499TIP3   OH228911   0.736   5.854   2.737 -0.2848  0.5795 -0.2715
 2499TIP3    H128912   0.680   5.907   2.793  0.2820 -1.2761  2.2336
 2499TIP3    H228913   0.683   5.776   2.717  0.2966  0.2271 -0.4631
 2500TIP3   OH228914   0.455   4.525  12.071  0.5316  0.2808  0.1396
 2500TIP3    H128915   0.450   4.612  12.111  0.2686  0.3230  0.0221
 2500TIP3    H228916   0.505   4.472  12.133  0.6765  0.5128  0.2194
 2501TIP3   OH228917   4.141   5.167   6.463 -0.0427 -0.1067  0.1468
 2501TIP3    H128918   4.070   5.139   6.520 -0.8231  1.8162  0.1910
 2501TIP3    H228919   4.101   5.231   6.404  1.4561  0.3698 -0.4064
 2502TIP3   OH228920   6.637   2.514  15.711  0.4810 -0.2063 -0.0017
 2502TIP3    H128921   6.677   2.586  15.663 -0.1355 -0.2667 -0.6307
 2502TIP3    H228922   6.615   2.551  15.796  1.4251 -0.0459  0.1828
 2503TIP3   OH228923   4.534   3.109  13.869 -0.0117 -0.2947 -0.1346
 2503TIP3    H128924   4.479   3.033  13.847 -0.3482  0.4424 -2.0106
 2503TIP3    H228925   4.529   3.165  13.792  0.2102  1.6729  1.2268
 2504TIP3   OH228926   4.098   4.095  13.418  0.2478 -0.2066 -0.2425
 2504TIP3    H128927   4.126   4.168  13.474 -1.3180 -2.0936  3.3421
 2504TIP3    H228928   4.007   4.116  13.396  0.1253 -0.5601 -0.0852
 2505TIP3   OH228929   6.124   3.511  13.546  0.3043 -0.8262 -1.1708
 2505TIP3    H128930   6.197   3.573  13.554  0.3605 -1.1241  2.0524
 2505TIP3    H228931   6.045   3.565  13.555  0.3404 -0.9998  0.8228
 2506TIP3   OH228932   1.737   6.142  15.451  0.0080  0.3563  0.5458
 2506TIP3    H128933   1.813   6.197  15.471  1.2327 -0.6496 -1.0396
 2506TIP3    H228934   1.732   6.080  15.524  0.4778  0.6753  0.8527
 2507TIP3   OH228935   6.513   6.781   3.781 -0.4183  0.6396 -0.2136
 2507TIP3    H128936   6.454   6.712   3.810  0.1284 -0.0383 -0.6864
 2507TIP3    H228937   6.460   6.861   3.784 -1.4197  0.0144 -0.8306
 2508TIP3   OH228938   4.060   0.343   0.174  0.4018 -0.3643 -0.1374
 2508TIP3    H128939   4.063   0.273   0.240  2.4159 -2.1485 -1.9564
 2508TIP3    H228940   3.967   0.352   0.153 -0.2409 -0.1230  2.4870
 2509TIP3   OH228941   0.435   1.492  16.794 -0.0465 -0.6552  0.8143
 2509TIP3    H128942   0.408   1.432  16.725 -2.6103 -0.0224  1.1879
 2509TIP3    H228943   0.486   1.559  16.748  0.0617 -1.3490 -0.1036
 2510TIP3   OH228944   4.811   3.872   5.324 -0.3113  0.9524  0.0306
 2510TIP3    H128945   4.835   3.907   5.238 -2.0507  2.6048  0.1388
 2510TIP3    H228946   4.757   3.795   5.305  1.7756 -0.5077 -0.2542
 2511TIP3   OH228947   0.739   0.098   0.497 -0.8908  0.4939  0.0302
 2511TIP3    H128948   0.825   0.140   0.491 -1.2637  1.2309 -0.3896
 2511TIP3    H228949   0.744   0.044   0.576  0.5293 -0.8531 -0.9282
 2512TIP3   OH228950   5.118   0.467   5.156 -0.0166  0.1432 -0.1785
 2512TIP3    H128951   5.190   0.473   5.218 -0.5500 -1.0318  0.5714
 2512TIP3    H228952   5.051   0.415   5.200 -1.2085  0.9296 -0.9826
 2513TIP3   OH228953   2.894   1.829  12.899  0.3331 -0.3641 -0.0359
 2513TIP3    H128954   2.878   1.919  12.871 -0.6307  0.0077  1.5847
 2513TIP3    H228955   2.857   1.775  12.829 -1.3293  0.5213  0.1279
 2514TIP3   OH228956   2.892   4.064   2.992  0.0347  0.5323 -0.0926
 2514TIP3    H128957   2.914   3.974   3.018 -0.8707  0.4593  0.4857
 2514TIP3    H228958   2.797   4.070   3.008  0.0594  1.5396 -0.2905
 2515TIP3   OH228959   0.816   2.965  14.522 -0.1028 -0.2650 -0.0075
 2515TIP3    H128960   0.738   3.014  14.498  0.2538  0.5763  0.5290
 2515TIP3    H228961   0.814   2.960  14.617  1.4306  1.4025  0.1711
 2516TIP3   OH228962   5.034   1.373  16.342  0.2259 -0.3416 -0.9482
 2516TIP3    H128963   5.098   1.353  16.274 -1.7006 -0.1807 -2.8973
 2516TIP3    H228964   5.085   1.416  16.411  2.0586  0.6696 -2.8489
 2517TIP3   OH228965   5.541   1.724   4.748 -0.4306  0.1143  0.3516
 2517TIP3    H128966   5.585   1.804   4.721 -1.1581  0.7421  0.9649
 2517TIP3    H228967   5.519   1.679   4.666  0.4662  0.2658  0.0225
 2518TIP3   OH228968   1.845   5.541  15.650 -0.5351 -0.7746  0.2094
 2518TIP3    H128969   1.876   5.483  15.581  0.9170  1.3941 -1.1059
 2518TIP3    H228970   1.926   5.571  15.693 -1.1961  0.4649  0.6340
 2519TIP3   OH228971   1.359   0.984   4.273  0.1862 -0.4256  0.0647
 2519TIP3    H128972   1.313   1.017   4.350 -0.1949  1.0173 -0.7292
 2519TIP3    H228973   1.426   1.050   4.255  1.3583 -1.5594  0.0938
 2520TIP3   OH228974   6.524   3.130  12.932  0.4760 -0.4779  1.0811
 2520TIP3    H128975   6.607   3.101  12.894  0.4394 -1.4902  1.7685
 2520TIP3    H228976   6.549   3.179  13.010  0.5149  1.0613  0.1537
 2521TIP3   OH228977   2.421   6.583   0.767  0.4616  0.1183  0.1846
 2521TIP3    H128978   2.480   6.579   0.692  0.3753  0.6626  0.0847
 2521TIP3    H228979   2.345   6.530   0.741  1.9560 -2.8221  1.3005
 2522TIP3   OH228980   3.041   6.173  13.508 -0.3940  0.2987 -0.2915
 2522TIP3    H128981   2.946   6.181  13.512 -0.9230 -3.8012 -0.2528
 2522TIP3    H228982   3.059   6.087  13.546  3.2438  0.4469 -1.3364
 2523TIP3   OH228983   0.250   0.231  14.413 -0.2159 -0.2929  0.3221
 2523TIP3    H128984   0.189   0.242  14.486  1.4257 -2.9988  2.3163
 2523TIP3    H228985   0.239   0.139  14.387  0.9424 -0.0199 -1.2600
 2524TIP3   OH228986   1.171   5.461   5.006 -0.1045 -0.1825  0.1012
 2524TIP3    H128987   1.159   5.438   5.098  1.8111 -1.1421  0.1687
 2524TIP3    H228988   1.266   5.468   4.995 -0.2505 -0.7200 -1.9358
 2525TIP3   OH228989   1.337   0.061   2.003 -0.3016  0.3524  0.4453
 2525TIP3    H128990   1.268   0.095   2.059 -0.1663 -0.4494  1.1138
 2525TIP3    H228991   1.304   0.073   1.914 -0.3294  2.0492  0.6474
 2526TIP3   OH228992   0.264   5.038   4.014 -0.6913 -0.0997 -0.1420
 2526TIP3    H128993   0.213   5.119   4.012 -1.3497 -0.5162 -1.7749
 2526TIP3    H228994   0.200   4.970   4.035 -0.6039 -0.4783 -1.0615
 2527TIP3   OH228995   6.517   5.613  10.880 -0.5517 -0.2744 -0.0630
 2527TIP3    H128996   6.572   5.537  10.899 -0.2446 -0.2079 -0.6571
 2527TIP3    H228997   6.538   5.636  10.790 -1.8440 -0.4753 -0.4301
 2528TIP3   OH228998   6.320   0.753   4.999  0.0906 -0.5575 -0.1016
 2528TIP3    H128999   6.339   0.661   5.017 -1.4633 -0.6486  1.3200
 2528TIP3    H229000   6.363   0.770   4.915  2.3325 -1.9382  0.6694
 2529TIP3   OH229001   5.016   0.349   6.080  0.0372  0.1964 -0.2430
 2529TIP3    H129002   4.997   0.342   6.174 -0.0784 -1.7611 -0.3823
 2529TIP3    H229003   5.080   0.420   6.074 -0.6725  1.0071  1.1944
 2530TIP3   OH229004   1.344   0.006  12.408  0.1023 -0.1149  0.1213
 2530TIP3    H129005   1.373   0.085  12.453  2.8243 -1.2447  0.5518
 2530TIP3    H229006   1.417  -0.017  12.351 -2.1100 -0.3178 -2.8393
 2531TIP3   OH229007   0.524   4.612   3.612  0.4815 -0.6722  0.2452
 2531TIP3    H129008   0.515   4.650   3.699  0.2099  0.1833 -0.1416
 2531TIP3    H229009   0.612   4.638   3.584  0.3790 -0.5097  0.0694
 2532TIP3   OH229010   1.858   6.527   6.090 -0.2216  0.3337 -0.8485
 2532TIP3    H129011   1.915   6.587   6.042  2.4831 -1.6600 -0.3707
 2532TIP3    H229012   1.876   6.545   6.182 -1.0037  0.2005 -0.6628
 2533TIP3   OH229013   6.591   0.433  16.048 -0.3420 -0.1752  0.0464
 2533TIP3    H129014   6.645   0.482  15.986  0.4423  0.1827  0.9739
 2533TIP3    H229015   6.549   0.501  16.102 -1.5440 -0.4579 -0.5008
 2534TIP3   OH229016   1.411   2.994   0.438 -0.1614 -0.4791  0.1308
 2534TIP3    H129017   1.353   3.004   0.362  0.7025 -1.4196 -0.6760
 2534TIP3    H229018   1.494   2.965   0.401  0.8015  0.7287  1.2902
 2535TIP3   OH229019   4.611   0.065   2.422 -0.1342  0.2463  0.0161
 2535TIP3    H129020   4.517   0.049   2.436  0.0776 -0.6770  0.4533
 2535TIP3    H229021   4.649   0.061   2.510  0.3559  0.2985 -0.1922
 2536TIP3   OH229022   3.437   4.379   6.139  0.0987  0.2695  0.7100
 2536TIP3    H129023   3.390   4.375   6.223 -0.7989  0.0473  0.2028
 2536TIP3    H229024   3.415   4.465   6.103  2.2692  1.3331  1.6952
 2537TIP3   OH229025   3.236   5.806  11.185  0.6041 -0.8850  0.8293
 2537TIP3    H129026   3.170   5.807  11.116 -2.3247 -0.1999  3.4451
 2537TIP3    H229027   3.290   5.883  11.167 -1.3770  0.4776  0.4240
 2538TIP3   OH229028   5.268   3.137   3.086  0.0480 -0.1901  0.5652
 2538TIP3    H129029   5.231   3.202   3.145 -1.2367  0.6403 -1.0639
 2538TIP3    H229030   5.205   3.065   3.085 -2.0673  1.4579 -2.6315
 2539TIP3   OH229031   3.728   1.219   2.194  0.2731 -0.1750 -0.0638
 2539TIP3    H129032   3.699   1.135   2.229  0.8182  0.2186  1.3819
 2539TIP3    H229033   3.820   1.226   2.219 -0.3286  1.8732  1.9923
 2540TIP3   OH229034   2.092   0.165   2.446 -0.5159 -0.6341 -0.3703
 2540TIP3    H129035   2.135   0.248   2.425  0.8859 -1.1622  0.2721
 2540TIP3    H229036   2.070   0.172   2.538 -0.0755 -1.0855 -0.2226
 2541TIP3   OH229037   4.360   5.330  11.132 -0.6290  0.4274  0.5892
 2541TIP3    H129038   4.383   5.258  11.074 -0.2491  1.2874 -0.3680
 2541TIP3    H229039   4.429   5.396  11.117 -1.5396  1.4196  0.6385
 2542TIP3   OH229040   6.371   0.326  11.412 -0.7984  0.3955 -0.0465
 2542TIP3    H129041   6.415   0.268  11.349  0.5603  1.9855 -0.6424
 2542TIP3    H229042   6.438   0.345  11.478 -1.5006  0.6073  0.6296
 2543TIP3   OH229043   0.747   5.726  11.867 -0.4051 -0.5300 -0.4100
 2543TIP3    H129044   0.706   5.757  11.786 -1.2875  2.6450  1.1390
 2543TIP3    H229045   0.836   5.761  11.863 -0.5371 -0.1392  0.1278
 2544TIP3   OH229046   3.306   3.681   4.080 -0.0954  0.0839 -0.0348
 2544TIP3    H129047   3.273   3.770   4.065  1.0608  0.5552  0.0821
 2544TIP3    H229048   3.241   3.640   4.136 -1.0579  0.5789 -0.7518
 2545TIP3   OH229049   0.983   2.439  12.854 -0.6868  0.4986  0.4114
 2545TIP3    H129050   0.924   2.366  12.841  1.0739 -1.8156  3.7540
 2545TIP3    H229051   1.066   2.410  12.816 -0.2305  1.1829  0.8619
 2546TIP3   OH229052   6.700   1.873  12.196 -0.2040  0.0753  0.3345
 2546TIP3    H129053   6.610   1.845  12.214  0.2894 -2.3757 -0.6102
 2546TIP3    H229054   6.727   1.920  12.275 -2.5200  1.5962  0.3342
 2547TIP3   OH229055   4.585   4.190  15.640 -0.8641 -0.4025 -0.2276
 2547TIP3    H129056   4.528   4.253  15.684 -0.5427 -0.5035  0.3412
 2547TIP3    H229057   4.674   4.215  15.665 -0.7206 -0.9630 -0.1466
 2548TIP3   OH229058   2.280   6.328  14.426  0.1871 -0.4382 -0.7133
 2548TIP3    H129059   2.286   6.389  14.353  2.9265 -0.0115 -0.2309
 2548TIP3    H229060   2.371   6.306  14.447 -0.6297 -3.3266  0.2892
 2549TIP3   OH229061   0.630   0.334  15.196 -0.3850  0.0389 -0.0678
 2549TIP3    H129062   0.582   0.416  15.183 -0.1174  0.1583 -0.3156
 2549TIP3    H229063   0.673   0.345  15.281 -0.8856 -0.1165  0.2112
 2550TIP3   OH229064   1.985   2.913   2.331 -0.4136 -0.0973 -0.0830
 2550TIP3    H129065   2.041   2.990   2.320 -0.9634  0.2142 -0.8339
 2550TIP3    H229066   2.001   2.860   2.253  0.8521 -1.3611  0.9877
 2551TIP3   OH229067   4.277   0.514  13.662  0.2552 -0.1852  0.3118
 2551TIP3    H129068   4.217   0.582  13.633 -0.7273  0.3122  3.1138
 2551TIP3    H229069   4.322   0.553  13.737  4.3533 -0.4637 -1.7322
 2552TIP3   OH229070   5.330   1.468  10.804  0.4648  0.0697 -0.2738
 2552TIP3    H129071   5.267   1.540  10.802  0.9235  0.5414  0.9246
 2552TIP3    H229072   5.302   1.414  10.878  1.2780  0.1284  0.0896
 2553TIP3   OH229073   5.976   3.803   1.276  0.2902  0.3512 -0.8207
 2553TIP3    H129074   5.893   3.804   1.230  0.3595 -0.8453 -1.0043
 2553TIP3    H229075   5.954   3.821   1.367  0.0057  1.4355 -1.0909
 2554TIP3   OH229076   4.200   0.424   4.651 -0.2708  0.0404 -0.0998
 2554TIP3    H129077   4.296   0.428   4.646 -0.1880  0.8397  1.6391
 2554TIP3    H229078   4.179   0.457   4.738 -1.9944 -2.3730  0.4988
 2555TIP3   OH229079   3.462   1.813  14.801 -0.6124  0.0582  0.1798
 2555TIP3    H129080   3.508   1.756  14.739 -1.2609  0.6570 -0.8806
 2555TIP3    H229081   3.519   1.890  14.810 -0.0275 -0.4696  1.1427
 2556TIP3   OH229082   5.625   4.027  10.976 -0.6292  0.2200 -0.4390
 2556TIP3    H129083   5.614   4.023  11.070  0.3029  1.2691 -0.2518
 2556TIP3    H229084   5.542   3.997  10.940 -1.7945  1.8188  0.7488
 2557TIP3   OH229085   2.451   6.347  15.496  0.0371 -0.0892  0.0271
 2557TIP3    H129086   2.455   6.430  15.449 -0.4511  0.6868  1.2842
 2557TIP3    H229087   2.385   6.362  15.564  1.3428 -0.8334  1.5266
 2558TIP3   OH229088   0.472   4.615  13.068 -0.5331 -0.5197 -0.6583
 2558TIP3    H129089   0.538   4.603  13.137 -1.1450 -1.9009 -0.2695
 2558TIP3    H229090   0.478   4.708  13.045  2.3364 -0.8101 -1.4579
 2559TIP3   OH229091   3.620   5.485  10.816 -0.4679  0.1333 -0.0306
 2559TIP3    H129092   3.647   5.572  10.846 -1.9664  0.7422 -0.3407
 2559TIP3    H229093   3.640   5.485  10.723  0.2625 -0.1688  0.1182
 2560TIP3   OH229094   6.536   3.837   6.659 -0.6463  0.2002 -0.4031
 2560TIP3    H129095   6.496   3.769   6.714  0.9230  0.3485  0.9721
 2560TIP3    H229096   6.614   3.795   6.623  0.0691  1.1015  0.0657
 2561TIP3   OH229097   3.688   6.103  14.099  0.2992  0.0298  0.2705
 2561TIP3    H129098   3.744   6.049  14.043 -1.6724 -0.5747 -1.2499
 2561TIP3    H229099   3.602   6.061  14.094 -0.9344  2.3641  0.3458
 2562TIP3   OH229100   4.080   2.724  12.858  0.0756 -0.8286  0.1904
 2562TIP3    H129101   4.001   2.773  12.835  0.0856 -0.4207  0.9976
 2562TIP3    H229102   4.052   2.664  12.927  0.9297  0.9023  2.1283
 2563TIP3   OH229103   1.525   2.485   2.767  0.0615 -0.2668 -0.0266
 2563TIP3    H129104   1.497   2.419   2.831  2.4805  0.3023  1.7483
 2563TIP3    H229105   1.444   2.524   2.736 -1.3855 -3.0268 -0.0527
 2564TIP3   OH229106   0.605   4.854   3.132 -0.2714 -0.1540  0.4949
 2564TIP3    H129107   0.619   4.879   3.223 -0.1796 -0.5740  0.5980
 2564TIP3    H229108   0.659   4.916   3.082  0.3824 -0.4857  0.7762
 2565TIP3   OH229109   1.059   6.503   5.499  0.0671 -0.1504 -0.3375
 2565TIP3    H129110   0.982   6.451   5.475  0.2063 -0.2952 -0.4736
 2565TIP3    H229111   1.053   6.512   5.594  2.0199 -3.6889  0.3077
 2566TIP3   OH229112   4.704   6.636   1.119  0.0129 -0.3879  0.2141
 2566TIP3    H129113   4.692   6.644   1.214 -1.8085  1.9933 -0.1376
 2566TIP3    H229114   4.795   6.662   1.104 -0.4798  2.0893  1.1008
 2567TIP3   OH229115   6.218   6.435   4.791 -0.5176 -0.3859  0.1499
 2567TIP3    H129116   6.275   6.434   4.868 -2.7406 -1.4421  1.8954
 2567TIP3    H229117   6.130   6.435   4.827 -1.6706  1.0329 -2.4381
 2568TIP3   OH229118   4.115   5.936   0.319  0.2174 -0.3602 -0.2323
 2568TIP3    H129119   4.069   5.949   0.403  0.3514 -0.4600 -0.1428
 2568TIP3    H229120   4.194   5.988   0.326 -0.3615  0.6174 -0.7836
 2569TIP3   OH229121   2.453   2.669   3.703 -0.0565 -0.2602  0.0354
 2569TIP3    H129122   2.468   2.692   3.795 -2.2117 -0.1596  0.4271
 2569TIP3    H229123   2.438   2.753   3.660  0.5666 -0.3386 -0.3510
 2570TIP3   OH229124   0.011   4.968   0.943  0.2549  0.6838 -0.1842
 2570TIP3    H129125   0.080   4.902   0.952  0.1233  0.8224  4.3274
 2570TIP3    H229126  -0.069   4.918   0.928  0.3404 -0.2198  1.9928
 2571TIP3   OH229127   0.159   6.718  14.382 -0.1184  0.2380  0.2969
 2571TIP3    H129128   0.126   6.748  14.466  0.0086  1.1996  0.0226
 2571TIP3    H229129   0.233   6.662  14.403 -1.4161 -1.3290  0.8900
 2572TIP3   OH229130   4.082   3.967  12.607 -0.7098  0.4048 -0.7878
 2572TIP3    H129131   4.152   3.982  12.543  0.7998 -1.1143  0.4185
 2572TIP3    H229132   4.043   4.053  12.620  1.9100  1.6587 -0.4564
 2573TIP3   OH229133   0.486   2.086  13.084  1.0314 -0.6050 -0.2180
 2573TIP3    H129134   0.474   2.173  13.047 -1.3297 -0.9314 -0.4011
 2573TIP3    H229135   0.548   2.043  13.025  0.6799  0.3107 -1.2913
 2574TIP3   OH229136   2.546   2.002   0.725 -0.7623 -0.4876  0.5583
 2574TIP3    H129137   2.602   1.999   0.803 -1.4930 -1.3919  1.0616
 2574TIP3    H229138   2.604   1.978   0.653  0.3911  2.1872  0.5080
 2575TIP3   OH229139   5.739   0.120  13.775 -0.0467  0.2917 -0.2191
 2575TIP3    H129140   5.688   0.192  13.811  0.8744  0.5537  0.6278
 2575TIP3    H229141   5.709   0.111  13.685 -0.8108  1.1322 -0.0565
 2576TIP3   OH229142   2.802   3.676  11.831  0.1394  0.3193  0.0685
 2576TIP3    H129143   2.848   3.719  11.903  0.0519 -0.1181  0.3894
 2576TIP3    H229144   2.732   3.626  11.874  0.8938 -0.9985 -0.1879
 2577TIP3   OH229145   0.050   3.632   4.383 -0.3398  0.4170 -0.3831
 2577TIP3    H129146   0.074   3.602   4.471 -1.3418  1.0629  0.1330
 2577TIP3    H229147   0.031   3.726   4.394 -1.0651  0.3742 -1.1509
 2578TIP3   OH229148   5.329   5.007   0.778 -0.3303 -0.6232  0.1358
 2578TIP3    H129149   5.349   5.044   0.692  0.6777  1.2843  1.1271
 2578TIP3    H229150   5.377   4.924   0.781  0.4241 -0.2327 -0.7833
 2579TIP3   OH229151   2.697   4.024   1.160  0.2965 -0.2341 -0.0128
 2579TIP3    H129152   2.744   3.966   1.100  0.7043  1.0500 -0.9948
 2579TIP3    H229153   2.750   4.025   1.239 -0.0369 -1.6442  0.2579
 2580TIP3   OH229154   0.786   6.186  13.904 -0.5854  0.0824  0.1126
 2580TIP3    H129155   0.691   6.197  13.908 -0.6421 -0.6460  1.8101
 2580TIP3    H229156   0.802   6.106  13.954  0.9709  0.4683  0.2599
 2581TIP3   OH229157   5.855   5.036   5.288  0.4404  0.3595 -0.2637
 2581TIP3    H129158   5.945   5.061   5.306  0.3466 -0.2728  1.2769
 2581TIP3    H229159   5.803   5.107   5.326  0.2804  0.1334 -0.0524
 2582TIP3   OH229160   0.710   2.619  14.548 -0.4253  1.3583  0.0975
 2582TIP3    H129161   0.653   2.551  14.513 -1.3154  2.4226 -0.5568
 2582TIP3    H229162   0.721   2.681  14.476  0.7359  1.6931  0.5376
 2583TIP3   OH229163   0.887   5.456  16.098 -0.2800 -0.4032  0.1499
 2583TIP3    H129164   0.846   5.504  16.170 -1.7021 -1.0091 -0.2080
 2583TIP3    H229165   0.849   5.368  16.104 -1.0271 -0.2694 -1.7684
 2584TIP3   OH229166   2.473   1.425   2.720  0.2181  0.3374 -0.3069
 2584TIP3    H129167   2.542   1.479   2.759 -0.1241  2.9562 -2.9192
 2584TIP3    H229168   2.518   1.348   2.687  1.2217  0.2143  1.2942
 2585TIP3   OH229169   0.678   2.333   0.371 -0.3666  0.3895 -0.2094
 2585TIP3    H129170   0.621   2.332   0.448 -1.8374  0.6881 -1.2417
 2585TIP3    H229171   0.696   2.241   0.353  0.0218  0.3202  0.5057
 2586TIP3   OH229172   3.474   5.341   4.915 -0.1203 -0.4036  0.4880
 2586TIP3    H129173   3.497   5.432   4.895 -0.1185 -0.1007  1.7283
 2586TIP3    H229174   3.411   5.349   4.987 -1.1443 -1.3532 -0.2744
 2587TIP3   OH229175   5.496   6.638  14.817 -0.1220 -0.2366  0.5587
 2587TIP3    H129176   5.484   6.547  14.843  0.9065 -0.9038 -1.1115
 2587TIP3    H229177   5.547   6.676  14.889  2.4208 -1.9352 -0.1857
 2588TIP3   OH229178   6.156   6.243   6.189  0.1300 -0.5642 -0.6466
 2588TIP3    H129179   6.163   6.338   6.184  0.3262 -0.5092  0.4811
 2588TIP3    H229180   6.165   6.214   6.098 -1.1485  0.5587 -1.1679
 2589TIP3   OH229181   3.648   2.273   1.318 -0.4326 -0.2534  0.3377
 2589TIP3    H129182   3.737   2.300   1.340  0.0036 -1.3962  0.0112
 2589TIP3    H229183   3.592   2.337   1.363  0.5504  0.9202 -0.0472
 2590TIP3   OH229184   2.561   2.395  15.940  0.5487  0.2393 -0.0929
 2590TIP3    H129185   2.482   2.385  15.994  0.9389 -0.6042  0.3535
 2590TIP3    H229186   2.624   2.438  15.998  0.9121 -0.5103  0.0859
 2591TIP3   OH229187   1.290   4.647   0.222  0.3692 -0.0292 -0.2475
 2591TIP3    H129188   1.295   4.735   0.261  0.6414 -0.3367  0.4267
 2591TIP3    H229189   1.368   4.602   0.254  1.6727  0.3114 -2.7404
 2592TIP3   OH229190   5.851   4.969   0.797 -0.1628  0.0356  0.2153
 2592TIP3    H129191   5.758   4.952   0.814 -0.3764  0.4668 -0.4775
 2592TIP3    H229192   5.867   4.926   0.713  0.3349 -0.2626  0.4605
 2593TIP3   OH229193   5.152   4.006  10.788  0.1871 -0.1547  0.2864
 2593TIP3    H129194   5.199   3.996  10.705 -0.1935  0.6045 -0.0357
 2593TIP3    H229195   5.077   4.061  10.767  0.1196  0.1066  1.1506
 2594TIP3   OH229196   3.585   6.736  17.245 -0.4876 -0.4173 -0.2262
 2594TIP3    H129197   3.669   6.781  17.256  0.1221 -1.8790  1.5314
 2594TIP3    H229198   3.541   6.784  17.174  1.2164  1.2580 -0.2199
 2595TIP3   OH229199   3.352   0.643   6.384  0.0130  0.3650  0.0975
 2595TIP3    H129200   3.360   0.563   6.435  0.6319  0.5377  0.2746
 2595TIP3    H229201   3.422   0.700   6.416 -0.8287  1.2436  0.4411
 2596TIP3   OH229202   3.217   3.192   4.537 -0.4677 -0.3422  0.3669
 2596TIP3    H129203   3.177   3.106   4.543  0.8737 -1.2194 -1.8370
 2596TIP3    H229204   3.311   3.174   4.531 -0.2099  1.1651 -0.9155
 2597TIP3   OH229205   0.022   5.140  15.600 -0.0631 -0.3027 -0.0746
 2597TIP3    H129206   0.093   5.126  15.538 -0.4832 -3.4775 -0.0123
 2597TIP3    H229207  -0.045   5.186  15.550  0.3753 -1.0548 -1.4156
 2598TIP3   OH229208   0.937   5.638  13.507 -0.4229  0.4179  0.5418
 2598TIP3    H129209   0.916   5.582  13.581  0.4228  1.0597  1.2882
 2598TIP3    H229210   1.032   5.630  13.497 -0.5487  0.1672 -0.6235
 2599TIP3   OH229211   1.491   2.809  15.255  0.6889  0.4807 -0.6984
 2599TIP3    H129212   1.548   2.737  15.280 -1.4131 -0.3638  2.1692
 2599TIP3    H229213   1.549   2.872  15.213  3.9970  0.2216  2.9680
 2600TIP3   OH229214   1.201   1.810   4.152  0.2965  0.2782 -0.1526
 2600TIP3    H129215   1.256   1.815   4.230 -0.0708  0.5947  0.0874
 2600TIP3    H229216   1.230   1.883   4.097  1.4975 -0.7471 -0.9410
 2601TIP3   OH229217   0.024   1.893   6.587 -0.8415 -0.1187 -0.0136
 2601TIP3    H129218   0.020   1.798   6.595 -1.0309 -0.1363 -0.2856
 2601TIP3    H229219   0.097   1.920   6.643 -0.0262 -0.5318 -0.8482
 2602TIP3   OH229220   2.780   0.489   2.241  0.7558  0.1417 -0.3551
 2602TIP3    H129221   2.826   0.411   2.271 -0.2565 -0.4456 -0.3147
 2602TIP3    H229222   2.850   0.546   2.209  1.5915 -0.3958  0.4453
 2603TIP3   OH229223   1.950   2.428  16.605  0.2357  0.5887 -0.3226
 2603TIP3    H129224   2.041   2.459  16.598  0.9852 -1.0966  1.1622
 2603TIP3    H229225   1.922   2.457  16.692 -0.6378  1.0378 -0.7464
 2604TIP3   OH229226   3.434   0.029   3.400 -0.3730  0.1686 -0.3834
 2604TIP3    H129227   3.471  -0.036   3.459  0.9482  0.1429 -1.1843
 2604TIP3    H229228   3.447   0.113   3.445 -0.8641  0.0001  0.0712
 2605TIP3   OH229229   3.975   2.298  12.719 -0.2450 -0.1160 -0.3796
 2605TIP3    H129230   3.932   2.382  12.735  0.0070 -0.4706  2.7337
 2605TIP3    H229231   4.068   2.316  12.733 -0.2516 -1.0134  0.9633
 2606TIP3   OH229232   1.566   1.288   1.693 -0.6758  0.2923 -0.9093
 2606TIP3    H129233   1.480   1.329   1.682  0.4158  2.8017 -0.6478
 2606TIP3    H229234   1.582   1.291   1.787 -0.0115  0.4859 -1.0246
 2607TIP3   OH229235   5.281   1.096   6.426 -0.0461 -0.2066  0.1067
 2607TIP3    H129236   5.246   1.115   6.513 -0.0245 -1.1848  0.3465
 2607TIP3    H229237   5.372   1.068   6.442 -0.9008 -3.3382  0.1549
 2608TIP3   OH229238   4.429   1.113   4.589 -0.5194  0.2546  0.5616
 2608TIP3    H129239   4.391   1.193   4.552 -1.2796  0.8482  2.5102
 2608TIP3    H229240   4.405   1.044   4.527 -2.7421  1.0076  0.5103
 2609TIP3   OH229241   0.538   0.052  12.437 -0.2463  0.4762  0.1691
 2609TIP3    H129242   0.578   0.086  12.357  2.0418 -0.4922  0.8184
 2609TIP3    H229243   0.469  -0.006  12.406 -0.4831  1.3672 -1.0493
 2610TIP3   OH229244   5.798   6.726   1.417 -0.0821  0.0018  0.2445
 2610TIP3    H129245   5.733   6.781   1.459  0.0816  0.5646 -0.2143
 2610TIP3    H229246   5.875   6.731   1.474  0.2518  1.0263 -0.2588
 2611TIP3   OH229247   3.247   0.303   4.015 -0.2014  0.4235  0.4255
 2611TIP3    H129248   3.194   0.365   3.964  1.4434  0.0843 -1.8863
 2611TIP3    H229249   3.330   0.348   4.029  0.7575 -0.9108 -0.6510
 2612TIP3   OH229250   5.507   3.850   3.132 -0.3778 -0.0835  0.0094
 2612TIP3    H129251   5.596   3.839   3.164 -0.2941  0.7974  0.0882
 2612TIP3    H229252   5.509   3.931   3.081 -1.1730  0.0390  0.1556
 2613TIP3   OH229253   5.370   1.734  14.612 -0.2589  0.0858 -0.2509
 2613TIP3    H129254   5.305   1.747  14.682  0.5982  0.4556  0.4944
 2613TIP3    H229255   5.439   1.797  14.632  0.0191  0.1670 -1.4248
 2614TIP3   OH229256   2.342   0.313  10.599 -0.0776 -0.6698  0.0323
 2614TIP3    H129257   2.288   0.377  10.553  1.0446  1.5249  1.5867
 2614TIP3    H229258   2.373   0.254  10.530 -1.0338  0.5303 -1.4928
 2615TIP3   OH229259   0.311   2.728   0.062  0.2426  0.0113  0.1818
 2615TIP3    H129260   0.393   2.708   0.017 -0.6950 -1.2591 -1.0434
 2615TIP3    H229261   0.248   2.745  -0.008 -0.1233  3.0973  1.0913
 2616TIP3   OH229262   4.044   0.046   2.457 -0.4165 -0.2895  0.4069
 2616TIP3    H129263   3.958   0.084   2.445 -0.9327 -1.3490  0.6201
 2616TIP3    H229264   4.046   0.017   2.549  1.1427  2.0507  1.2045
 2617TIP3   OH229265   2.685   2.986   0.935  0.9156  0.3381  0.5339
 2617TIP3    H129266   2.700   3.003   1.028  1.0170 -0.4755  0.6690
 2617TIP3    H229267   2.718   2.897   0.920 -1.0698 -0.3998  0.1944
 2618TIP3   OH229268   1.874   3.753  14.683 -0.2231  0.4837 -0.3884
 2618TIP3    H129269   1.804   3.801  14.638 -1.2548 -0.8992 -0.3035
 2618TIP3    H229270   1.901   3.686  14.620 -3.5046 -3.2450  1.7815
 2619TIP3   OH229271   4.131   0.840   2.705 -0.4940 -0.3666  0.6466
 2619TIP3    H129272   4.062   0.774   2.710  1.5087 -2.6801  0.1854
 2619TIP3    H229273   4.186   0.812   2.632  0.9736  1.3143  1.0168
 2620TIP3   OH229274   1.093   1.515   1.471  0.4270  0.0335 -0.6117
 2620TIP3    H129275   1.025   1.546   1.532  0.0927  1.2866 -1.5736
 2620TIP3    H229276   1.150   1.591   1.459  2.3643 -1.1604  0.6007
 2621TIP3   OH229277   2.420   1.416   0.111 -0.1655 -0.6243  0.0810
 2621TIP3    H129278   2.412   1.494   0.056 -1.9004 -1.8609 -1.5454
 2621TIP3    H229279   2.475   1.444   0.184  0.9793  1.5209 -1.4958
 2622TIP3   OH229280   3.302   4.775   3.990 -0.2372 -0.1925 -0.7693
 2622TIP3    H129281   3.288   4.860   4.031 -0.3770 -0.9195  0.7593
 2622TIP3    H229282   3.330   4.795   3.901 -1.4224  1.4291 -0.8165
 2623TIP3   OH229283   0.136   0.345   1.703 -0.0230  0.5817  0.2974
 2623TIP3    H129284   0.221   0.301   1.706 -0.1854  0.3047  1.1992
 2623TIP3    H229285   0.146   0.422   1.759 -0.5674  0.1579  1.0000
 2624TIP3   OH229286   2.377   1.194   5.864  0.0563 -0.3908  0.1452
 2624TIP3    H129287   2.371   1.202   5.959  0.7367 -1.3211  0.2775
 2624TIP3    H229288   2.313   1.257   5.831  0.0118  0.1487  1.2060
 2625TIP3   OH229289   6.597   5.866  14.200  0.0118  0.2692  0.1904
 2625TIP3    H129290   6.516   5.828  14.233 -0.4140  0.4337 -0.6456
 2625TIP3    H229291   6.592   5.958  14.225 -1.3153  0.9008 -2.0880
 2626TIP3   OH229292   3.153   4.920  12.861 -0.0978 -0.3717  0.0518
 2626TIP3    H129293   3.175   4.831  12.836  0.1344 -0.5189  0.7603
 2626TIP3    H229294   3.097   4.911  12.938  0.1807  0.1010  0.3166
 2627TIP3   OH229295   2.542   1.040   5.691  0.0393  0.3593 -0.1799
 2627TIP3    H129296   2.510   1.090   5.766  0.8642  1.1655 -0.3404
 2627TIP3    H229297   2.562   1.107   5.625  0.8502 -0.2043 -0.5177
 2628TIP3   OH229298   2.816   0.111  11.727  0.2449  0.2170 -0.0806
 2628TIP3    H129299   2.867   0.051  11.673 -0.7651 -0.8647  0.1448
 2628TIP3    H229300   2.726   0.100  11.698 -0.0674  0.9959  0.5462
 2629TIP3   OH229301   4.858   1.028  12.368  0.4089 -0.3175 -0.2795
 2629TIP3    H129302   4.921   1.069  12.427 -0.3212  0.7794 -0.2292
 2629TIP3    H229303   4.811   1.102  12.328 -1.5958 -1.0793  0.5170
 2630TIP3   OH229304   3.877   5.085   2.967  0.0547 -0.4802 -0.0528
 2630TIP3    H129305   3.788   5.060   2.942 -0.0936  0.3206 -0.3541
 2630TIP3    H229306   3.901   5.023   3.036 -1.0416 -0.2109  0.5939
 2631TIP3   OH229307   2.636   3.391   2.930  0.2738 -0.4856 -0.3269
 2631TIP3    H129308   2.550   3.430   2.948 -0.1336 -0.9669 -1.1559
 2631TIP3    H229309   2.693   3.426   2.998 -0.3058  0.7819 -0.4682
 2632TIP3   OH229310   2.855   1.695   6.301  0.3023  0.3962  0.7490
 2632TIP3    H129311   2.935   1.645   6.313 -1.9624 -3.3733  1.6705
 2632TIP3    H229312   2.846   1.746   6.382  0.7299 -0.8113  1.5756
 2633TIP3   OH229313   6.408   3.243  15.138 -0.8091  0.8031 -0.0088
 2633TIP3    H129314   6.366   3.276  15.218 -0.2749  0.6368  0.3443
 2633TIP3    H229315   6.490   3.204  15.168  0.0330  1.9088 -0.7977
 2634TIP3   OH229316   2.717   0.284   1.483  0.1670  0.4171 -0.2881
 2634TIP3    H129317   2.790   0.314   1.537 -1.3414  1.5363  1.2277
 2634TIP3    H229318   2.704   0.355   1.419 -1.0642  1.3960  0.9772
 2635TIP3   OH229319   2.938   6.752  10.134  0.1801 -0.3802  0.1659
 2635TIP3    H129320   2.892   6.780  10.214 -0.2030 -1.7741  0.4590
 2635TIP3    H229321   2.972   6.834  10.097  0.4630  0.2999  1.8024
 2636TIP3   OH229322   5.269   3.702  11.089 -0.2871 -0.3800  0.1123
 2636TIP3    H129323   5.221   3.628  11.050  0.1526  0.0519 -1.3092
 2636TIP3    H229324   5.296   3.670  11.175 -0.6780 -1.6485 -0.2090
 2637TIP3   OH229325   4.596   6.655   1.782  0.6980 -0.2012 -0.2170
 2637TIP3    H129326   4.646   6.729   1.749  2.1068  0.6646  3.4485
 2637TIP3    H229327   4.609   6.586   1.716  2.3435  1.6381 -1.9294
 2638TIP3   OH229328   2.814   1.149   5.281  0.1468 -0.0717  0.4920
 2638TIP3    H129329   2.893   1.197   5.306  0.5341 -1.5442  2.3033
 2638TIP3    H229330   2.745   1.215   5.280  1.1136  0.9730  0.3378
 2639TIP3   OH229331   4.555   5.620  12.052  0.3740 -0.1215  0.2382
 2639TIP3    H129332   4.592   5.540  12.014  0.2220 -0.9892  1.8572
 2639TIP3    H229333   4.591   5.624  12.140  0.6135  1.7806  0.0860
 2640TIP3   OH229334   3.857   4.287  16.622 -0.2091  0.0084 -0.4144
 2640TIP3    H129335   3.950   4.297  16.598 -0.3337  0.6862 -0.6186
 2640TIP3    H229336   3.855   4.301  16.716  0.0848 -1.3314 -0.1825
 2641TIP3   OH229337   4.623   0.154  12.491  0.1357  0.0809 -0.7043
 2641TIP3    H129338   4.571   0.088  12.537  0.3413 -0.3137 -1.0280
 2641TIP3    H229339   4.701   0.164  12.546  2.2627 -3.2260 -2.7801
 2642TIP3   OH229340   4.785   1.076  16.718  0.7096 -0.5947 -0.6110
 2642TIP3    H129341   4.777   1.155  16.665  1.4212 -0.9465 -1.2794
 2642TIP3    H229342   4.865   1.089  16.769 -1.1630  0.7554  2.2143
 2643TIP3   OH229343   5.529   4.605   6.022 -0.5522  0.1723  0.7297
 2643TIP3    H129344   5.618   4.581   6.050 -0.8794 -0.2716  1.4053
 2643TIP3    H229345   5.543   4.671   5.954  0.2986  0.0617  0.7802
 2644TIP3   OH229346   5.232   4.880   2.815  0.3111  0.0616  0.1147
 2644TIP3    H129347   5.310   4.929   2.840  1.1173 -1.1460  0.0669
 2644TIP3    H229348   5.266   4.803   2.768 -0.7481 -1.7335  2.1323
 2645TIP3   OH229349   5.864   1.335  16.362  0.0804  0.2056 -0.2893
 2645TIP3    H129350   5.878   1.321  16.268 -0.4612 -0.6459 -0.2557
 2645TIP3    H229351   5.906   1.419  16.380  0.7688  0.0664 -1.1603
 2646TIP3   OH229352   2.939   3.661   3.266 -0.0046 -0.2324 -0.2880
 2646TIP3    H129353   2.844   3.657   3.274 -0.1958 -0.6915 -2.2786
 2646TIP3    H229354   2.966   3.569   3.261  0.7973 -0.2023  2.1733
 2647TIP3   OH229355   1.410   1.637   0.341 -0.2224 -0.1696 -0.2741
 2647TIP3    H129356   1.458   1.557   0.364  0.8077  0.2591 -0.8396
 2647TIP3    H229357   1.437   1.701   0.407 -1.9207 -0.5640  0.8645
 2648TIP3   OH229358   1.856   0.104   5.743  0.0745 -1.0338 -0.2593
 2648TIP3    H129359   1.936   0.094   5.794 -0.6034 -1.3046  0.7833
 2648TIP3    H229360   1.876   0.063   5.659  1.5398  0.3010 -0.6142
 2649TIP3   OH229361   0.252   3.724   6.415 -0.3016 -0.1414  0.7430
 2649TIP3    H129362   0.209   3.805   6.387  1.9714  0.2231 -2.2615
 2649TIP3    H229363   0.212   3.656   6.361  0.7652 -0.2468  0.0389
 2650TIP3   OH229364   4.794   2.055  16.296 -0.0166  0.0461 -0.1897
 2650TIP3    H129365   4.736   2.014  16.361 -0.8852 -0.9600 -1.5454
 2650TIP3    H229366   4.735   2.104  16.239  0.7975  1.3881  0.0942
 2651TIP3   OH229367   5.975   1.234  14.415  0.1763 -0.3511  0.6298
 2651TIP3    H129368   5.964   1.271  14.328 -0.7350 -2.0522 -0.0146
 2651TIP3    H229369   6.062   1.193  14.412 -1.1170 -3.2575 -0.6612
 2652TIP3   OH229370   6.585   1.685   3.601 -0.2209  0.6883  0.5635
 2652TIP3    H129371   6.513   1.670   3.662 -0.3092  3.2761  1.2474
 2652TIP3    H229372   6.664   1.664   3.651 -0.3725 -2.9382 -0.4394
 2653TIP3   OH229373   5.923   1.279  15.851  0.5688  0.5770 -0.4290
 2653TIP3    H129374   5.861   1.351  15.842  0.1246  0.3338  0.5345
 2653TIP3    H229375   5.937   1.271  15.945 -1.7371 -2.5495 -0.2119
 2654TIP3   OH229376   4.630   2.047   3.266 -0.3661  0.3641 -0.1189
 2654TIP3    H129377   4.692   1.985   3.304 -0.6058 -0.1339 -0.5331
 2654TIP3    H229378   4.568   2.065   3.338 -0.6099 -0.2981 -0.1565
 2655TIP3   OH229379   6.045   1.657   2.070 -0.0910  0.5270  0.2874
 2655TIP3    H129380   5.980   1.728   2.066 -0.2293  0.6444  2.7614
 2655TIP3    H229381   5.996   1.581   2.102  0.1553 -0.6279 -1.9009
 2656TIP3   OH229382   1.065   0.605   3.125  0.6099 -0.0138 -0.2325
 2656TIP3    H129383   1.120   0.527   3.116  0.5237  0.0598 -1.5112
 2656TIP3    H229384   1.113   0.662   3.185  2.4522  0.4827 -2.0868
 2657TIP3   OH229385   6.311   2.503  15.833  0.0377  0.4189 -0.9230
 2657TIP3    H129386   6.358   2.527  15.753 -0.7681  3.4720 -0.6062
 2657TIP3    H229387   6.370   2.529  15.904 -0.9981  1.9074 -0.5514
 2658TIP3   OH229388   2.240   5.546  17.082  0.4638 -0.6394 -0.2847
 2658TIP3    H129389   2.307   5.498  17.131  0.2361  0.4387  1.1254
 2658TIP3    H229390   2.169   5.482  17.070 -0.2212 -0.4713  2.3512
 2659TIP3   OH229391   6.089   0.435   1.890 -0.7862  0.1631  0.3864
 2659TIP3    H129392   6.164   0.397   1.845 -0.5090  1.9427 -0.7680
 2659TIP3    H229393   6.098   0.407   1.980 -0.9885 -2.9924 -0.4728
 2660TIP3   OH229394   5.242   5.604   2.055 -0.4290  0.1907  0.5734
 2660TIP3    H129395   5.240   5.692   2.093 -1.0600 -0.0512  1.1311
 2660TIP3    H229396   5.164   5.601   1.998  0.7466  0.7042 -1.1397
 2661TIP3   OH229397   5.393   3.409  12.388  0.0468  0.2248  0.3663
 2661TIP3    H129398   5.377   3.427  12.481 -0.7463  0.8265  0.1270
 2661TIP3    H229399   5.449   3.332  12.388 -0.9891 -0.5660  1.3268
 2662TIP3   OH229400   0.192   3.386  15.362 -0.1367 -0.0632  0.2302
 2662TIP3    H129401   0.273   3.346  15.393 -0.1997 -0.5965 -0.2843
 2662TIP3    H229402   0.211   3.412  15.272 -0.0806  1.1239  0.5717
 2663TIP3   OH229403   3.337   0.645   3.966 -0.4238  0.3190 -0.6463
 2663TIP3    H129404   3.291   0.724   3.938 -0.3557  0.6448  0.1454
 2663TIP3    H229405   3.326   0.584   3.892 -0.1315  1.1904 -1.4230
 2664TIP3   OH229406   3.874   1.520   4.509  0.1216  0.0058 -0.3451
 2664TIP3    H129407   3.840   1.601   4.471 -1.4358  0.2954  1.5233
 2664TIP3    H229408   3.855   1.453   4.444  0.4528  0.9518 -1.4501
 2665TIP3   OH229409   3.330   0.512   3.736  0.0299  0.5160  0.2667
 2665TIP3    H129410   3.419   0.490   3.709 -0.0570  0.0310  0.3674
 2665TIP3    H229411   3.283   0.528   3.654 -0.0705 -0.3308  0.1499
 2666TIP3   OH229412   2.947   4.661  11.914  0.2543  0.0699  0.1930
 2666TIP3    H129413   2.956   4.657  12.009  0.1359 -1.4039  0.1572
 2666TIP3    H229414   3.031   4.632  11.881 -0.2259 -0.9658 -0.1443
 2667TIP3   OH229415   6.336   6.205   0.252  0.6822 -0.0439 -0.6595
 2667TIP3    H129416   6.415   6.190   0.304  0.2339  1.0024  0.3523
 2667TIP3    H229417   6.362   6.183   0.162  2.2648  0.7216 -0.4262
 2668TIP3   OH229418   6.147   3.458  12.014  0.0431 -0.1186 -0.1411
 2668TIP3    H129419   6.195   3.539  11.999  1.9667 -1.1247  0.3079
 2668TIP3    H229420   6.182   3.397  11.949 -1.3036 -0.6579 -0.3986
 2669TIP3   OH229421   3.324   0.235   1.017 -0.0381  0.4169 -0.2605
 2669TIP3    H129422   3.402   0.220   0.962  0.1241 -2.4576  0.5724
 2669TIP3    H229423   3.250   0.227   0.957  0.2015  2.3126 -0.8951
 2670TIP3   OH229424   0.214   6.381   2.409 -0.8205  0.2999  0.1181
 2670TIP3    H129425   0.226   6.289   2.386 -1.1690 -0.2182  1.8780
 2670TIP3    H229426   0.169   6.419   2.334 -1.9855 -1.3007 -0.0305
 2671TIP3   OH229427   1.963   3.104   2.554  0.0590 -0.1146  0.0870
 2671TIP3    H129428   2.036   3.090   2.494  0.1804  0.9787 -0.0327
 2671TIP3    H229429   1.886   3.104   2.497  0.3667  3.5829 -0.5498
 2672TIP3   OH229430   0.322   0.650  15.484  0.2779  0.5684 -0.3544
 2672TIP3    H129431   0.382   0.676  15.414  0.6938  1.9983  0.4921
 2672TIP3    H229432   0.379   0.611  15.550 -0.1931 -1.4119 -1.0540
 2673TIP3   OH229433   0.435   4.250   2.651 -0.0353  0.5444 -0.0307
 2673TIP3    H129434   0.484   4.332   2.659 -0.5493  0.8042  0.4843
 2673TIP3    H229435   0.343   4.276   2.657 -0.2100 -0.0461 -0.0919
 2674TIP3   OH229436   3.799   2.239   2.927  0.1809  0.2141  0.5769
 2674TIP3    H129437   3.866   2.173   2.911 -1.1212 -1.5355  1.9135
 2674TIP3    H229438   3.749   2.243   2.846 -0.1842 -1.0340  0.7208
 2675TIP3   OH229439   4.828   3.817  13.244  0.3065 -0.0528  0.3534
 2675TIP3    H129440   4.811   3.818  13.338 -1.2457 -1.1037  0.1131
 2675TIP3    H229441   4.885   3.741  13.231 -2.7006 -2.4667  0.0365
 2676TIP3   OH229442   1.321   3.568  11.200  0.0697 -0.4782 -0.2247
 2676TIP3    H129443   1.268   3.644  11.177  0.5121 -0.0954 -0.0108
 2676TIP3    H229444   1.412   3.597  11.186  0.2753 -0.7131  0.5749
 2677TIP3   OH229445   4.025   3.539   3.066  0.6048  0.1896 -0.1865
 2677TIP3    H129446   4.074   3.483   3.126 -1.5079 -0.1018  1.3651
 2677TIP3    H229447   4.013   3.621   3.114 -0.8610  0.0629 -0.3123
 2678TIP3   OH229448   3.789   2.292  12.052  0.1035  0.3091  0.2922
 2678TIP3    H129449   3.771   2.263  12.141 -0.9985 -2.1956 -0.6672
 2678TIP3    H229450   3.869   2.246  12.027  1.6838  2.6682  0.6244
 2679TIP3   OH229451   6.351   5.494  11.287 -0.0352 -0.6230 -0.1457
 2679TIP3    H129452   6.413   5.441  11.236  0.2089 -0.0985 -0.4054
 2679TIP3    H229453   6.312   5.553  11.223  0.1352 -0.0830  0.2408
 2680TIP3   OH229454   5.520   5.334  15.130 -0.1713 -0.2666  0.4570
 2680TIP3    H129455   5.478   5.339  15.215 -0.5042 -1.8078  0.4108
 2680TIP3    H229456   5.466   5.274  15.079 -0.5443  1.3914 -1.2034
 2681TIP3   OH229457   3.708   5.592   0.262  0.4506 -0.2823  0.7841
 2681TIP3    H129458   3.765   5.551   0.328  2.7704  0.2990 -0.7261
 2681TIP3    H229459   3.751   5.676   0.243 -1.3933  0.5540  0.1339
 2682TIP3   OH229460   5.702   5.160   0.434 -0.2200 -0.0154  0.5751
 2682TIP3    H129461   5.645   5.237   0.426  0.1097  0.1329 -0.7245
 2682TIP3    H229462   5.791   5.196   0.432 -0.0538 -0.2973  1.8989
 2683TIP3   OH229463   0.367   2.980   1.807 -0.3163 -0.1929  0.2381
 2683TIP3    H129464   0.447   2.969   1.858 -0.2510  2.7138  0.9220
 2683TIP3    H229465   0.298   2.993   1.873 -0.8849 -0.0483 -0.3759
 2684TIP3   OH229466   0.390   5.237  14.672 -0.2263  0.5924 -0.1103
 2684TIP3    H129467   0.355   5.293  14.603 -1.9585  1.4742  1.3864
 2684TIP3    H229468   0.443   5.296  14.726 -0.9333  0.5057  0.7022
 2685TIP3   OH229469   6.359   4.303   4.287 -0.3190  0.4295  0.3152
 2685TIP3    H129470   6.454   4.295   4.271 -0.1936 -0.9790  1.5537
 2685TIP3    H229471   6.345   4.396   4.300  1.4319  0.4274  2.9805
 2686TIP3   OH229472   5.219   0.704   2.289  0.6725  0.2077  0.0449
 2686TIP3    H129473   5.220   0.694   2.194 -1.2368 -2.9534  0.2252
 2686TIP3    H229474   5.223   0.615   2.323  0.8017  1.2190  2.9473
 2687TIP3   OH229475   4.934   0.100   5.659 -0.4917 -0.1707  0.2283
 2687TIP3    H129476   4.924   0.092   5.754  0.3984 -1.0617  0.2686
 2687TIP3    H229477   4.845   0.101   5.626 -0.8071 -0.5764  1.0291
 2688TIP3   OH229478   5.894   0.903  13.164 -0.2290 -0.5576 -0.1996
 2688TIP3    H129479   5.809   0.912  13.122  0.4705 -0.0063 -1.5624
 2688TIP3    H229480   5.907   0.986  13.210  0.3813  0.1699 -1.6090
 2689TIP3   OH229481   3.323   4.958  13.115 -0.0610  0.7331 -0.3532
 2689TIP3    H129482   3.362   4.970  13.202  1.3001 -0.0283 -0.8326
 2689TIP3    H229483   3.230   4.978  13.127 -0.0698 -0.2297  1.4706
 2690TIP3   OH229484   5.040   0.161   1.676 -0.0907 -0.3364  0.2174
 2690TIP3    H129485   5.020   0.087   1.734  0.2653  0.2654  1.1435
 2690TIP3    H229486   5.066   0.231   1.736 -0.3730  0.5258 -0.6430
 2691TIP3   OH229487   5.345   5.749  16.548 -0.7511  0.1794  0.3846
 2691TIP3    H129488   5.297   5.739  16.466  0.9439 -0.7669 -0.5354
 2691TIP3    H229489   5.353   5.661  16.583  1.8917 -0.0115 -0.4729
 2692TIP3   OH229490   6.692   4.502  14.623 -0.6728  0.9059  0.1796
 2692TIP3    H129491   6.724   4.415  14.646 -1.1362  0.5749 -0.4080
 2692TIP3    H229492   6.764   4.543  14.576 -1.0209  0.2176 -1.0062
 2693TIP3   OH229493   0.863   4.262   2.253 -0.8936 -0.2696 -0.1217
 2693TIP3    H129494   0.910   4.246   2.171  0.7702  0.2358  0.6876
 2693TIP3    H229495   0.888   4.190   2.310  0.3142  0.8932  0.8852
 2694TIP3   OH229496   2.015   1.685   5.287  0.1474  0.1864 -0.2781
 2694TIP3    H129497   2.061   1.768   5.300  0.1810  0.0254  0.7096
 2694TIP3    H229498   1.937   1.691   5.342 -0.6743  0.1788 -1.4061
 2695TIP3   OH229499   2.726   0.548   0.809  0.0460  0.2819  0.0851
 2695TIP3    H129500   2.713   0.455   0.791  1.5167 -0.0009  0.3388
 2695TIP3    H229501   2.678   0.564   0.890  1.1864 -0.6968  0.9968
 2696TIP3   OH229502   6.653   0.958  14.077  0.4355  0.4620  0.0737
 2696TIP3    H129503   6.571   0.956  14.126  0.5053 -0.7824  0.1608
 2696TIP3    H229504   6.714   0.906  14.129  1.3844  1.6006  0.1509
 2697TIP3   OH229505   3.898   3.384  16.191  0.0005  0.0187  0.1693
 2697TIP3    H129506   3.845   3.314  16.154 -0.0414  0.6441 -0.9852
 2697TIP3    H229507   3.955   3.412  16.120  4.5217 -2.9647  2.1479
 2698TIP3   OH229508   4.522   4.217   3.579  0.2661  0.1242  0.0782
 2698TIP3    H129509   4.592   4.282   3.591 -0.6637  1.1835 -0.0807
 2698TIP3    H229510   4.528   4.193   3.487  0.0148  0.7010 -0.0919
 2699TIP3   OH229511   3.430   3.717   3.727  0.1326 -0.3356  0.3383
 2699TIP3    H129512   3.469   3.696   3.811 -0.1409  1.9935  1.1351
 2699TIP3    H229513   3.347   3.670   3.726  0.6104 -1.2110  0.8857
 2700TIP3   OH229514   4.705   1.034   4.078  0.7656  0.6341 -0.4562
 2700TIP3    H129515   4.771   1.013   4.012 -0.4755  0.6820 -1.7716
 2700TIP3    H229516   4.738   0.996   4.159  1.6414 -0.7452 -1.4280
 2701TIP3   OH229517   2.109   1.651   3.162  0.2146  0.2801  0.0654
 2701TIP3    H129518   2.071   1.608   3.085 -1.7669  0.7841  0.6986
 2701TIP3    H229519   2.200   1.667   3.138  0.1668 -1.3410 -1.4105
 2702TIP3   OH229520   3.751   5.584  14.979  0.5762  0.1515 -0.6690
 2702TIP3    H129521   3.813   5.605  14.909  0.6361  0.2738 -0.5794
 2702TIP3    H229522   3.680   5.536  14.935  1.7398 -1.9038 -0.4565
 2703TIP3   OH229523   2.631   5.808  14.773 -0.0645 -0.2749 -0.1843
 2703TIP3    H129524   2.654   5.735  14.716  1.0321  0.3903 -0.6237
 2703TIP3    H229525   2.585   5.768  14.847 -1.5876 -1.1507 -1.5435
 2704TIP3   OH229526   4.495   4.378  16.228 -0.1892 -0.2555 -0.1161
 2704TIP3    H129527   4.583   4.403  16.199  0.2727 -2.5898 -0.9149
 2704TIP3    H229528   4.444   4.372  16.147 -0.5511 -0.8626  0.1522
 2705TIP3   OH229529   5.180   0.463  17.152  0.1899  0.3829 -0.1903
 2705TIP3    H129530   5.136   0.548  17.150 -0.0961  0.2361 -0.1853
 2705TIP3    H229531   5.135   0.410  17.086 -0.9247 -0.3872  1.1264
 2706TIP3   OH229532   5.636   4.467  12.765  0.2608  0.4763 -0.6164
 2706TIP3    H129533   5.586   4.542  12.797 -1.0328 -1.0685  1.2515
 2706TIP3    H229534   5.575   4.420  12.710  0.4185 -0.1924 -0.2297
 2707TIP3   OH229535   3.603   3.602   1.765 -0.1082  0.2135  0.0903
 2707TIP3    H129536   3.671   3.589   1.699 -0.6982  0.7054 -0.6285
 2707TIP3    H229537   3.575   3.693   1.753 -0.8763  0.0213  0.3863
 2708TIP3   OH229538   4.613   1.635   3.809 -0.5666  0.0850 -0.2658
 2708TIP3    H129539   4.577   1.617   3.896 -0.4785 -0.4233 -0.3301
 2708TIP3    H229540   4.696   1.678   3.825 -0.5103 -0.0865 -0.0951
 2709TIP3   OH229541   1.352   3.427   1.893  0.4524  0.1159 -0.4002
 2709TIP3    H129542   1.409   3.349   1.889  0.3497 -0.0763  1.1293
 2709TIP3    H229543   1.396   3.485   1.955 -1.3578 -0.3746  1.4709
 2710TIP3   OH229544   6.502   4.521  14.838 -0.6109  0.5403  0.0745
 2710TIP3    H129545   6.459   4.436  14.832  0.0796  0.0151  1.7780
 2710TIP3    H229546   6.593   4.504  14.815 -0.5412  0.8936  0.0757
 2711TIP3   OH229547   4.743   0.452   6.284  0.3123 -0.0099 -0.0159
 2711TIP3    H129548   4.726   0.545   6.294  1.3187  0.3531 -1.2915
 2711TIP3    H229549   4.839   0.445   6.282  0.3505 -1.4006  2.5581
 2712TIP3   OH229550   2.091   2.098   2.522 -0.2659  0.4536  0.2426
 2712TIP3    H129551   2.051   2.149   2.593 -0.8062  1.2751 -0.6306
 2712TIP3    H229552   2.030   2.108   2.449 -0.2582 -1.2637 -0.0225
 2713TIP3   OH229553   2.447   3.646   1.462  0.3277  0.3598 -0.0079
 2713TIP3    H129554   2.485   3.650   1.550 -1.2033  3.8915  0.6773
 2713TIP3    H229555   2.508   3.697   1.408  0.5400 -0.6075 -0.6926
 2714TIP3   OH229556   3.098   6.138   4.581  0.7006  0.1230  0.2309
 2714TIP3    H129557   3.106   6.217   4.528  0.8796  1.1673  1.7604
 2714TIP3    H229558   3.135   6.161   4.665 -1.3674 -0.8179  1.4913
 2715TIP3   OH229559   2.424   4.668   0.075 -0.9272 -0.5130 -0.6918
 2715TIP3    H129560   2.436   4.594   0.135 -0.0774 -0.0318 -0.2484
 2715TIP3    H229561   2.475   4.645  -0.002 -0.3586 -0.2260 -0.4029
 2716TIP3   OH229562   3.429   5.576  15.065  0.0761  0.7847  0.1169
 2716TIP3    H129563   3.479   5.554  15.144  0.9601  0.3628 -0.5508
 2716TIP3    H229564   3.384   5.658  15.088 -1.1189 -0.2318  1.6809
 2717TIP3   OH229565   3.431   6.422   6.317 -0.0826 -0.4338  0.0721
 2717TIP3    H129566   3.424   6.327   6.320  2.0427 -0.6181  0.1836
 2717TIP3    H229567   3.517   6.440   6.280 -0.1890  1.4488  0.5943
 2718TIP3   OH229568   2.605   5.938   0.895  0.0022 -0.2178 -0.4479
 2718TIP3    H129569   2.554   5.880   0.839  1.2724  0.1263 -2.0815
 2718TIP3    H229570   2.599   5.900   0.982 -1.4386 -1.2248 -0.9477
 2719TIP3   OH229571   4.271   2.441   4.915 -0.2342  0.2918  0.0400
 2719TIP3    H129572   4.276   2.401   5.002 -0.0439 -1.1309 -0.5944
 2719TIP3    H229573   4.311   2.376   4.856 -0.1779  1.3057 -1.0889
 2720TIP3   OH229574   0.684   5.081   5.971  0.7105 -0.2892  0.6396
 2720TIP3    H129575   0.636   5.020   6.027 -0.1675 -0.2020 -0.0102
 2720TIP3    H229576   0.677   5.165   6.016  1.2337 -0.4919  1.1204
 2721TIP3   OH229577   1.928   4.138  15.869 -0.2482  1.1265  0.1628
 2721TIP3    H129578   1.927   4.187  15.952  0.5711  0.7068  0.4292
 2721TIP3    H229579   1.837   4.111  15.857 -0.0259 -0.9074  2.2101
 2722TIP3   OH229580   5.210   5.098   4.230  0.4083 -0.0233 -0.5153
 2722TIP3    H129581   5.198   5.164   4.161 -0.5729 -1.3287 -1.6320
 2722TIP3    H229582   5.209   5.148   4.311 -1.2472  1.2497 -1.2714
 2723TIP3   OH229583   2.019   6.116  11.671  0.1929 -0.0563  0.3376
 2723TIP3    H129584   2.101   6.154  11.703  0.3566  0.7203 -0.9388
 2723TIP3    H229585   1.972   6.190  11.631 -1.1452 -0.4825  1.0525
 2724TIP3   OH229586   4.957   6.685   1.102  0.2521 -0.4625 -0.2967
 2724TIP3    H129587   4.997   6.672   1.016  0.1010 -0.4288 -0.3738
 2724TIP3    H229588   5.025   6.660   1.165  1.0231  1.2895 -0.3761
 2725TIP3   OH229589   1.167   4.615  11.606 -0.5461 -0.7247  0.5751
 2725TIP3    H129590   1.197   4.526  11.628 -0.4218 -0.2665  2.4489
 2725TIP3    H229591   1.112   4.640  11.680  0.3000  1.1675  0.6267
 2726TIP3   OH229592   2.575   6.461  12.043 -0.6994  0.3598 -0.1990
 2726TIP3    H129593   2.492   6.500  12.072 -0.7114  0.1075  0.1102
 2726TIP3    H229594   2.571   6.371  12.074 -0.6473  0.1213 -0.8675
 2727TIP3   OH229595   1.322   3.298   2.217  0.0209 -0.6475  0.6468
 2727TIP3    H129596   1.291   3.294   2.126  1.0743 -1.5226  0.3124
 2727TIP3    H229597   1.252   3.344   2.264 -0.1394  0.6171 -0.7670
 2728TIP3   OH229598   5.025   5.701   2.772 -0.2382 -0.1607  0.3388
 2728TIP3    H129599   5.056   5.637   2.836 -1.7881 -0.9605  0.3319
 2728TIP3    H229600   5.100   5.716   2.715  0.5988 -0.8340  1.2309
 2729TIP3   OH229601   5.749   5.305  11.961 -0.4443  0.2113 -0.3285
 2729TIP3    H129602   5.838   5.326  11.990 -0.4061 -2.1306  1.5229
 2729TIP3    H229603   5.758   5.294  11.866  0.8649  1.6200 -0.4157
 2730TIP3   OH229604   2.644   2.832  11.307  0.4614  0.0257 -0.0931
 2730TIP3    H129605   2.608   2.916  11.280 -0.2693  0.2514  1.4682
 2730TIP3    H229606   2.594   2.808  11.385 -0.1425 -2.4475 -1.1646
 2731TIP3   OH229607   0.664   0.759  13.086  0.3323 -0.4816  0.4195
 2731TIP3    H129608   0.637   0.691  13.147  1.8161  0.2331  1.9329
 2731TIP3    H229609   0.727   0.716  13.028  2.2246 -0.1561  2.1592
 2732TIP3   OH229610   1.428   2.950  16.269 -0.4416 -0.2043  0.0686
 2732TIP3    H129611   1.334   2.954  16.253 -0.5412  0.3150  0.7531
 2732TIP3    H229612   1.439   2.883  16.336 -0.2244 -0.9074 -0.6487
 2733TIP3   OH229613   2.819   6.018  16.616  0.2358 -0.3058  0.1096
 2733TIP3    H129614   2.733   6.060  16.610  0.2744 -0.3539 -0.9449
 2733TIP3    H229615   2.808   5.934  16.571  0.3657 -1.1260  1.5345
 2734TIP3   OH229616   0.315   2.682   6.071 -0.1509  0.0232  0.3812
 2734TIP3    H129617   0.380   2.612   6.068 -0.3716 -0.1771  0.1315
 2734TIP3    H229618   0.279   2.684   5.982 -0.6279 -0.0140  0.5699
 2735TIP3   OH229619   1.854   5.923   2.963  0.3702 -0.2695  0.4026
 2735TIP3    H129620   1.806   5.893   2.886  1.8001 -2.3432  0.2397
 2735TIP3    H229621   1.828   6.015   2.973 -3.3179 -1.1641  0.1972
 2736TIP3   OH229622   2.037   2.202   4.529 -0.2071 -0.3673  0.3993
 2736TIP3    H129623   2.020   2.215   4.436 -0.7993  0.9850  0.6739
 2736TIP3    H229624   1.951   2.198   4.569  0.0487  0.6836  1.0852
 2737TIP3   OH229625   6.466   0.222   0.928 -0.2995 -0.2318  0.6795
 2737TIP3    H129626   6.521   0.199   1.003  0.5487 -0.6794 -0.0654
 2737TIP3    H229627   6.376   0.214   0.961  0.0620  0.1064  1.7926
 2738TIP3   OH229628   4.514   4.821  15.814 -0.1558  0.4196  0.0203
 2738TIP3    H129629   4.519   4.915  15.828 -1.0893  0.5916 -0.7067
 2738TIP3    H229630   4.534   4.783  15.900 -2.9216  1.3470  1.1810
 2739TIP3   OH229631   0.626   5.414  16.109 -0.0946  0.2529  0.2681
 2739TIP3    H129632   0.677   5.361  16.047 -2.0596 -0.0787 -1.1632
 2739TIP3    H229633   0.552   5.358  16.132 -1.4055  1.7789 -0.0692
 2740TIP3   OH229634   5.291   6.391  16.189  0.7604 -0.5342 -0.0187
 2740TIP3    H129635   5.229   6.384  16.261  0.6467  0.7647  0.0297
 2740TIP3    H229636   5.372   6.422  16.230  0.6506  0.3660 -0.4546
 2741TIP3   OH229637   6.589   1.429  15.012 -0.3707  0.2387 -0.0609
 2741TIP3    H129638   6.509   1.482  15.003  0.4555  1.2000 -3.1788
 2741TIP3    H229639   6.660   1.494  15.008  0.6477 -0.6417  2.1944
 2742TIP3   OH229640   0.926   1.096  17.222 -0.3544  0.4172 -0.1351
 2742TIP3    H129641   0.893   1.007  17.210 -1.0362  0.4932  1.1178
 2742TIP3    H229642   0.848   1.150  17.234  0.1248  0.8653  1.1136
 2743TIP3   OH229643   4.823   4.360  13.977 -0.3341 -0.4295  0.1532
 2743TIP3    H129644   4.893   4.295  13.979 -0.0389 -0.1023  1.2935
 2743TIP3    H229645   4.815   4.389  14.068  0.4582  2.1100 -0.5026
 2744TIP3   OH229646   4.410   5.886  12.712  0.0515 -0.4235  0.1501
 2744TIP3    H129647   4.447   5.950  12.773  0.8919 -1.0694  0.3481
 2744TIP3    H229648   4.316   5.901  12.715  0.2392  0.8983  0.0772
 2745TIP3   OH229649   3.114   1.477   5.202  0.0451 -0.2770 -0.0850
 2745TIP3    H129650   3.173   1.550   5.216  0.3284 -0.6116  0.5085
 2745TIP3    H229651   3.035   1.516   5.165 -0.1672  0.4604  1.1084
 2746TIP3   OH229652   1.405   0.658  13.954  0.1012  0.2729 -0.1203
 2746TIP3    H129653   1.329   0.665  13.896  1.3820  0.9239 -1.7887
 2746TIP3    H229654   1.428   0.565  13.953 -0.5355  0.1058  0.2463
 2747TIP3   OH229655   5.936   5.807  11.478 -0.0408 -0.3050  0.4548
 2747TIP3    H129656   5.890   5.840  11.400  1.5822 -2.2512 -1.4680
 2747TIP3    H229657   6.014   5.763  11.443  1.0699 -0.7935  3.2597
 2748TIP3   OH229658   1.817   1.490   3.885 -0.3540 -0.1152  0.1041
 2748TIP3    H129659   1.797   1.457   3.797 -0.0117 -1.6887  0.5794
 2748TIP3    H229660   1.901   1.535   3.875 -0.4874  0.0196 -0.4437
 2749TIP3   OH229661   6.079   4.434   4.232  0.5142  0.4158 -0.5069
 2749TIP3    H129662   6.009   4.487   4.270  0.4753  0.3508 -0.4878
 2749TIP3    H229663   6.100   4.370   4.300  0.1069 -0.0122 -0.7848
 2750TIP3   OH229664   0.353   1.414  16.522 -0.6694 -0.5840  0.7471
 2750TIP3    H129665   0.442   1.449  16.525 -0.6816 -0.3621 -0.8176
 2750TIP3    H229666   0.314   1.454  16.444 -2.0705 -0.8461  1.2837
 2751TIP3   OH229667   0.282   5.690   0.231  0.5329 -0.0372 -0.2519
 2751TIP3    H129668   0.204   5.642   0.259  0.1919  0.8012  0.2719
 2751TIP3    H229669   0.276   5.774   0.277  0.9868  0.6068 -1.3287
 2752TIP3   OH229670   3.934   0.577   4.088  0.3740 -0.5799 -0.6439
 2752TIP3    H129671   3.857   0.620   4.052  0.0381 -1.8897 -1.5729
 2752TIP3    H229672   3.904   0.488   4.109  0.8340 -0.2139  1.9131
 2753TIP3   OH229673   5.953   6.607   2.135  0.1050  0.0955 -0.8051
 2753TIP3    H129674   5.983   6.638   2.049  0.1061  1.2877 -0.3873
 2753TIP3    H229675   5.860   6.588   2.122 -0.1785  1.3689 -0.8036
 2754TIP3   OH229676   1.450   5.178   3.152 -0.1849  0.1347 -0.0745
 2754TIP3    H129677   1.456   5.083   3.165  1.9501  0.1865 -0.2015
 2754TIP3    H229678   1.449   5.214   3.241  0.8876  0.0315 -0.0066
 2755TIP3   OH229679   0.511   6.547   4.689  0.2773 -0.0581 -0.0226
 2755TIP3    H129680   0.504   6.456   4.716 -0.7347 -0.4852 -1.5952
 2755TIP3    H229681   0.461   6.595   4.754 -0.2005 -0.7789  0.1517
 2756TIP3   OH229682   1.914   0.837   5.596 -0.1788  0.0327 -0.4702
 2756TIP3    H129683   1.875   0.885   5.524  2.7171  1.2734 -1.3936
 2756TIP3    H229684   1.973   0.774   5.554  0.0205 -0.6536  0.7898
 2757TIP3   OH229685   0.306   2.643  12.930  0.3404 -0.4488  0.1917
 2757TIP3    H129686   0.250   2.697  12.985  0.3158 -0.6844  0.3949
 2757TIP3    H229687   0.270   2.554  12.937 -0.2267 -0.3342 -0.9136
 2758TIP3   OH229688   0.716   3.867   5.476 -0.3798 -0.5153  0.0803
 2758TIP3    H129689   0.732   3.958   5.501 -1.0704 -0.1572 -0.7431
 2758TIP3    H229690   0.632   3.845   5.516  0.0501 -0.9852  0.7515
 2759TIP3   OH229691   3.488   3.471  12.400  0.3399 -0.5726  0.5337
 2759TIP3    H129692   3.479   3.412  12.326  0.3220  0.4445 -0.3058
 2759TIP3    H229693   3.577   3.507  12.392  0.3609 -0.5046  1.0367
 2760TIP3   OH229694   5.945   4.200   1.933 -0.6532 -0.2223  0.4665
 2760TIP3    H129695   5.920   4.289   1.956  1.9384  0.7296 -0.0680
 2760TIP3    H229696   5.943   4.152   2.016 -1.7412  0.3950  0.8115
 2761TIP3   OH229697   2.483   1.243   1.194  0.0007  0.4856 -0.5096
 2761TIP3    H129698   2.472   1.322   1.248 -0.1001  1.7561 -2.3063
 2761TIP3    H229699   2.575   1.219   1.205 -0.5768 -0.8927  2.2592
 2762TIP3   OH229700   4.379   0.379   5.365  0.0722  0.1007 -0.1024
 2762TIP3    H129701   4.460   0.417   5.398  0.2108 -1.3438  1.3489
 2762TIP3    H229702   4.407   0.305   5.310 -0.2311  1.1534 -1.7532
 2763TIP3   OH229703   6.013   5.782   3.957  0.1912  0.0841 -0.4753
 2763TIP3    H129704   5.931   5.734   3.943  0.2719  0.2932 -1.7779
 2763TIP3    H229705   6.081   5.715   3.957  0.2866  0.1471 -2.1262
 2764TIP3   OH229706   0.705   2.316  15.243  0.0096  0.3245 -0.7640
 2764TIP3    H129707   0.753   2.252  15.296 -0.5138  1.0920  0.6690
 2764TIP3    H229708   0.668   2.264  15.171 -0.8823 -1.1318  0.6757
 2765TIP3   OH229709   5.538   3.257  16.393 -0.3827 -0.5911 -0.1589
 2765TIP3    H129710   5.501   3.345  16.395 -0.6370 -0.6884 -0.4785
 2765TIP3    H229711   5.462   3.199  16.388 -0.1965 -0.7703 -1.3800
 2766TIP3   OH229712   6.596   6.476   6.159 -0.3398  0.2141  0.6763
 2766TIP3    H129713   6.518   6.421   6.161  0.6197 -1.2077  0.7897
 2766TIP3    H229714   6.603   6.505   6.068 -1.0569  0.4450  0.6918
 2767TIP3   OH229715   5.516   4.806   3.084 -0.0352  0.6745 -0.0101
 2767TIP3    H129716   5.495   4.731   3.140  0.0189  1.8170  1.6178
 2767TIP3    H229717   5.542   4.875   3.145  1.5074  1.5377 -1.5449
 2768TIP3   OH229718   2.189   4.202   4.213 -0.2422 -0.1970  0.3752
 2768TIP3    H129719   2.095   4.197   4.227 -0.3562  0.4104 -0.1314
 2768TIP3    H229720   2.201   4.172   4.122  0.4297 -3.7159  1.4660
 2769TIP3   OH229721   1.608   1.758  16.735  0.2609  0.6740 -0.3840
 2769TIP3    H129722   1.662   1.822  16.781  0.2997 -0.1760  0.8219
 2769TIP3    H229723   1.524   1.761  16.781 -0.1001  0.6736 -1.0468
 2770TIP3   OH229724   4.200   5.298  11.468 -0.1870  0.0147 -0.1726
 2770TIP3    H129725   4.200   5.351  11.547 -0.4607  0.9423 -0.7712
 2770TIP3    H229726   4.289   5.264  11.461  0.5487  1.9408 -0.7577
 2771TIP3   OH229727   5.663   0.944   1.916  0.2569 -0.2108 -0.3483
 2771TIP3    H129728   5.596   0.960   1.849 -1.0686 -1.0012  0.7456
 2771TIP3    H229729   5.730   0.892   1.871 -0.1352  0.0977 -1.3107
 2772TIP3   OH229730   3.103   6.408  12.641  0.3791 -0.3973  0.4023
 2772TIP3    H129731   3.130   6.338  12.582  1.3382  1.1568 -1.0860
 2772TIP3    H229732   3.036   6.456  12.593  0.5456  0.3845  0.9258
 2773TIP3   OH229733   1.291   2.941  11.687 -0.0786  0.1417 -0.3097
 2773TIP3    H129734   1.308   2.938  11.781  0.7165  1.1152 -0.4044
 2773TIP3    H229735   1.300   2.850  11.658  1.2541  0.0548  0.3010
 2774TIP3   OH229736   1.156   4.252   5.409 -0.0638  0.7754  0.5548
 2774TIP3    H129737   1.097   4.327   5.417 -1.2071  0.1238 -1.2042
 2774TIP3    H229738   1.100   4.181   5.378  1.6722  0.2257 -1.5952
 2775TIP3   OH229739   2.912   2.737   3.779 -0.5026  0.4259 -0.1455
 2775TIP3    H129740   2.928   2.830   3.763  0.9127  0.6548  2.2204
 2775TIP3    H229741   2.832   2.718   3.729 -0.9485  2.9380 -0.5350
 2776TIP3   OH229742   3.856   1.002  16.425  0.0743 -0.1431  0.0790
 2776TIP3    H129743   3.853   0.978  16.518  0.1012  0.8502  0.3541
 2776TIP3    H229744   3.771   1.044  16.409  0.3736  0.4016 -0.1258
 2777TIP3   OH229745   0.447   2.258   2.809 -0.2299  0.2364 -0.0119
 2777TIP3    H129746   0.500   2.322   2.856 -0.1937  0.1255  0.0980
 2777TIP3    H229747   0.357   2.276   2.837 -0.2216  0.2500  0.0059
 2778TIP3   OH229748   6.397   3.200  14.023 -0.0487 -0.0696 -0.1677
 2778TIP3    H129749   6.414   3.125  14.080  2.3298  0.0922 -0.5578
 2778TIP3    H229750   6.388   3.274  14.082  0.1485 -0.2669  0.1119
 2779TIP3   OH229751   3.833   2.819   1.982 -0.2116  0.1157  0.1730
 2779TIP3    H129752   3.745   2.852   2.001 -0.2096  0.4472 -0.3853
 2779TIP3    H229753   3.839   2.821   1.887  1.0743  1.8906  0.2539
 2780TIP3   OH229754   3.190   5.077  14.572  0.2293  0.1977  0.4490
 2780TIP3    H129755   3.130   5.132  14.623 -0.2086 -0.1594  0.3297
 2780TIP3    H229756   3.230   5.019  14.637 -1.5601 -1.3999  0.2313
 2781TIP3   OH229757   5.402   6.339   1.366  0.0288  0.2539 -0.0166
 2781TIP3    H129758   5.455   6.402   1.413 -1.0295  1.1860 -0.0405
 2781TIP3    H229759   5.447   6.328   1.282  2.2666 -1.8821  1.3311
 2782TIP3   OH229760   3.303   2.489  14.075  0.4495 -0.4614 -0.0272
 2782TIP3    H129761   3.286   2.583  14.068  1.7928 -0.0395  1.6864
 2782TIP3    H229762   3.218   2.448  14.063  0.0289  0.8696 -2.0950
 2783TIP3   OH229763   3.566   1.215  15.093  0.1452 -0.5713 -0.0683
 2783TIP3    H129764   3.551   1.284  15.157 -0.2202 -0.8138  0.1071
 2783TIP3    H229765   3.504   1.234  15.022  0.1844 -0.6046 -0.1121
 2784TIP3   OH229766   3.174   1.870  14.742  0.6291  0.2309  0.5626
 2784TIP3    H129767   3.263   1.848  14.772  0.9772  1.8391  0.7971
 2784TIP3    H229768   3.171   1.966  14.745 -1.9678  0.1823  3.0408
 2785TIP3   OH229769   2.038   5.644  12.453 -0.6267 -0.4607  0.2407
 2785TIP3    H129770   2.052   5.737  12.469 -0.2621 -0.4647 -0.0174
 2785TIP3    H229771   2.027   5.605  12.539  0.0559 -0.3010  0.4082
 2786TIP3   OH229772   4.559   0.274  14.722  0.7356  0.2600  0.1713
 2786TIP3    H129773   4.528   0.190  14.757 -0.7338  0.5758 -0.2891
 2786TIP3    H229774   4.611   0.251  14.645  1.0724 -0.2656  0.5493
 2787TIP3   OH229775   3.033   3.301   4.365 -0.2136  0.4266  0.0132
 2787TIP3    H129776   3.090   3.262   4.431  0.6964 -1.0741 -1.5863
 2787TIP3    H229777   3.036   3.395   4.383  0.8979  0.1480  1.4155
 2788TIP3   OH229778   5.726   3.358   2.549 -0.0244 -0.3475 -0.6521
 2788TIP3    H129779   5.644   3.407   2.539 -0.8449 -1.8281 -1.6663
 2788TIP3    H229780   5.734   3.343   2.643  0.3718  1.8584 -0.2804
 2789TIP3   OH229781   3.203   4.776   1.792  0.2693  0.8046 -0.6572
 2789TIP3    H129782   3.213   4.746   1.882  0.4384 -2.1263 -1.5476
 2789TIP3    H229783   3.262   4.851   1.785  0.4988  0.8975  1.5537
 2790TIP3   OH229784   3.200   0.101   2.491  0.2601 -0.1362 -0.2247
 2790TIP3    H129785   3.144   0.171   2.524 -0.3854  0.2970 -2.0956
 2790TIP3    H229786   3.140   0.036   2.456  0.8252 -2.0235  2.0481
 2791TIP3   OH229787   0.013   4.914  16.782 -0.2378 -0.7160  0.0189
 2791TIP3    H129788   0.068   4.881  16.853  0.4850  1.3195  0.4772
 2791TIP3    H229789   0.075   4.946  16.716 -0.8077  1.2666  0.3729
 2792TIP3   OH229790   4.381   3.646  15.736  0.2541  0.2191  0.0357
 2792TIP3    H129791   4.335   3.694  15.804 -1.6356  0.3494 -1.2562
 2792TIP3    H229792   4.435   3.712  15.693  1.6588  0.0817  1.5149
 2793TIP3   OH229793   0.291   0.360   2.013 -0.2860 -0.5965 -0.2634
 2793TIP3    H129794   0.330   0.293   1.957  2.6209 -1.0548  2.0552
 2793TIP3    H229795   0.256   0.310   2.088 -2.0878  0.1769 -0.5339
 2794TIP3   OH229796   5.332   2.772   5.973  0.1624 -0.3068  0.1704
 2794TIP3    H129797   5.339   2.773   6.068  0.2838 -1.7419  0.2041
 2794TIP3    H229798   5.389   2.843   5.944 -0.7266  0.8548  1.1948
 2795TIP3   OH229799   0.308   4.471   3.764  0.0929 -0.3761 -0.0199
 2795TIP3    H129800   0.266   4.517   3.836 -1.6681 -0.9190 -0.6430
 2795TIP3    H229801   0.319   4.537   3.696 -0.3844 -0.3738 -0.0969
 2796TIP3   OH229802   3.669   6.532   5.813  0.3823 -0.1553  0.0022
 2796TIP3    H129803   3.573   6.537   5.817  0.3437  0.5587 -1.2094
 2796TIP3    H229804   3.700   6.600   5.872  0.1775 -1.0328  1.1608
 2797TIP3   OH229805   4.848   2.466  11.814 -0.1379  0.2363 -0.2479
 2797TIP3    H129806   4.888   2.397  11.760 -1.3354  0.4925 -1.5316
 2797TIP3    H229807   4.759   2.435  11.831 -0.0443  0.5648  0.8723
 2798TIP3   OH229808   2.716   1.189  12.823  0.4337  0.1081 -0.1342
 2798TIP3    H129809   2.751   1.278  12.815 -1.1805  0.8270  0.3416
 2798TIP3    H229810   2.635   1.200  12.873 -0.6734 -1.3995 -1.5044
 2799TIP3   OH229811   6.009   6.454  14.279 -0.1585  0.4424 -0.7346
 2799TIP3    H129812   6.086   6.402  14.301  0.2078  0.8196 -1.1308
 2799TIP3    H229813   5.943   6.389  14.256 -0.3522  0.0523  0.7836
 2800TIP3   OH229814   2.341   2.160  12.826  0.1096  0.1364 -0.3497
 2800TIP3    H129815   2.380   2.072  12.829 -0.5770 -0.1882 -0.6419
 2800TIP3    H229816   2.249   2.145  12.847  0.0910  0.8589  0.1091
 2801TIP3   OH229817   3.956   3.685   6.047 -0.0975  0.1589  0.0358
 2801TIP3    H129818   3.892   3.632   5.999 -0.3696 -1.5048  2.0876
 2801TIP3    H229819   3.907   3.763   6.073 -0.6912 -0.1162 -0.2228
 2802TIP3   OH229820   3.959   2.840  14.059  0.0604  0.4567  0.1502
 2802TIP3    H129821   4.034   2.851  14.002 -0.2992 -0.2876 -0.4852
 2802TIP3    H229822   3.885   2.878  14.010 -0.1494  0.3115  0.3500
 2803TIP3   OH229823   3.162   3.305   1.107 -0.5352  0.6187 -0.0930
 2803TIP3    H129824   3.215   3.375   1.145 -0.1630  1.2233 -1.6396
 2803TIP3    H229825   3.109   3.349   1.041 -2.0543 -0.1963  0.5290
 2804TIP3   OH229826   5.657   2.698  11.318  0.1911 -0.1882 -0.0738
 2804TIP3    H129827   5.686   2.614  11.282  1.1951  0.9791 -2.2008
 2804TIP3    H229828   5.727   2.759  11.295 -0.6207  1.2946  1.2198
 2805TIP3   OH229829   4.469   0.842   1.325 -0.3037 -0.3996  0.6843
 2805TIP3    H129830   4.532   0.848   1.397  2.0384 -0.7086 -1.2192
 2805TIP3    H229831   4.397   0.791   1.361 -0.0138  0.8371  3.2821
 2806TIP3   OH229832   0.306   4.681  12.430 -0.3282  0.3809  0.4584
 2806TIP3    H129833   0.212   4.664  12.427 -0.1980 -0.6684  1.3944
 2806TIP3    H229834   0.330   4.705  12.341 -0.9243 -2.6765 -0.6413
 2807TIP3   OH229835   6.760   6.628   3.776  0.3564 -0.2268  0.2923
 2807TIP3    H129836   6.681   6.680   3.794  0.4508 -0.1930  0.6218
 2807TIP3    H229837   6.821   6.691   3.738 -0.7734 -0.8452 -2.8221
 2808TIP3   OH229838   6.238   3.283  14.396 -0.0417 -0.3827 -0.3751
 2808TIP3    H129839   6.181   3.219  14.353 -0.1284 -0.3869 -0.2528
 2808TIP3    H229840   6.248   3.251  14.485 -1.6044  0.7497  0.2449
 2809TIP3   OH229841   5.923   0.445   5.403  0.3218  0.5286  0.6057
 2809TIP3    H129842   5.948   0.520   5.457  2.7231  0.9996 -0.9883
 2809TIP3    H229843   6.001   0.390   5.402 -0.1927 -0.2298 -1.0862
 2810TIP3   OH229844   3.810   0.617   3.440 -0.1959  0.3503  0.3231
 2810TIP3    H129845   3.886   0.575   3.480 -0.7763 -0.2805  0.7919
 2810TIP3    H229846   3.789   0.562   3.365 -0.4212  0.3069  0.4182
 2811TIP3   OH229847   2.452   1.631   0.358 -0.3173 -0.3358 -0.2361
 2811TIP3    H129848   2.450   1.536   0.367  0.0470 -0.2942  0.3527
 2811TIP3    H229849   2.472   1.663   0.446  0.1562  0.2598 -0.5524
 2812TIP3   OH229850   0.045   0.575  13.217 -0.1464  0.2972 -0.1083
 2812TIP3    H129851   0.128   0.616  13.193  0.2222  0.7183  1.6934
 2812TIP3    H229852  -0.021   0.629  13.174  0.4627  0.5949 -0.6967
 2813TIP3   OH229853   5.379   1.789  12.492 -0.0227 -0.0039 -0.2162
 2813TIP3    H129854   5.446   1.729  12.523 -0.0814  0.0262 -0.0314
 2813TIP3    H229855   5.369   1.853  12.563  1.2276  1.2001 -1.0850
 2814TIP3   OH229856   3.549   0.611  12.338 -0.6397  0.0946  0.0880
 2814TIP3    H129857   3.526   0.521  12.362 -2.0854  0.1418 -1.0005
 2814TIP3    H229858   3.541   0.612  12.243  1.3664  0.8619 -0.1220
 2815TIP3   OH229859   1.310   1.245  15.758 -0.8234 -0.2790  0.0393
 2815TIP3    H129860   1.300   1.166  15.812  0.1184 -0.5912 -0.2086
 2815TIP3    H229861   1.221   1.273  15.738 -1.1774 -0.6767  1.0051
 2816TIP3   OH229862   2.154   0.086  14.674  0.3436 -0.0368 -0.7380
 2816TIP3    H129863   2.131   0.052  14.760  0.8818  0.4520 -0.3903
 2816TIP3    H229864   2.142   0.013  14.614  0.7919 -0.6249 -0.1174
 2817TIP3   OH229865   6.696   4.430   5.825 -0.3215  0.1416 -0.1685
 2817TIP3    H129866   6.756   4.362   5.855 -0.7356 -0.4458 -0.6388
 2817TIP3    H229867   6.746   4.481   5.761 -0.7284 -1.2176 -1.6368
 2818TIP3   OH229868   1.262   0.119   4.968 -0.0874 -0.2850 -0.6725
 2818TIP3    H129869   1.265   0.177   4.893 -0.2818 -0.4158 -0.7812
 2818TIP3    H229870   1.353   0.112   4.997 -0.1906  1.0209  0.0691
 2819TIP3   OH229871   4.670   2.181  15.620  0.0378  1.3697 -0.8085
 2819TIP3    H129872   4.612   2.256  15.628  0.3910  1.4597  1.5306
 2819TIP3    H229873   4.758   2.218  15.622  0.1997  1.0206 -1.3701
 2820TIP3   OH229874   4.805   4.349  11.397 -0.1147  0.1836  0.3619
 2820TIP3    H129875   4.821   4.345  11.303  0.0420  1.1955  0.3385
 2820TIP3    H229876   4.798   4.442  11.417 -2.6872 -0.0321  0.9167
 2821TIP3   OH229877   4.459   1.516   1.445  0.4248 -0.4753  0.3874
 2821TIP3    H129878   4.369   1.538   1.421  1.6447  3.2851 -1.4338
 2821TIP3    H229879   4.481   1.577   1.515  1.8097 -0.7908  0.2537
 2822TIP3   OH229880   5.959   4.029   4.890  0.1989 -0.2400 -0.0844
 2822TIP3    H129881   5.940   3.939   4.916  0.7662 -0.4992 -0.5576
 2822TIP3    H229882   5.938   4.032   4.797 -1.8095  0.6794  0.3374
 2823TIP3   OH229883   4.800   0.477   1.615  0.2399  0.1885  0.0836
 2823TIP3    H129884   4.786   0.419   1.690  1.2864 -0.4757 -0.2185
 2823TIP3    H229885   4.799   0.419   1.539 -0.8870  0.8617 -0.4483
 2824TIP3   OH229886   0.513   4.877  12.998 -0.0066 -0.2728 -0.7791
 2824TIP3    H129887   0.583   4.833  12.950  0.4167  1.2103 -1.5882
 2824TIP3    H229888   0.502   4.961  12.953 -1.7004 -0.1015 -0.1151
 2825TIP3   OH229889   3.860   5.876  11.565 -0.0309  0.1706  0.1898
 2825TIP3    H129890   3.770   5.863  11.534 -0.4345  0.1241  1.3186
 2825TIP3    H229891   3.914   5.823  11.507 -0.6576  0.7148 -0.9103
 2826TIP3   OH229892   5.224   1.969   3.352 -0.3008  0.2029 -0.3325
 2826TIP3    H129893   5.143   1.940   3.309  0.8337 -2.5825 -0.8048
 2826TIP3    H229894   5.214   1.940   3.442  0.0337  0.1138 -0.3232
 2827TIP3   OH229895   4.263   4.399  15.757 -0.7004  0.0745 -0.2343
 2827TIP3    H129896   4.168   4.407  15.756 -0.9019 -1.8408 -1.4739
 2827TIP3    H229897   4.284   4.371  15.846 -1.0476  2.3186  0.6189
 2828TIP3   OH229898   1.642   3.582  13.321 -0.0825 -0.0465 -0.2829
 2828TIP3    H129899   1.705   3.584  13.393  2.1542  0.5953 -2.1559
 2828TIP3    H229900   1.568   3.634  13.353  0.7502  0.0724  1.5961
 2829TIP3   OH229901   2.696   0.018   6.589 -0.4813 -0.0604  1.1315
 2829TIP3    H129902   2.785   0.047   6.608 -0.7577  0.6145  1.3940
 2829TIP3    H229903   2.663   0.080   6.524  0.1294 -1.7996 -0.9640
 2830TIP3   OH229904   3.390   3.247  11.332  0.5083  0.1650 -0.0426
 2830TIP3    H129905   3.382   3.343  11.337  0.0182  0.1975 -1.2930
 2830TIP3    H229906   3.484   3.232  11.322  0.6388  0.4802  0.6242
 2831TIP3   OH229907   6.104   1.802  13.528 -0.4029 -0.0794 -0.7526
 2831TIP3    H129908   6.174   1.803  13.594 -0.3604  1.0567 -0.8076
 2831TIP3    H229909   6.145   1.761  13.452 -0.1936 -0.6077 -0.3686
 2832TIP3   OH229910   6.106   6.535   4.008  0.0954  0.3345  0.8083
 2832TIP3    H129911   6.064   6.604   4.059 -0.8598 -1.0654  1.9838
 2832TIP3    H229912   6.149   6.479   4.073 -0.6546 -1.1638  0.0773
 2833TIP3   OH229913   5.759   1.125  12.988 -0.4540 -0.1602  0.3387
 2833TIP3    H129914   5.684   1.173  13.023 -0.1338  0.6766 -0.1061
 2833TIP3    H229915   5.721   1.061  12.928 -0.9806 -1.3556  1.8760
 2834TIP3   OH229916   5.071   6.686  13.994  0.1640 -0.2611  0.0168
 2834TIP3    H129917   4.997   6.746  13.989  1.6826  1.8159  1.0792
 2834TIP3    H229918   5.138   6.725  13.937  1.9684  0.3185  2.3883
 2835TIP3   OH229919   3.134   6.342  15.317  0.3453 -0.3769 -0.2147
 2835TIP3    H129920   3.160   6.250  15.314  1.9179 -0.0832  2.1924
 2835TIP3    H229921   3.196   6.387  15.260 -0.4293 -0.7616 -1.3991
 2836TIP3   OH229922   2.238   3.261  17.195  0.5073  0.0058  0.1245
 2836TIP3    H129923   2.312   3.319  17.176 -0.5646  1.6247  0.7021
 2836TIP3    H229924   2.198   3.246  17.109  1.6070 -1.0819 -0.2270
 2837TIP3   OH229925   2.648   1.028  14.729  0.5190  0.7890  0.1264
 2837TIP3    H129926   2.625   1.121  14.729 -2.0195  0.2293 -0.1420
 2837TIP3    H229927   2.584   0.988  14.788  0.8662 -0.9413 -0.6276
 2838TIP3   OH229928   3.388   0.879   4.263  0.1064  0.4584 -0.1532
 2838TIP3    H129929   3.402   0.946   4.330 -0.8242  1.0164 -0.5069
 2838TIP3    H229930   3.445   0.807   4.290  0.3132  0.9671  0.8252
 2839TIP3   OH229931   2.203   3.565  13.627  0.8094 -0.9288 -0.3212
 2839TIP3    H129932   2.148   3.639  13.600  2.0456  0.5747  1.0469
 2839TIP3    H229933   2.164   3.489  13.585 -1.8894  0.1529  0.0201
 2840TIP3   OH229934   5.184   6.119  15.720 -0.0426 -0.0562  0.1734
 2840TIP3    H129935   5.226   6.052  15.775  0.0572 -0.0009  0.1657
 2840TIP3    H229936   5.103   6.140  15.766 -0.9738 -1.4588 -0.7182
 2841TIP3   OH229937   3.042   5.194   5.982  0.4052 -0.9940 -0.0352
 2841TIP3    H129938   2.979   5.201   6.054  0.0862  3.8314 -0.4325
 2841TIP3    H229939   3.021   5.112   5.939 -2.3778 -1.9006  2.6751
 2842TIP3   OH229940   4.268   2.543  11.171  0.0034 -0.1859 -0.3070
 2842TIP3    H129941   4.306   2.476  11.114 -1.5170 -0.3046 -1.2132
 2842TIP3    H229942   4.220   2.601  11.112 -0.6450  0.3576  0.7309
 2843TIP3   OH229943   6.219   5.372   1.021  0.1760  0.9391  0.2715
 2843TIP3    H129944   6.227   5.417   0.937  1.4777  1.9464  0.8907
 2843TIP3    H229945   6.228   5.442   1.086 -1.0523  0.2144  1.2626
 2844TIP3   OH229946   2.913   1.184  13.607  0.0672 -0.2642  0.0545
 2844TIP3    H129947   2.877   1.122  13.543 -0.8481  0.4923 -0.1867
 2844TIP3    H229948   2.986   1.225  13.561 -0.8219  0.5547 -0.6873
 2845TIP3   OH229949   1.057   5.664   3.989  0.0766  0.0568  0.3676
 2845TIP3    H129950   1.005   5.692   4.065 -1.7128 -1.7636 -0.1204
 2845TIP3    H229951   1.005   5.689   3.913  2.7530  3.7366 -0.5522
 2846TIP3   OH229952   3.020   6.126  11.455 -0.2532 -0.1023  0.6898
 2846TIP3    H129953   2.972   6.119  11.537 -0.2992 -0.8540  0.6024
 2846TIP3    H229954   3.025   6.037  11.421 -0.3912  0.2212 -0.2202
 2847TIP3   OH229955   3.140   4.732   1.000  0.5271  0.5621  0.2120
 2847TIP3    H129956   3.151   4.672   1.074 -1.7408 -1.4217 -0.9035
 2847TIP3    H229957   3.062   4.784   1.022 -0.4446 -0.3566 -0.8774
 2848TIP3   OH229958   2.221   4.707   4.585 -0.4349 -0.1680  0.7682
 2848TIP3    H129959   2.252   4.795   4.607 -0.6744  0.2080 -0.3513
 2848TIP3    H229960   2.237   4.655   4.664 -0.9081  1.0423  1.6811
 2849TIP3   OH229961   2.579   1.919   6.639  0.0066  0.2775  0.0943
 2849TIP3    H129962   2.491   1.898   6.671  0.9115 -0.5590  2.2393
 2849TIP3    H229963   2.587   2.014   6.654  0.3742 -0.0692  2.5123
 2850TIP3   OH229964   6.330   6.723  11.862 -0.0941 -0.7651 -0.1096
 2850TIP3    H129965   6.382   6.665  11.806 -0.6627 -0.5215 -0.8934
 2850TIP3    H229966   6.315   6.802  11.810 -0.7948 -0.6120  0.3006
 2851TIP3   OH229967   6.367   0.669  11.504 -0.1886  0.6133  0.2194
 2851TIP3    H129968   6.313   0.600  11.465  1.5771 -0.2020 -0.9109
 2851TIP3    H229969   6.378   0.641  11.595 -1.9777  1.0357  0.6111
 2852TIP3   OH229970   0.324   6.445   2.793  1.2675  0.7504  0.0402
 2852TIP3    H129971   0.244   6.443   2.846 -0.3137  0.5480 -2.2580
 2852TIP3    H229972   0.344   6.538   2.783 -0.7001  1.0217 -2.1666
 2853TIP3   OH229973   1.145   2.892   4.717 -0.2674 -0.2385 -0.0876
 2853TIP3    H129974   1.069   2.843   4.685  0.6350 -0.6773 -1.6452
 2853TIP3    H229975   1.220   2.843   4.686  0.7725 -1.0010  3.2060
 2854TIP3   OH229976   1.214   4.639   2.734  0.3164  0.4909  0.6246
 2854TIP3    H129977   1.275   4.588   2.681  0.5315  1.2983  0.0770
 2854TIP3    H229978   1.200   4.586   2.812 -1.5354 -1.6596 -1.0340
 2855TIP3   OH229979   6.745   1.868   0.075  0.3440 -0.1099  0.1095
 2855TIP3    H129980   6.792   1.933   0.023  1.0584 -2.2591 -2.1044
 2855TIP3    H229981   6.654   1.874   0.045  0.5397 -0.5695 -0.5981
 2856TIP3   OH229982   5.605   5.845  14.309  0.1111  0.3356  0.0714
 2856TIP3    H129983   5.670   5.825  14.376 -0.4452  3.4565  1.6972
 2856TIP3    H229984   5.521   5.831  14.353 -0.3482 -0.7593 -1.0828
 2857TIP3   OH229985   4.636   0.850  11.751  0.0930  0.2655  0.2588
 2857TIP3    H129986   4.706   0.820  11.808  0.5820  1.7363  0.4594
 2857TIP3    H229987   4.558   0.852  11.807 -0.7196 -3.4162 -0.4474
 2858TIP3   OH229988   2.958   4.539  11.216  0.0672  0.3830  0.0991
 2858TIP3    H129989   2.913   4.471  11.166 -0.2038  0.4656  0.2265
 2858TIP3    H229990   2.906   4.618  11.200 -1.5108 -0.0687  2.4843
 2859TIP3   OH229991   6.494   5.139   6.799 -0.2419  0.1262  0.8495
 2859TIP3    H129992   6.496   5.061   6.854 -0.9625 -1.5977 -1.3961
 2859TIP3    H229993   6.524   5.108   6.713  1.2908  2.7695  0.3120
 2860TIP3   OH229994   2.407   0.537   5.559  0.5907  0.0743  0.2740
 2860TIP3    H129995   2.338   0.475   5.584  0.4790  0.5226  1.1226
 2860TIP3    H229996   2.446   0.499   5.480 -0.0377 -0.6375  0.2907
 2861TIP3   OH229997   5.025   5.223   6.116 -0.3323  0.3492 -0.1983
 2861TIP3    H129998   5.055   5.283   6.184 -2.3197  0.7457  0.3742
 2861TIP3    H229999   4.997   5.279   6.044 -0.0271 -0.0038 -0.6059
 2862TIP3   OH230000   6.764   3.139  16.383 -0.2520  0.5679 -0.4214
 2862TIP3    H130001   6.712   3.097  16.452  0.0575 -0.7737 -0.9695
 2862TIP3    H230002   6.711   3.214  16.356 -1.2210  0.0798  0.0507
 2863TIP3   OH230003   2.834   6.502  12.151  0.7951  0.4566 -0.7844
 2863TIP3    H130004   2.853   6.593  12.175  1.8570  0.2637 -0.8260
 2863TIP3    H230005   2.756   6.507  12.095 -0.5844  1.0879  1.1147
 2864TIP3   OH230006   3.933   6.003   5.476 -0.6015  0.2942  0.1077
 2864TIP3    H130007   3.965   6.091   5.496 -0.2154  0.3647 -0.8098
 2864TIP3    H230008   4.008   5.957   5.439 -0.9160 -0.2931  0.1856
 2865TIP3   OH230009   1.453   6.321   3.073  0.0518  0.0181 -0.3118
 2865TIP3    H130010   1.435   6.255   3.141  0.1893  0.8660  0.5678
 2865TIP3    H230011   1.389   6.390   3.089  0.6732  0.6422 -0.4758
 2866TIP3   OH230012   0.125   2.869  11.225  0.1396 -0.1866 -0.3533
 2866TIP3    H130013   0.075   2.895  11.148  3.9402  1.4409 -2.5412
 2866TIP3    H230014   0.156   2.781  11.204  1.5359  0.4232 -1.0038
 2867TIP3   OH230015   3.011   2.894   6.503 -0.4136  0.3259 -0.6897
 2867TIP3    H130016   2.925   2.900   6.462 -0.2171 -0.2797 -1.1973
 2867TIP3    H230017   3.019   2.803   6.530  0.8240 -0.1243 -2.3614
 2868TIP3   OH230018   2.444   5.134  12.288  0.1374  0.7021  0.0650
 2868TIP3    H130019   2.477   5.091  12.367 -2.0049  0.4447  0.8768
 2868TIP3    H230020   2.492   5.217  12.285  1.6537 -0.1148  0.5224
 2869TIP3   OH230021   5.780   4.842   3.229 -0.0743  0.0309 -0.2159
 2869TIP3    H130022   5.701   4.896   3.232  0.7027  1.2264 -0.5413
 2869TIP3    H230023   5.847   4.895   3.271  1.4006  0.5458 -2.9832
 2870TIP3   OH230024   4.673   0.327  15.058 -0.4028 -0.4793  0.7607
 2870TIP3    H130025   4.728   0.285  14.993  0.9940  0.3343  1.3891
 2870TIP3    H230026   4.688   0.420  15.046  0.5547 -0.3292  2.7777
 2871TIP3   OH230027   4.965   4.518   2.152  0.6600  0.2518 -0.5189
 2871TIP3    H130028   5.058   4.523   2.130  1.0724  1.8123  1.3388
 2871TIP3    H230029   4.935   4.609   2.150 -0.1846  0.0615  1.3850
 2872TIP3   OH230030   2.073   5.876  12.057  0.6912  0.0784  0.2827
 2872TIP3    H130031   2.019   5.797  12.051 -1.6136  1.5951 -0.1112
 2872TIP3    H230032   2.156   5.845  12.095  0.2553 -2.6694 -0.7209
 2873TIP3   OH230033   5.696   4.809   4.361  0.0227 -0.2540  0.1982
 2873TIP3    H130034   5.694   4.902   4.340 -1.0574 -0.0766  1.0268
 2873TIP3    H230035   5.702   4.806   4.457  1.6971 -1.0450  0.1183
 2874TIP3   OH230036   3.723   0.252   4.876 -0.0138 -0.3919  0.4168
 2874TIP3    H130037   3.643   0.278   4.921  0.2452 -1.9881  1.8724
 2874TIP3    H230038   3.751   0.331   4.829 -1.7887  0.5132  0.8286
 2875TIP3   OH230039   5.323   1.325   1.877  0.1702 -0.6050  0.0506
 2875TIP3    H130040   5.259   1.259   1.849  1.0062 -1.3511 -0.1546
 2875TIP3    H230041   5.359   1.359   1.795 -0.3647  0.2261  0.1540
 2876TIP3   OH230042   2.704   1.790  12.020  0.1762 -0.6210 -0.0968
 2876TIP3    H130043   2.789   1.758  11.989  0.5027  0.7437 -0.6948
 2876TIP3    H230044   2.652   1.802  11.941  1.2796  3.6503 -0.4300
 2877TIP3   OH230045   0.549   6.267   0.157 -0.5676  0.0694 -0.0379
 2877TIP3    H130046   0.611   6.309   0.216  0.0164 -1.4492  0.4573
 2877TIP3    H230047   0.464   6.277   0.200 -0.4954  0.9611 -0.0708
 2878TIP3   OH230048   2.254   0.520  14.684 -0.0818  0.0184 -0.4879
 2878TIP3    H130049   2.222   0.522  14.775  1.1052  1.0953 -0.0685
 2878TIP3    H230050   2.178   0.492  14.633 -0.8304 -0.4288  0.8106
 2879TIP3   OH230051   0.246   5.868   0.738  0.3053 -0.2909  0.3061
 2879TIP3    H130052   0.309   5.872   0.666 -0.9784  2.2006 -0.7998
 2879TIP3    H230053   0.284   5.924   0.806 -0.7735  1.4735 -0.4865
 2880TIP3   OH230054   4.039   1.481   5.433  0.0910  0.8939  0.6405
 2880TIP3    H130055   4.055   1.555   5.375  0.0563 -0.1555 -0.7636
 2880TIP3    H230056   4.067   1.512   5.520  2.0048  1.8856 -0.2530
 2881TIP3   OH230057   3.302   6.738   2.696  0.1771  0.3056 -0.2286
 2881TIP3    H130058   3.260   6.653   2.709  0.9306 -0.1476 -0.7636
 2881TIP3    H230059   3.236   6.791   2.650 -0.2909  0.0230  0.1108
 2882TIP3   OH230060   0.507   6.420   1.504  0.1770  0.2265 -0.3372
 2882TIP3    H130061   0.433   6.396   1.449  0.4178 -0.2176 -0.4731
 2882TIP3    H230062   0.537   6.504   1.469 -1.6335  1.5437  1.1139
 2883TIP3   OH230063   0.103   0.754   1.027 -0.2579  0.2529 -0.3729
 2883TIP3    H130064   0.097   0.701   0.948 -0.4843  0.9118 -0.8054
 2883TIP3    H230065   0.197   0.766   1.041 -0.2210  1.8821 -1.7537
 2884TIP3   OH230066   3.902   3.863   4.789  0.4041  0.2856 -0.1119
 2884TIP3    H130067   3.939   3.813   4.862 -1.0773  1.5027  1.5902
 2884TIP3    H230068   3.925   3.954   4.808 -0.7275  0.7170 -0.6801
 2885TIP3   OH230069   2.066   4.306   1.128 -0.4469 -0.8763 -0.3024
 2885TIP3    H130070   2.019   4.341   1.053 -0.7227 -0.5327  0.0246
 2885TIP3    H230071   2.153   4.286   1.095  0.0829  1.1434 -0.2636
 2886TIP3   OH230072   2.955   1.348  16.200 -0.4171  0.2375 -0.1486
 2886TIP3    H130073   3.025   1.282  16.193  0.3026  0.9312  0.2997
 2886TIP3    H230074   2.950   1.367  16.293 -0.8158  0.6122 -0.2462
 2887TIP3   OH230075   0.635   1.794  12.070  0.2868  0.4049  0.0460
 2887TIP3    H130076   0.544   1.795  12.099 -0.0470 -0.9807 -0.8429
 2887TIP3    H230077   0.657   1.701  12.065  1.7758  0.7248  0.3017
 2888TIP3   OH230078   1.885   0.783   1.310 -0.6310 -0.4432  0.2648
 2888TIP3    H130079   1.964   0.828   1.282 -1.0360 -1.3234 -2.6974
 2888TIP3    H230080   1.879   0.800   1.404  1.0999  2.6156 -0.0556
 2889TIP3   OH230081   4.934   2.508  10.999 -0.1553  0.2666  0.2345
 2889TIP3    H130082   5.023   2.483  10.976  0.2145 -0.5103  2.3252
 2889TIP3    H230083   4.891   2.426  11.022 -0.6493  0.8786  1.6394
 2890TIP3   OH230084   1.790   4.405  14.391  0.1554 -0.0951  0.1674
 2890TIP3    H130085   1.706   4.359  14.391  0.8504 -1.4261  0.6221
 2890TIP3    H230086   1.846   4.355  14.332  1.0250 -0.0268  0.8937
 2891TIP3   OH230087   0.078   0.010   2.669  0.0240  0.2688  0.1214
 2891TIP3    H130088   0.035  -0.022   2.748 -1.4597  0.4955 -0.5473
 2891TIP3    H230089   0.062  -0.058   2.604  1.7422 -0.1967  0.1294
 2892TIP3   OH230090   1.833   6.783  16.257  0.3360  0.0286  0.0257
 2892TIP3    H130091   1.877   6.779  16.342 -1.7582 -0.3078  1.1584
 2892TIP3    H230092   1.792   6.870  16.256  0.9480  0.3220 -0.9888
 2893TIP3   OH230093   4.639   2.735  13.309  0.8340 -0.3061  0.1311
 2893TIP3    H130094   4.579   2.662  13.294  1.1282 -0.9032  1.6698
 2893TIP3    H230095   4.699   2.734  13.234  1.1660 -2.0007  0.3923
 2894TIP3   OH230096   0.956   3.074   4.903  0.4762  0.2605 -0.2171
 2894TIP3    H130097   1.008   3.054   4.826  3.6588 -0.7796  1.9863
 2894TIP3    H230098   0.935   2.988   4.940  0.8601  0.7439  1.1759
 2895TIP3   OH230099   6.602   1.233   2.818  0.2897  0.4825  0.0420
 2895TIP3    H130100   6.596   1.148   2.862 -1.1495  0.1593 -0.7300
 2895TIP3    H230101   6.677   1.224   2.760 -1.4097 -1.2784 -2.0420
 2896TIP3   OH230102   6.334   5.694   2.186  0.0798 -0.2217 -1.1053
 2896TIP3    H130103   6.304   5.624   2.245 -2.3922  1.7449  0.1914
 2896TIP3    H230104   6.266   5.698   2.118  2.0644 -1.3727 -3.3128
 2897TIP3   OH230105   4.929   5.161  17.033 -0.2142  0.3911 -0.1965
 2897TIP3    H130106   4.980   5.201  16.963 -0.2055 -0.1022 -0.4788
 2897TIP3    H230107   4.973   5.077  17.049  1.1606  1.4222  1.9403
 2898TIP3   OH230108   3.547   4.665  13.304 -0.0087  0.2979  0.1663
 2898TIP3    H130109   3.517   4.581  13.336  0.7804 -0.0809 -0.0579
 2898TIP3    H230110   3.471   4.723  13.312 -0.7021 -0.5481 -0.1433
 2899TIP3   OH230111   2.420   1.937  11.406  0.0492  0.6093  0.4014
 2899TIP3    H130112   2.392   1.972  11.491 -0.2670  1.3893 -0.0171
 2899TIP3    H230113   2.516   1.943  11.408  0.1322 -0.6531  1.2372
 2900TIP3   OH230114   4.906   0.336  12.553 -0.2772 -0.2178  0.4219
 2900TIP3    H130115   4.892   0.268  12.619 -0.9931 -0.2924  0.2033
 2900TIP3    H230116   4.999   0.329  12.530  0.1296  0.2137  1.8492
 2901TIP3   OH230117   3.499   0.939  13.975 -0.3783 -0.2810 -0.0119
 2901TIP3    H130118   3.436   0.991  13.926  1.9989  1.3447 -1.5428
 2901TIP3    H230119   3.503   0.981  14.062  0.3884  1.2271 -0.7343
 2902TIP3   OH230120   2.649   4.608   5.543 -0.3788 -0.6825 -0.2387
 2902TIP3    H130121   2.594   4.558   5.603 -0.2552 -1.3246 -0.6516
 2902TIP3    H230122   2.728   4.628   5.593 -0.3713 -1.0213 -0.1154
 2903TIP3   OH230123   2.373   5.237  10.728 -0.9453 -0.2780  0.7012
 2903TIP3    H130124   2.325   5.177  10.784 -1.8224  2.5105  3.1691
 2903TIP3    H230125   2.308   5.269  10.666 -1.0714 -0.1351  0.9061
 2904TIP3   OH230126   1.616   0.187  15.964 -0.2671 -0.5681 -0.3556
 2904TIP3    H130127   1.628   0.094  15.985  1.3896  0.2303  2.8909
 2904TIP3    H230128   1.568   0.223  16.038  0.1719  1.3762 -0.9465
 2905TIP3   OH230129   1.240   5.166  16.764 -0.1067 -0.6071 -0.0919
 2905TIP3    H130130   1.207   5.221  16.835  0.0940 -1.5314  0.7421
 2905TIP3    H230131   1.206   5.079  16.784  2.3872 -1.5150  0.5609
 2906TIP3   OH230132   1.601   5.705  13.281  0.2268  0.4031  1.1471
 2906TIP3    H130133   1.638   5.662  13.205  0.0850 -0.1391  1.3746
 2906TIP3    H230134   1.536   5.765  13.246 -0.5295 -0.5402  0.8760
 2907TIP3   OH230135   3.406   5.247   6.351  0.1937 -0.4565  0.1756
 2907TIP3    H130136   3.348   5.295   6.292 -0.7661 -1.8385 -0.0531
 2907TIP3    H230137   3.421   5.163   6.306  1.2180 -0.6680  0.8974
 2908TIP3   OH230138   3.431   3.867  15.446 -0.2216 -0.2547 -0.3237
 2908TIP3    H130139   3.416   3.777  15.417 -1.2046  0.0613 -0.8633
 2908TIP3    H230140   3.382   3.920  15.383  0.1631  0.6410  0.1252
 2909TIP3   OH230141   1.781   2.260   3.458  0.0419  0.1346  0.3806
 2909TIP3    H130142   1.803   2.353   3.460 -1.4849  0.5154  1.7389
 2909TIP3    H230143   1.701   2.255   3.406  0.0087 -0.3873  0.4738
 2910TIP3   OH230144   2.253   4.074  11.690  0.5195  0.1154 -0.2734
 2910TIP3    H130145   2.344   4.088  11.717  0.5122  0.0046 -0.1937
 2910TIP3    H230146   2.208   4.155  11.715  0.5899  0.1610 -0.2922
 2911TIP3   OH230147   6.099   2.355  15.475  0.1567 -0.6575 -0.3931
 2911TIP3    H130148   6.076   2.278  15.527 -0.3170 -0.3440 -0.1372
 2911TIP3    H230149   6.164   2.401  15.528 -0.4507 -0.2489  0.0061
 2912TIP3   OH230150   1.804   2.768   6.384  0.9386 -0.1789 -0.0815
 2912TIP3    H130151   1.736   2.815   6.432  0.6898 -0.0016 -0.6091
 2912TIP3    H230152   1.885   2.814   6.406  0.4015  2.2045 -2.6746
 2913TIP3   OH230153   5.437   4.204  14.427 -0.3436  0.2055 -0.4140
 2913TIP3    H130154   5.365   4.258  14.395 -0.6528 -0.2212 -0.4543
 2913TIP3    H230155   5.409   4.177  14.515 -1.0422 -1.3741 -1.0697
 2914TIP3   OH230156   0.910   5.321   2.933 -0.2812 -0.0776 -0.0033
 2914TIP3    H130157   0.987   5.264   2.939 -0.4060 -0.3107 -0.5590
 2914TIP3    H230158   0.946   5.406   2.906 -0.1213  0.0559  0.6118
 2915TIP3   OH230159   6.165   4.215  15.422  0.1125  0.6725 -0.3823
 2915TIP3    H130160   6.153   4.253  15.509 -0.6940  1.3998 -0.7879
 2915TIP3    H230161   6.147   4.122  15.434  3.5083  0.0617  0.9109
 2916TIP3   OH230162   0.518   4.857  11.477  0.0548 -0.9128  0.0050
 2916TIP3    H130163   0.551   4.777  11.437 -0.6927 -0.7826 -0.8822
 2916TIP3    H230164   0.535   4.925  11.413 -1.7729 -0.8110 -0.4280
 2917TIP3   OH230165   2.127   3.984   4.913 -0.5130  0.3357  0.0701
 2917TIP3    H130166   2.097   4.073   4.895 -2.3000  0.3602  2.5611
 2917TIP3    H230167   2.196   3.995   4.978 -1.0279 -0.0724  0.7017
 2918TIP3   OH230168   4.007   2.785   4.211 -0.1211 -0.0492  0.0409
 2918TIP3    H130169   4.030   2.878   4.210  0.7611 -0.1827  2.3209
 2918TIP3    H230170   4.071   2.744   4.153  0.3309  0.6168  0.0527
 2919TIP3   OH230171   2.679   2.823  11.975  0.1863 -0.6507  0.1133
 2919TIP3    H130172   2.631   2.905  11.969 -0.2637 -0.5827  3.0443
 2919TIP3    H230173   2.611   2.755  11.982  0.5152 -0.9132  0.8687
 2920TIP3   OH230174   0.245   3.599  13.830  0.3597  0.3650  0.2030
 2920TIP3    H130175   0.164   3.579  13.783  0.4387  0.7310 -0.0944
 2920TIP3    H230176   0.293   3.517  13.833  0.2456  0.2863 -0.1506
 2921TIP3   OH230177   1.861   1.213   5.455  0.0159 -0.2388 -0.0903
 2921TIP3    H130178   1.865   1.225   5.360 -0.3456 -1.1395 -0.2295
 2921TIP3    H230179   1.871   1.119   5.467  0.9914 -0.0336  0.8277
 2922TIP3   OH230180   0.690   4.099   4.645  0.2667 -0.1266 -0.0803
 2922TIP3    H130181   0.689   4.141   4.559 -0.8170  3.1151  1.3447
 2922TIP3    H230182   0.597   4.083   4.664  0.2147  1.5235  1.3960
 2923TIP3   OH230183   4.996   1.413  14.356 -0.4154  0.1369 -0.3760
 2923TIP3    H130184   5.014   1.495  14.310 -0.4943  0.2704 -0.1721
 2923TIP3    H230185   5.031   1.345  14.299  0.3652  0.3639 -0.1822
 2924TIP3   OH230186   4.603   1.755   5.375 -0.1994  0.0797  0.0161
 2924TIP3    H130187   4.566   1.708   5.450  1.1304  0.4043  0.9209
 2924TIP3    H230188   4.637   1.686   5.318 -0.9309 -0.1604 -0.1278
 2925TIP3   OH230189   0.377   0.844  16.791 -0.4908  0.3022  0.3666
 2925TIP3    H130190   0.292   0.887  16.785 -1.2884 -1.0603  1.4603
 2925TIP3    H230191   0.435   0.900  16.740 -2.0209  1.2821 -0.3814
 2926TIP3   OH230192   2.198   4.365   3.884  0.5753 -0.1486  0.0420
 2926TIP3    H130193   2.280   4.410   3.868  0.1766  0.4458 -0.3535
 2926TIP3    H230194   2.210   4.278   3.845  0.9956 -0.0571 -0.0344
 2927TIP3   OH230195   1.435   0.689  12.613  0.3818  0.3801 -0.0740
 2927TIP3    H130196   1.402   0.716  12.698  0.7675 -1.4141  0.6908
 2927TIP3    H230197   1.423   0.766  12.557  0.4837  1.7421  1.6716
 2928TIP3   OH230198   5.961   6.149   4.867  0.1797  0.8174 -0.2313
 2928TIP3    H130199   5.935   6.106   4.948 -3.6141  0.6945 -1.3213
 2928TIP3    H230200   5.912   6.231   4.866 -0.3685  0.5317 -2.6450
 2929TIP3   OH230201   1.099   4.250  12.441 -0.4250  0.3448 -0.1543
 2929TIP3    H130202   1.179   4.247  12.493 -1.9073  1.5317  2.4047
 2929TIP3    H230203   1.072   4.158  12.434  0.3274  0.0774  0.3567
 2930TIP3   OH230204   4.990   4.723  16.344 -0.5828 -0.0074 -0.1101
 2930TIP3    H130205   5.042   4.667  16.401 -3.1811 -1.5605  0.9454
 2930TIP3    H230206   5.016   4.812  16.366  1.8303 -0.6980  0.0512
 2931TIP3   OH230207   6.494   5.680   4.727 -0.0465 -0.8640  0.1203
 2931TIP3    H130208   6.444   5.711   4.802  0.9402 -0.6900  0.7237
 2931TIP3    H230209   6.459   5.731   4.653 -0.4689 -0.4474  0.5982
 2932TIP3   OH230210   3.012   0.444  11.977  0.4444 -0.1334 -0.0086
 2932TIP3    H130211   2.995   0.350  11.972  2.2145 -0.4557 -0.4358
 2932TIP3    H230212   2.998   0.466  12.070  0.3561 -0.8815  0.1562
 2933TIP3   OH230213   5.014   0.851  15.312 -0.3322  0.1713 -0.6867
 2933TIP3    H130214   5.053   0.911  15.249  4.1774  0.7807  2.2361
 2933TIP3    H230215   5.042   0.764  15.285  2.2619  0.4955  0.6637
 2934TIP3   OH230216   2.359   0.073   5.011 -0.4537  0.3764 -0.1330
 2934TIP3    H130217   2.264   0.081   5.009 -0.5337  0.9249  2.2817
 2934TIP3    H230218   2.382   0.082   5.104  2.1195  2.4790 -0.8409
 2935TIP3   OH230219   5.909   3.036  12.315  0.4115 -0.1765 -0.4853
 2935TIP3    H130220   5.984   2.977  12.316  0.8551  0.3728  0.5351
 2935TIP3    H230221   5.938   3.112  12.265  0.3782 -0.1610 -0.4814
 2936TIP3   OH230222   1.655   4.405   2.553  0.3483 -0.1002 -0.2067
 2936TIP3    H130223   1.720   4.345   2.517  0.4474 -0.6499  0.8596
 2936TIP3    H230224   1.571   4.359   2.542  0.4722 -0.6547  1.0112
 2937TIP3   OH230225   0.450   4.967  15.332 -0.0438 -0.7755 -0.4816
 2937TIP3    H130226   0.384   4.927  15.276 -0.2847 -0.4833 -0.4081
 2937TIP3    H230227   0.534   4.938  15.295 -0.2091 -1.0560 -0.6402
 2938TIP3   OH230228   5.432   3.089  13.371 -0.1168 -0.3011 -0.0739
 2938TIP3    H130229   5.470   3.176  13.370 -1.2166  0.1979 -0.9081
 2938TIP3    H230230   5.505   3.030  13.389  1.1403  0.5725 -2.0767
 2939TIP3   OH230231   1.044   1.085   1.859  0.5155 -0.3409  0.5811
 2939TIP3    H130232   1.090   1.111   1.938  1.5923 -0.8549  0.1386
 2939TIP3    H230233   1.038   1.166   1.807 -1.1329  0.2559  1.5883
 2940TIP3   OH230234   3.421   3.253   5.948 -0.3268 -0.3602  0.2937
 2940TIP3    H130235   3.411   3.162   5.975  0.3918 -0.7109 -0.5388
 2940TIP3    H230236   3.332   3.283   5.927 -1.0523  0.1992  3.6565
 2941TIP3   OH230237   6.092   2.427  14.891  0.0481 -0.1373  0.2457
 2941TIP3    H130238   6.093   2.383  14.806 -2.2398  1.0189 -0.4563
 2941TIP3    H230239   6.082   2.357  14.955  2.3908 -1.0804 -0.3324
 2942TIP3   OH230240   3.234   3.994   0.704 -0.5529  0.4866 -0.5376
 2942TIP3    H130241   3.315   4.027   0.743 -1.1542  0.5084  0.7576
 2942TIP3    H230242   3.232   3.901   0.728 -1.4049  0.7171  0.3531
 2943TIP3   OH230243   1.046   0.057  13.965  0.1019 -0.0177 -0.3250
 2943TIP3    H130244   1.077   0.101  14.044 -0.0117  0.8824 -0.7642
 2943TIP3    H230245   1.095  -0.025  13.962  2.3259  1.2439 -0.8910
 2944TIP3   OH230246   3.583   2.273   0.645 -0.7623  0.1868  0.3128
 2944TIP3    H130247   3.506   2.275   0.588 -0.8187 -0.6447  0.3587
 2944TIP3    H230248   3.566   2.204   0.708 -0.2447  0.4100  0.7090
 2945TIP3   OH230249   1.071   5.379  14.274 -0.5730  0.7165 -0.0560
 2945TIP3    H130250   1.047   5.457  14.224 -1.9981  0.1603 -0.2951
 2945TIP3    H230251   1.004   5.314  14.251  1.2365 -0.9905 -0.7903
 2946TIP3   OH230252   4.838   0.117  12.723  0.3124 -0.2431  0.5350
 2946TIP3    H130253   4.793   0.051  12.776  0.1595  0.1778  0.9387
 2946TIP3    H230254   4.920   0.133  12.769  0.0007  0.4190  0.8718
 2947TIP3   OH230255   2.694   1.278  15.070 -0.4738  0.4837  0.1818
 2947TIP3    H130256   2.782   1.282  15.032 -1.2110 -0.2493 -1.7795
 2947TIP3    H230257   2.643   1.228  15.006 -3.0450  3.3185 -0.2198
 2948TIP3   OH230258   6.681   2.073  12.470 -0.2917  0.1014 -0.2630
 2948TIP3    H130259   6.701   2.096  12.561 -0.4119 -1.1014  0.0848
 2948TIP3    H230260   6.669   2.158  12.427 -0.3974  0.6980  0.8736
 2949TIP3   OH230261   3.481   4.291  14.656 -0.2624  0.1738 -0.0059
 2949TIP3    H130262   3.424   4.354  14.612 -1.0992 -0.6659 -0.1391
 2949TIP3    H230263   3.545   4.266  14.589 -1.6615 -1.2671 -0.8548
 2950TIP3   OH230264   3.159   5.616  15.817 -0.3133 -0.3003 -0.0886
 2950TIP3    H130265   3.113   5.537  15.788  0.3862 -0.6598 -0.2441
 2950TIP3    H230266   3.204   5.589  15.897  1.1889 -0.5136 -0.9786
 2951TIP3   OH230267   4.216   3.771  12.225 -0.0688  0.4883 -0.4271
 2951TIP3    H130268   4.209   3.824  12.145  1.4873 -0.2109 -1.0728
 2951TIP3    H230269   4.303   3.732  12.220 -0.4020 -0.5291  1.0413
 2952TIP3   OH230270   5.785   2.048  15.935 -0.0480  0.6644  0.1390
 2952TIP3    H130271   5.817   1.963  15.905  1.5843  0.9660  0.8785
 2952TIP3    H230272   5.727   2.028  16.008  0.9696  0.1902  0.8455
 2953TIP3   OH230273   0.075   5.874   5.470  0.1832  0.1135  0.2473
 2953TIP3    H130274  -0.015   5.841   5.477 -0.0732  0.7710  0.1370
 2953TIP3    H230275   0.130   5.800   5.497 -0.2927 -0.8951 -1.3913
 2954TIP3   OH230276   4.370   3.683  16.465 -0.3415 -0.0961  0.4822
 2954TIP3    H130277   4.452   3.672  16.417 -0.4338 -1.7116  0.6467
 2954TIP3    H230278   4.302   3.666  16.400 -0.6158  2.2904  0.0767
 2955TIP3   OH230279   5.939   6.583  15.145 -0.1782  0.2972  0.1535
 2955TIP3    H130280   5.848   6.554  15.136  0.6886 -2.3402 -0.9640
 2955TIP3    H230281   5.940   6.670  15.107 -2.3408  0.6757  0.8045
 2956TIP3   OH230282   1.677   6.009  15.706 -0.0485  0.5120 -0.0011
 2956TIP3    H130283   1.715   6.010  15.793 -2.0252  3.5762  0.9962
 2956TIP3    H230284   1.656   5.917  15.689  1.8653 -0.3551  2.0125
 2957TIP3   OH230285   4.029   1.460  12.418  0.0813  0.1157  0.2105
 2957TIP3    H130286   4.099   1.508  12.372  0.2137 -0.2886 -0.0113
 2957TIP3    H230287   3.957   1.523  12.424 -1.4779 -0.9307 -4.0584
 2958TIP3   OH230288   0.721   4.004   2.046  0.2158  0.2726  0.3122
 2958TIP3    H130289   0.661   4.066   2.004 -0.0999 -0.0231  0.3172
 2958TIP3    H230290   0.706   4.017   2.140 -1.4399 -1.2961  0.3202
 2959TIP3   OH230291   6.512   2.572   1.115  0.1057  0.4241 -0.4038
 2959TIP3    H130292   6.425   2.534   1.099  0.7508 -1.4890  0.3045
 2959TIP3    H230293   6.566   2.538   1.044  0.9151 -0.8255  0.7596
 2960TIP3   OH230294   2.679   5.100   2.105 -0.5551 -0.4695  0.2131
 2960TIP3    H130295   2.749   5.159   2.133 -0.3560 -0.3116 -0.6211
 2960TIP3    H230296   2.724   5.024   2.069 -0.7751  0.1397 -1.4363
 2961TIP3   OH230297   3.507   5.299  14.025 -0.0812 -0.4991  0.4434
 2961TIP3    H130298   3.496   5.205  14.006  0.7691 -0.2344 -1.5090
 2961TIP3    H230299   3.433   5.341  13.981  0.6101 -0.0922 -0.3578
 2962TIP3   OH230300   1.624   4.512   1.186  0.1961 -0.4138  0.1383
 2962TIP3    H130301   1.549   4.550   1.141  0.8587  0.0991 -0.5786
 2962TIP3    H230302   1.637   4.427   1.145  1.2044  0.3240 -1.1756
 2963TIP3   OH230303   3.991   6.231  13.612 -0.0529 -0.3216  0.0938
 2963TIP3    H130304   3.896   6.246  13.622  0.2651  1.5156  0.8686
 2963TIP3    H230305   4.002   6.137  13.623 -2.0886 -1.0695 -2.7891
 2964TIP3   OH230306   0.668   2.893  12.961 -0.2071 -0.4891  0.0681
 2964TIP3    H130307   0.719   2.856  13.033 -0.7210  0.4282  0.9306
 2964TIP3    H230308   0.662   2.987  12.982  0.3956 -0.0461 -1.6406
 2965TIP3   OH230309   0.161   5.140  12.491 -0.6394 -0.3037 -0.0428
 2965TIP3    H130310   0.117   5.124  12.407  1.2599 -0.1560 -1.1128
 2965TIP3    H230311   0.194   5.230  12.484  1.2245 -0.9459  0.0301
 2966TIP3   OH230312   6.265   0.831   5.594 -0.1225  0.0374  0.3704
 2966TIP3    H130313   6.253   0.797   5.683  0.9528  1.4217  1.0844
 2966TIP3    H230314   6.238   0.922   5.600  3.2411  1.1592  0.2193
 2967TIP3   OH230315   4.898   6.441   1.388  0.3137 -0.5193  0.3347
 2967TIP3    H130316   4.991   6.466   1.391  0.2269 -0.2845  1.9640
 2967TIP3    H230317   4.882   6.401   1.473 -0.3784 -3.2666 -0.9739
 2968TIP3   OH230318   3.692   2.608  17.043 -0.3099 -0.4703 -0.5159
 2968TIP3    H130319   3.652   2.541  16.986 -0.0016 -0.9564 -0.1604
 2968TIP3    H230320   3.675   2.577  17.132  0.7152 -0.5913 -0.3585
 2969TIP3   OH230321   3.076   1.265   5.358  0.3808 -0.1724  0.3218
 2969TIP3    H130322   3.143   1.198   5.340  1.7322  0.7934  1.5487
 2969TIP3    H230323   3.105   1.342   5.309 -0.8187 -0.2579 -0.5580
 2970TIP3   OH230324   5.664   4.102  11.620  0.6566  0.5044  0.2484
 2970TIP3    H130325   5.652   4.036  11.551  2.3070 -0.6286  0.9772
 2970TIP3    H230326   5.605   4.076  11.690  1.3437 -0.2814  0.5565
 2971TIP3   OH230327   3.448   2.995  13.244 -0.2947  0.0934 -0.0093
 2971TIP3    H130328   3.457   3.001  13.339  0.2963  1.5618 -0.1387
 2971TIP3    H230329   3.513   3.055  13.209 -0.1519 -0.7987 -1.3764
 2972TIP3   OH230330   0.427   2.617  16.435  0.9337 -0.3698  0.0814
 2972TIP3    H130331   0.354   2.612  16.373  1.1972 -0.0324 -0.2680
 2972TIP3    H230332   0.460   2.707  16.424  0.9676 -0.3042  0.7303
 2973TIP3   OH230333   1.886   3.270  15.358 -0.4210 -0.0010 -0.1048
 2973TIP3    H130334   1.907   3.305  15.445 -2.4012  0.9042  0.0573
 2973TIP3    H230335   1.951   3.310  15.300  3.6722 -3.7000  1.3036
 2974TIP3   OH230336   2.571   5.670   2.006 -0.0304  0.0760  0.5064
 2974TIP3    H130337   2.553   5.705   2.093  0.7755 -0.5738  0.9466
 2974TIP3    H230338   2.657   5.628   2.013  0.0590  0.0197 -0.6031
 2975TIP3   OH230339   5.033   6.733  15.045  0.2027  0.2546 -0.0086
 2975TIP3    H130340   4.957   6.791  15.038 -0.7809 -1.1549 -1.7472
 2975TIP3    H230341   5.100   6.775  14.992 -0.4921 -0.1203 -1.2273
 2976TIP3   OH230342   2.115   6.672   2.469 -0.3594  0.5403 -0.0131
 2976TIP3    H130343   2.196   6.625   2.450 -0.9260 -0.6265  0.3514
 2976TIP3    H230344   2.138   6.764   2.462  0.9261  0.2170 -0.2088
 2977TIP3   OH230345   4.645   5.557  16.973  0.4568 -0.1952 -0.1154
 2977TIP3    H130346   4.644   5.489  17.039 -0.2642  0.3463  0.4402
 2977TIP3    H230347   4.638   5.510  16.889  2.5660 -0.9702  0.0834
 2978TIP3   OH230348   3.271   4.997  13.572 -0.4752 -0.4143  0.5005
 2978TIP3    H130349   3.235   5.078  13.609 -0.7360 -0.7340  0.9613
 2978TIP3    H230350   3.320   4.957  13.643  1.2492  0.2549 -0.2672
 2979TIP3   OH230351   0.036   6.006   5.230 -0.1118  0.1645  0.0641
 2979TIP3    H130352   0.059   5.968   5.314 -0.7918 -1.0134 -0.2639
 2979TIP3    H230353   0.100   5.969   5.169 -1.1824 -0.9980 -0.3744
 2980TIP3   OH230354   6.565   0.071   0.684  0.7147  0.0158 -0.3521
 2980TIP3    H130355   6.555   0.124   0.763  2.4388 -0.9667  0.5942
 2980TIP3    H230356   6.479   0.071   0.643 -0.6439 -0.6798  2.3318
 2981TIP3   OH230357   0.012   5.024   1.237  0.1710 -0.7151 -0.0283
 2981TIP3    H130358  -0.002   4.959   1.168  2.9542 -0.5151 -0.8968
 2981TIP3    H230359   0.099   5.005   1.271  0.2500  1.3512  1.0677
 2982TIP3   OH230360   1.838   6.645  15.706 -0.7683  0.2290  0.4815
 2982TIP3    H130361   1.797   6.731  15.711  0.3534  0.8770 -0.8279
 2982TIP3    H230362   1.766   6.583  15.716 -1.8722  1.3226 -0.4536
 2983TIP3   OH230363   1.724   6.500  14.152 -0.1259 -0.3475 -0.0517
 2983TIP3    H130364   1.644   6.494  14.205 -1.1670  0.4667 -1.4862
 2983TIP3    H230365   1.709   6.574  14.093  1.2484 -0.8573 -1.0908
 2984TIP3   OH230366   1.640   2.273   6.582 -0.4554 -0.4421 -0.4889
 2984TIP3    H130367   1.658   2.241   6.493  0.1357  0.9970 -0.9168
 2984TIP3    H230368   1.723   2.260   6.629 -0.3102  0.1370 -0.5770
 2985TIP3   OH230369   3.198   1.301  13.221  0.4693  0.1906 -0.6769
 2985TIP3    H130370   3.116   1.270  13.182 -0.8354  0.7956  1.3760
 2985TIP3    H230371   3.188   1.396  13.224  2.0285  0.4219 -1.9330
 2986TIP3   OH230372   1.282   6.289  16.180  0.1834  0.1509  0.4429
 2986TIP3    H130373   1.219   6.360  16.171 -0.1100  0.3145  3.0946
 2986TIP3    H230374   1.230   6.210  16.165 -0.1194  0.3749  0.2947
 2987TIP3   OH230375   4.378   3.108   5.229  0.1538  1.0238  1.0892
 2987TIP3    H130376   4.328   3.040   5.274  1.5733  0.7349  2.3107
 2987TIP3    H230377   4.312   3.168   5.194 -1.2342 -1.6521 -1.2187
 2988TIP3   OH230378   4.128   2.784   2.847  0.1331  0.4170  0.1810
 2988TIP3    H130379   4.109   2.794   2.940 -1.7287  0.1873 -0.1354
 2988TIP3    H230380   4.138   2.874   2.815  0.8109  0.4942  0.5909
 2989TIP3   OH230381   3.871   0.900  16.689 -0.3048  0.1263 -0.2561
 2989TIP3    H130382   3.931   0.951  16.743 -1.5770  0.8384  0.5241
 2989TIP3    H230383   3.784   0.918  16.724 -1.0856 -0.1921 -1.8990
 2990TIP3   OH230384   2.795   2.520  13.457 -0.2812 -0.1930 -0.0207
 2990TIP3    H130385   2.724   2.476  13.504 -0.3273 -0.0627  0.0313
 2990TIP3    H230386   2.805   2.471  13.376 -2.2425  1.3911 -1.3048
 2991TIP3   OH230387   1.187   4.119   4.691  0.0779  0.4499  0.1890
 2991TIP3    H130388   1.223   4.116   4.780 -1.4291  0.8514  0.8304
 2991TIP3    H230389   1.207   4.033   4.655  1.0987  0.4290  0.7386
 2992TIP3   OH230390   5.655   4.341   1.851  0.1660  0.6454 -0.1631
 2992TIP3    H130391   5.689   4.380   1.932 -0.8796  0.5881  0.3155
 2992TIP3    H230392   5.684   4.401   1.782 -0.3962  1.6304  0.4354
 2993TIP3   OH230393   6.626   5.437  11.486  0.1341  0.4570  0.1336
 2993TIP3    H130394   6.691   5.408  11.549 -0.1452  0.2762  0.3402
 2993TIP3    H230395   6.655   5.400  11.403 -0.3013 -0.5551  0.4191
 2994TIP3   OH230396   1.027   1.222   4.620 -0.3272 -0.2317  0.3192
 2994TIP3    H130397   0.972   1.266   4.685  0.0364  0.2066  0.3381
 2994TIP3    H230398   1.037   1.286   4.550 -2.7170 -1.5442 -1.3581
 2995TIP3   OH230399   5.042   5.540  15.704 -0.1824  0.3455 -0.3458
 2995TIP3    H130400   5.011   5.628  15.686  0.6998  0.9889  1.1617
 2995TIP3    H230401   5.077   5.544  15.793  1.1510 -1.1709 -0.7597
 2996TIP3   OH230402   4.863   0.998  15.816 -0.3594 -0.6588  0.3799
 2996TIP3    H130403   4.912   0.978  15.895 -0.6794 -0.1250  0.7200
 2996TIP3    H230404   4.916   0.961  15.745  0.6959  0.1677  0.7127
 2997TIP3   OH230405   3.815   6.601   3.674  0.7980 -0.1342 -0.3003
 2997TIP3    H130406   3.875   6.673   3.696  0.6021  0.7977 -2.4953
 2997TIP3    H230407   3.834   6.582   3.582  0.6569 -2.7630  0.1377
 2998TIP3   OH230408   2.468   1.112  11.787  0.0923 -0.4418 -0.4109
 2998TIP3    H130409   2.452   1.019  11.771 -0.8551 -0.3674  0.0453
 2998TIP3    H230410   2.384   1.154  11.773 -0.1294  0.0003  1.7986
 2999TIP3   OH230411   2.610   2.449   4.356  0.4038  0.1902  0.0947
 2999TIP3    H130412   2.653   2.534   4.359  0.7283  0.0564 -0.6755
 2999TIP3    H230413   2.670   2.393   4.307  1.5417 -1.2738  2.9568
 3000TIP3   OH230414   2.525   2.785   2.476 -0.4779  0.5477  0.3343
 3000TIP3    H130415   2.602   2.836   2.499  1.0485 -1.2490 -0.5302
 3000TIP3    H230416   2.471   2.786   2.555  0.4515  1.7529  0.9981
 3001TIP3   OH230417   1.856   6.142   0.778  0.1401  0.1491 -0.4470
 3001TIP3    H130418   1.903   6.221   0.804  2.2114 -1.2495  0.3583
 3001TIP3    H230419   1.905   6.108   0.703 -0.1159 -0.8902 -0.1680
 3002TIP3   OH230420   0.327   6.167   2.279 -0.6303 -0.2165 -0.0277
 3002TIP3    H130421   0.335   6.192   2.187  1.5308 -0.8922 -0.0706
 3002TIP3    H230422   0.287   6.080   2.277  0.8181 -0.9033 -0.4623
 3003TIP3   OH230423   0.849   3.951  12.091  0.1097 -0.6198  0.4629
 3003TIP3    H130424   0.925   3.894  12.102  0.5919 -0.3161 -1.1284
 3003TIP3    H230425   0.776   3.891  12.078  0.3340 -0.8906  0.4371
 3004TIP3   OH230426   6.629   6.357  11.603  0.2065  1.1124  0.3134
 3004TIP3    H130427   6.681   6.286  11.640 -0.0281  1.6169  1.6829
 3004TIP3    H230428   6.539   6.324  11.604  0.3073  0.7655 -0.7523
 3005TIP3   OH230429   2.531   4.336   1.105  0.2780  0.5359 -0.6863
 3005TIP3    H130430   2.503   4.421   1.140  0.8230  0.2394  0.5543
 3005TIP3    H230431   2.611   4.316   1.154 -1.2831 -1.9462  1.0988
 3006TIP3   OH230432   6.466   6.642  15.296 -0.2785  0.4440 -0.2230
 3006TIP3    H130433   6.386   6.607  15.255 -1.5808  1.5352  1.2927
 3006TIP3    H230434   6.516   6.564  15.320 -1.2061 -0.2799 -0.5693
 3007TIP3   OH230435   2.082   6.123  15.057 -0.5241  0.7523  0.0113
 3007TIP3    H130436   2.036   6.200  15.024 -1.2882 -0.5666 -2.2073
 3007TIP3    H230437   2.012   6.062  15.081  0.0649  0.6861  1.7359
 3008TIP3   OH230438   5.782   1.828   1.726 -0.1016 -0.2648 -0.6832
 3008TIP3    H130439   5.835   1.901   1.758  0.6257 -1.0904  0.0283
 3008TIP3    H230440   5.714   1.817   1.792 -1.4520  1.0359 -1.7777
 3009TIP3   OH230441   1.296   1.134  14.629 -0.3808  0.8242 -0.2110
 3009TIP3    H130442   1.327   1.200  14.566 -1.2876 -0.2489 -1.8552
 3009TIP3    H230443   1.201   1.142  14.627 -0.5131 -0.6092 -0.5505
 3010TIP3   OH230444   2.284   5.238   4.832 -0.4151  0.7101  0.1100
 3010TIP3    H130445   2.345   5.312   4.823 -0.1247  0.4198 -0.3423
 3010TIP3    H230446   2.293   5.190   4.750 -0.3259 -0.0366  0.5530
 3011TIP3   OH230447   5.103   4.106  14.800  0.6172  1.0197 -0.0242
 3011TIP3    H130448   5.059   4.037  14.751 -0.4457  0.3136  1.8072
 3011TIP3    H230449   5.036   4.174  14.809 -0.2817 -0.0899  2.8367
 3012TIP3   OH230450   4.074   0.532  14.630 -0.4574  0.0609 -0.3824
 3012TIP3    H130451   4.100   0.459  14.687 -0.4073  0.3802  0.0025
 3012TIP3    H230452   4.083   0.496  14.541  2.5457  0.5215 -0.3656
 3013TIP3   OH230453   5.597   2.150   1.395 -0.0288  0.3058 -0.1977
 3013TIP3    H130454   5.516   2.196   1.370 -0.3280  0.2367  0.6094
 3013TIP3    H230455   5.567   2.064   1.424  0.5343 -0.4488 -1.7613
 3014TIP3   OH230456   2.400   0.303   2.109  0.7192  0.0138  0.5568
 3014TIP3    H130457   2.307   0.302   2.087  0.4111  0.2381  1.7683
 3014TIP3    H230458   2.418   0.216   2.146  1.6697 -1.0485 -2.1513
 3015TIP3   OH230459   2.140   6.562   4.836 -0.6110 -0.4354 -0.3767
 3015TIP3    H130460   2.137   6.542   4.742  0.8127  1.4535 -0.8965
 3015TIP3    H230461   2.233   6.567   4.856 -0.8988  0.3118  0.8611
 3016TIP3   OH230462   3.174   5.620  13.830  0.1627  0.1686 -0.1654
 3016TIP3    H130463   3.094   5.596  13.784 -0.0393 -0.6926  0.5995
 3016TIP3    H230464   3.226   5.668  13.765 -0.8395  0.4814 -0.7544
 3017TIP3   OH230465   3.486   3.462  17.222  0.1621 -0.8566 -0.4778
 3017TIP3    H130466   3.567   3.462  17.273  0.8591 -0.2885 -1.5223
 3017TIP3    H230467   3.487   3.379  17.175  0.2801 -0.7467 -0.6758
 3018TIP3   OH230468   6.072   6.710   2.972 -0.3858  0.2461 -0.4930
 3018TIP3    H130469   6.066   6.750   2.885 -2.3398  1.5067  0.1412
 3018TIP3    H230470   5.984   6.722   3.010 -0.5275 -3.0011  0.5157
 3019TIP3   OH230471   0.508   1.859   0.125 -1.0743  0.4468 -0.0314
 3019TIP3    H130472   0.466   1.844   0.040  0.3925 -0.2876 -0.6556
 3019TIP3    H230473   0.476   1.788   0.181 -0.2242 -0.4756 -0.6834
 3020TIP3   OH230474   1.623   1.698  14.700  0.1023 -0.1933 -0.0476
 3020TIP3    H130475   1.667   1.721  14.781  1.2883 -0.2808 -0.6496
 3020TIP3    H230476   1.593   1.781  14.664 -1.1068 -0.2206  0.8346
 3021TIP3   OH230477   1.253   0.548  13.513  0.0750  0.1877  0.3443
 3021TIP3    H130478   1.253   0.473  13.454 -0.2494 -0.3781  1.0471
 3021TIP3    H230479   1.302   0.616  13.466 -0.2090 -0.2324 -0.5790
 3022TIP3   OH230480   1.990   0.104  12.822 -0.4505 -0.0051  0.5354
 3022TIP3    H130481   1.952   0.070  12.741  1.9694  0.6187 -0.9587
 3022TIP3    H230482   1.987   0.199  12.811 -1.1790  0.1419  1.7658
 3023TIP3   OH230483   3.893   6.148  13.194 -0.3638 -0.3049 -0.1098
 3023TIP3    H130484   3.870   6.106  13.277 -1.8057  1.2272  0.3441
 3023TIP3    H230485   3.811   6.147  13.144 -0.2069  1.1035 -0.4318
 3024TIP3   OH230486   2.781   1.142   3.999 -0.3103  0.1041  0.2611
 3024TIP3    H130487   2.686   1.139   4.011 -0.3707  0.9240  0.0568
 3024TIP3    H230488   2.808   1.219   4.049  0.2106  0.0388  0.0824
 3025TIP3   OH230489   2.958   2.412   1.668  0.3524 -0.3712 -0.3451
 3025TIP3    H130490   2.985   2.421   1.759 -3.6661 -1.0712  1.1430
 3025TIP3    H230491   2.971   2.499   1.630  1.8603  0.0022  0.9373
 3026TIP3   OH230492   0.894   1.138  15.098 -0.1410  0.4083 -0.1505
 3026TIP3    H130493   0.985   1.142  15.070  0.5707 -0.0067  1.9000
 3026TIP3    H230494   0.895   1.083  15.177 -2.1695  0.3708 -0.0817
 3027TIP3   OH230495   6.079   2.768  12.778 -0.3247  0.5867 -0.8749
 3027TIP3    H130496   6.039   2.854  12.782 -0.5774  0.5918 -2.6491
 3027TIP3    H230497   6.020   2.716  12.725  0.9580 -0.0039 -1.7822
 3028TIP3   OH230498   0.541   0.426   5.759  0.0689  0.0982 -0.3466
 3028TIP3    H130499   0.541   0.474   5.842  0.1797  0.0876 -0.3401
 3028TIP3    H230500   0.495   0.345   5.778 -1.0614  0.6564 -0.6210
 3029TIP3   OH230501   2.250   5.364  12.498 -0.0579  0.0947  0.0966
 3029TIP3    H130502   2.272   5.408  12.580 -0.0318 -0.4766  0.4020
 3029TIP3    H230503   2.185   5.421  12.456 -0.5907  0.0442  0.8410
 3030TIP3   OH230504   5.767   3.383  12.233 -0.2745 -0.4572 -0.0997
 3030TIP3    H130505   5.692   3.358  12.179 -0.2220 -2.2863  0.6103
 3030TIP3    H230506   5.839   3.330  12.200 -0.1162 -1.2024  1.3709
 3031TIP3   OH230507   4.921   5.811  11.873  0.1811 -0.2911  0.0168
 3031TIP3    H130508   4.875   5.888  11.840  2.6692  1.3541  0.1030
 3031TIP3    H230509   4.879   5.737  11.830 -0.3992  1.3491 -2.4116
 3032TIP3   OH230510   0.909   4.440   3.792  0.1072 -0.5979  0.4466
 3032TIP3    H130511   0.962   4.497   3.737  0.3306 -1.0866  0.1539
 3032TIP3    H230512   0.964   4.364   3.808 -1.2760 -2.1517 -1.7067
 3033TIP3   OH230513   5.251   6.328  11.484 -0.1722 -0.2374 -1.0111
 3033TIP3    H130514   5.223   6.302  11.572 -1.3677 -1.4959 -1.7193
 3033TIP3    H230515   5.328   6.275  11.466  2.3536  2.5678  0.5800
 3034TIP3   OH230516   2.763   2.244   2.866  0.7506  0.6898  0.4725
 3034TIP3    H130517   2.793   2.283   2.784  0.7328  1.1886  0.6980
 3034TIP3    H230518   2.770   2.150   2.852 -0.7934  0.7130 -0.6800
 3035TIP3   OH230519   0.712   2.864   1.586  0.7438  0.0583 -0.8089
 3035TIP3    H130520   0.671   2.794   1.535  0.9389 -0.1281 -0.7094
 3035TIP3    H230521   0.659   2.869   1.666  1.6332 -1.0066 -0.1334
 3036TIP3   OH230522   3.943   1.829   1.234 -0.2810  0.0526  0.8055
 3036TIP3    H130523   3.927   1.776   1.156  2.0693 -0.1779  0.3906
 3036TIP3    H230524   3.931   1.919   1.205 -1.7521 -0.1143  0.8340
 3037TIP3   OH230525   2.878   3.923   5.335 -0.1322  0.1642 -0.3216
 3037TIP3    H130526   2.858   4.011   5.365 -1.0465 -0.2423  0.2795
 3037TIP3    H230527   2.865   3.927   5.240 -0.1876  0.6630 -0.2953
 3038TIP3   OH230528   0.315   6.331   3.615  0.4686  0.1390 -0.4200
 3038TIP3    H130529   0.241   6.316   3.673  1.3187 -0.2199  0.6103
 3038TIP3    H230530   0.297   6.416   3.575 -0.8692 -0.2976 -0.7883
 3039TIP3   OH230531   1.239   4.326   4.369 -0.1546  0.0555 -0.3854
 3039TIP3    H130532   1.188   4.371   4.301 -0.6947 -1.0462 -0.7280
 3039TIP3    H230533   1.317   4.380   4.379 -1.2143  1.5958 -0.0886
 3040TIP3   OH230534   3.036   4.949   2.928 -0.0922  0.6597  0.6057
 3040TIP3    H130535   3.116   4.996   2.904  0.1580 -0.4458 -0.8896
 3040TIP3    H230536   3.022   4.888   2.856 -1.0843 -0.6876  1.8740
 3041TIP3   OH230537   5.090   2.528  13.765  0.0248 -0.2998  0.8169
 3041TIP3    H130538   5.106   2.544  13.858 -0.5432  0.9235  0.7233
 3041TIP3    H230539   5.098   2.615  13.724 -0.9199 -0.6191 -0.0861
 3042TIP3   OH230540   4.945   5.080   2.220  0.1827 -0.1507  0.1836
 3042TIP3    H130541   4.960   5.090   2.126 -5.0703  3.7820 -0.7140
 3042TIP3    H230542   4.999   5.149   2.260 -0.1438  0.4359 -0.3722
 3043TIP3   OH230543   0.642   0.697   4.501 -0.0275  0.0046  0.5054
 3043TIP3    H130544   0.587   0.660   4.432  1.7991 -1.3909 -0.2694
 3043TIP3    H230545   0.605   0.663   4.582 -1.6247  0.8973  0.2004
 3044TIP3   OH230546   2.644   2.303  14.139 -0.0264  0.0616  0.3709
 3044TIP3    H130547   2.604   2.390  14.139 -0.1528  0.0047  0.4843
 3044TIP3    H230548   2.735   2.318  14.167 -0.1129  0.1309  0.6209
 3045TIP3   OH230549   2.674   3.547   5.094 -0.1166 -0.0111  0.3001
 3045TIP3    H130550   2.683   3.639   5.117  0.1919 -0.2891  1.3748
 3045TIP3    H230551   2.676   3.501   5.178 -1.7265 -0.8965 -0.0890
 3046TIP3   OH230552   4.670   4.845  13.343 -0.5297  0.6619 -0.5146
 3046TIP3    H130553   4.587   4.888  13.362 -1.1167 -0.4430 -0.4698
 3046TIP3    H230554   4.646   4.764  13.299  0.4722 -0.1049  0.2870
 3047TIP3   OH230555   4.053   4.135   6.637 -0.4398 -0.4947 -0.5929
 3047TIP3    H130556   3.997   4.105   6.566 -0.2582 -0.3186 -0.8116
 3047TIP3    H230557   3.999   4.127   6.715 -0.7297 -0.4377 -0.7870
 3048TIP3   OH230558   6.220   5.129   3.479  0.6343 -0.1014  0.0198
 3048TIP3    H130559   6.241   5.140   3.572  0.0226  1.0114  0.0456
 3048TIP3    H230560   6.194   5.037   3.471 -1.7532  0.3570  1.4852
 3049TIP3   OH230561   4.997   4.878  12.690 -0.3127  0.0533 -0.0914
 3049TIP3    H130562   4.975   4.803  12.635 -0.7402  0.3862 -0.3824
 3049TIP3    H230563   5.086   4.902  12.663 -0.4652  0.1219 -0.5326
 3050TIP3   OH230564   0.894   0.189   3.131 -0.9146  0.1206 -0.3304
 3050TIP3    H130565   0.920   0.225   3.216 -0.0407  1.0128 -0.9501
 3050TIP3    H230566   0.858   0.102   3.151 -0.5917  0.2654  0.9307
 3051TIP3   OH230567   3.997   6.222  16.239  0.0333  0.5206  0.4691
 3051TIP3    H130568   4.015   6.262  16.324 -1.8858  0.3100  1.0257
 3051TIP3    H230569   4.017   6.290  16.176  1.4494  0.6949  1.0718
 3052TIP3   OH230570   2.711   1.351   3.325  0.3503  0.5500  0.2152
 3052TIP3    H130571   2.670   1.437   3.332 -0.8648 -0.0922  1.4572
 3052TIP3    H230572   2.638   1.290   3.320  1.1597 -0.3616 -2.2164
 3053TIP3   OH230573   0.089   0.329   4.497  0.2243 -0.1970  0.1265
 3053TIP3    H130574   0.129   0.300   4.415  0.5763  0.1530  0.1740
 3053TIP3    H230575   0.163   0.355   4.552  0.0782 -1.3366  0.9175
 3054TIP3   OH230576   3.600   6.352  11.700  0.2976 -0.3000  0.0711
 3054TIP3    H130577   3.604   6.445  11.724  0.0066 -0.4631  0.7830
 3054TIP3    H230578   3.607   6.352  11.605 -0.0427  0.4787  0.0328
 3055TIP3   OH230579   5.241   6.781  16.207 -0.8578 -0.7431  0.0747
 3055TIP3    H130580   5.305   6.781  16.135  0.6845 -0.5885  1.3979
 3055TIP3    H230581   5.185   6.705  16.188  0.5223 -1.6870 -0.4502
 3056TIP3   OH230582   5.984   1.386   0.913 -0.0074  0.1116 -0.3726
 3056TIP3    H130583   5.896   1.395   0.952 -0.3572 -1.1860 -0.8371
 3056TIP3    H230584   6.028   1.468   0.937 -0.8447  0.1653  1.1292
 3057TIP3   OH230585   1.274   2.036   3.916  0.7797 -0.3479 -0.2507
 3057TIP3    H130586   1.195   2.077   3.953  0.5750 -0.6615 -0.3344
 3057TIP3    H230587   1.344   2.061   3.977  0.2679 -1.7399  0.9899
 3058TIP3   OH230588   6.589   1.943   3.503 -0.6645 -0.4189  0.5160
 3058TIP3    H130589   6.637   1.922   3.423 -0.8318  2.2163 -0.3585
 3058TIP3    H230590   6.603   1.867   3.560  2.4729 -0.8395 -0.6343
 3059TIP3   OH230591   1.119   1.301   1.719  0.3111 -0.5059 -0.7001
 3059TIP3    H130592   1.114   1.367   1.650  1.0633  0.9815  0.5879
 3059TIP3    H230593   1.165   1.345   1.791 -0.1851 -2.0755  0.6518
 3060TIP3   OH230594   4.493   5.183  10.303 -0.0990 -0.2194 -0.0788
 3060TIP3    H130595   4.473   5.275  10.319 -1.3709 -0.6322  0.9243
 3060TIP3    H230596   4.410   5.138  10.319  1.3561 -1.9968  3.5261
 3061TIP3   OH230597   4.355   4.204  14.925 -0.1948  0.2079  0.2276
 3061TIP3    H130598   4.444   4.219  14.956  0.2931 -1.7893 -0.0940
 3061TIP3    H230599   4.365   4.146  14.849 -1.7045  0.8658 -0.5160
 3062TIP3   OH230600   6.631   5.094  16.627 -0.2655 -0.2193  0.1547
 3062TIP3    H130601   6.703   5.037  16.654  0.2610 -0.0361 -0.8307
 3062TIP3    H230602   6.614   5.149  16.704  0.2015 -0.7026  0.6153
 3063TIP3   OH230603   0.472   0.253   0.409 -0.6983  0.0549  0.0357
 3063TIP3    H130604   0.545   0.198   0.437 -1.5204 -0.9447  0.2862
 3063TIP3    H230605   0.406   0.242   0.477 -0.7777  1.6230  0.2511
 3064TIP3   OH230606   2.469   4.531   1.275  0.2195 -0.0504 -0.0107
 3064TIP3    H130607   2.379   4.546   1.303  0.5095  0.6972  0.5633
 3064TIP3    H230608   2.522   4.554   1.352  0.9538  0.6666 -0.7128
 3065TIP3   OH230609   6.566   3.126   4.743  0.1547 -0.3294 -0.4736
 3065TIP3    H130610   6.480   3.088   4.726 -1.0233  0.9812  1.9408
 3065TIP3    H230611   6.626   3.051   4.746 -1.4856 -1.6652  0.9425
 3066TIP3   OH230612   0.332   5.081   3.739 -0.3367  0.0473  0.4661
 3066TIP3    H130613   0.412   5.127   3.714 -0.0892 -0.2023  0.7851
 3066TIP3    H230614   0.351   5.046   3.827  0.3831 -2.6637 -0.6465
 3067TIP3   OH230615   5.501   1.070  11.596  0.3923 -0.1382  0.0203
 3067TIP3    H130616   5.588   1.048  11.630  0.4235  0.1921  0.1657
 3067TIP3    H230617   5.445   0.998  11.625  0.4184  0.1381  0.7887
 3068TIP3   OH230618   6.065   3.589  15.213  0.4129 -0.1631  0.3916
 3068TIP3    H130619   6.040   3.600  15.305  0.8251  1.2311  0.3608
 3068TIP3    H230620   6.136   3.651  15.200  2.5317 -2.5552 -0.0947
 3069TIP3   OH230621   3.749   3.035  12.880 -0.2133 -0.0733  0.5299
 3069TIP3    H130622   3.835   3.072  12.902  0.6749 -1.0636 -1.0333
 3069TIP3    H230623   3.689   3.110  12.882  1.4005  1.4572 -1.9513
 3070TIP3   OH230624   5.520   3.777  13.220  0.6433  0.3097  0.3809
 3070TIP3    H130625   5.558   3.690  13.218  1.6758  0.7200  1.1055
 3070TIP3    H230626   5.488   3.787  13.310 -0.7703  0.1554 -0.0820
 3071TIP3   OH230627   2.518   6.000   3.370 -0.0232  0.2176 -0.2661
 3071TIP3    H130628   2.561   5.915   3.374  0.6775  0.5681 -0.0413
 3071TIP3    H230629   2.529   6.029   3.280 -0.5468 -0.0711 -0.4233
 3072TIP3   OH230630   2.939   0.227  16.303  0.0800 -0.5927 -0.0251
 3072TIP3    H130631   2.967   0.293  16.240  0.6537  0.4177  1.2547
 3072TIP3    H230632   3.006   0.159  16.299 -0.5910 -1.2036 -1.4586
 3073TIP3   OH230633   6.454   5.737  15.553 -0.2184 -0.0826  0.2578
 3073TIP3    H130634   6.509   5.659  15.550  1.5047  1.0964 -1.2063
 3073TIP3    H230635   6.416   5.737  15.641  0.9977 -1.6957  0.8245
 3074TIP3   OH230636   5.476   1.135   1.051  0.4175 -0.0412  0.1721
 3074TIP3    H130637   5.414   1.124   1.123  0.5826  2.2868  0.7495
 3074TIP3    H230638   5.421   1.136   0.972 -0.2178  1.1508  0.6098
 3075TIP3   OH230639   1.523   0.436   5.395 -0.2045  0.3382 -0.5209
 3075TIP3    H130640   1.441   0.387   5.393  0.5875 -1.2246  1.3554
 3075TIP3    H230641   1.520   0.484   5.478  0.8027  0.1720 -0.3790
 3076TIP3   OH230642   1.749   6.343   5.113 -0.0534 -0.0671  0.2844
 3076TIP3    H130643   1.681   6.404   5.140 -2.0284 -1.4124 -1.3356
 3076TIP3    H230644   1.761   6.360   5.020  2.3161  0.5114  0.6282
 3077TIP3   OH230645   3.558   6.325  15.474  0.3020 -0.3577 -0.2842
 3077TIP3    H130646   3.488   6.371  15.522  0.8122 -0.6281  0.7382
 3077TIP3    H230647   3.529   6.234  15.473 -0.1614 -0.2164 -1.3352
 3078TIP3   OH230648   1.338   0.978   0.560  0.5939 -0.1122 -0.5949
 3078TIP3    H130649   1.318   1.055   0.507  0.3144  0.6599  0.6041
 3078TIP3    H230650   1.360   0.911   0.496 -0.4430  0.5774 -1.7228
 3079TIP3   OH230651   5.705   0.538   1.685 -0.0778 -0.5129  0.3443
 3079TIP3    H130652   5.621   0.516   1.645 -0.6962  2.7588 -0.4295
 3079TIP3    H230653   5.762   0.465   1.662 -1.7129 -1.0685 -2.4035
 3080TIP3   OH230654   3.597   2.456  15.559  0.0158 -0.7617  0.2691
 3080TIP3    H130655   3.618   2.369  15.525  3.2043  0.2439 -0.6891
 3080TIP3    H230656   3.572   2.441  15.650 -0.1958 -2.7284 -0.0802
 3081TIP3   OH230657   6.087   6.198  13.118  0.5783  0.2723 -0.6188
 3081TIP3    H130658   6.002   6.211  13.076 -0.2485  0.0487  0.8980
 3081TIP3    H230659   6.148   6.186  13.045 -0.7645 -0.0459 -1.7477
 3082TIP3   OH230660   5.115   1.148   1.814 -0.0522 -0.2591 -0.3012
 3082TIP3    H130661   5.140   1.101   1.893 -1.9156 -2.6568 -1.0329
 3082TIP3    H230662   5.021   1.160   1.822 -0.0198  1.0107 -1.4009
 3083TIP3   OH230663   4.683   2.361  16.600 -0.4363 -0.1681  0.1849
 3083TIP3    H130664   4.630   2.414  16.541  0.0170  0.0200 -0.0627
 3083TIP3    H230665   4.629   2.351  16.678  0.1296  2.2430  0.9935
 3084TIP3   OH230666   3.166   0.895   2.343  0.1888 -0.0149 -0.1822
 3084TIP3    H130667   3.106   0.833   2.384 -1.0135  0.2568 -1.4429
 3084TIP3    H230668   3.215   0.933   2.415 -1.0680 -0.3430  0.8781
 3085TIP3   OH230669   3.494   5.265  14.483 -0.0523 -0.1091 -0.2936
 3085TIP3    H130670   3.474   5.182  14.439  0.0840 -0.6991  0.7299
 3085TIP3    H230671   3.545   5.314  14.419 -1.2396 -0.2696 -1.3974
 3086TIP3   OH230672   0.358   3.505  12.265  0.4350  0.4549  0.2775
 3086TIP3    H130673   0.382   3.413  12.272 -1.5409 -0.2220 -0.9225
 3086TIP3    H230674   0.298   3.520  12.338 -0.4520  0.3323 -0.4064
 3087TIP3   OH230675   0.568   3.063   5.238  0.0064  0.0852  0.5661
 3087TIP3    H130676   0.627   3.138   5.226  1.7259 -1.1386  0.8995
 3087TIP3    H230677   0.491   3.084   5.186 -0.3840  2.9070  2.1359
 3088TIP3   OH230678   2.103   0.974  10.348 -0.4397  0.3829 -0.1039
 3088TIP3    H130679   2.092   0.979  10.253 -1.2010  0.0632 -0.0427
 3088TIP3    H230680   2.180   0.919  10.361  0.5095  1.5715 -0.5516
 3089TIP3   OH230681   4.298   1.419   0.585 -0.0200  0.5131 -0.6202
 3089TIP3    H130682   4.235   1.443   0.517 -3.5809 -1.7733  1.5239
 3089TIP3    H230683   4.330   1.502   0.619 -2.8504  1.8978 -1.0806
 3090TIP3   OH230684   3.716   6.186  14.377 -0.4257 -0.1237  1.1573
 3090TIP3    H130685   3.707   6.136  14.296  0.2701  0.0580  0.9578
 3090TIP3    H230686   3.807   6.171  14.405 -0.3427  0.6540  1.3377
 3091TIP3   OH230687   4.856   0.264  13.807  0.0195 -0.0226 -0.2613
 3091TIP3    H130688   4.770   0.304  13.795 -0.2594 -0.5177  0.0802
 3091TIP3    H230689   4.838   0.172  13.822  0.4980  0.1336  1.4153
 3092TIP3   OH230690   0.367   1.175   5.612  0.1878  0.0524 -0.2248
 3092TIP3    H130691   0.454   1.167   5.574  0.0022  0.0347 -0.6537
 3092TIP3    H230692   0.340   1.265   5.594  0.8507  0.6556  1.5231
 3093TIP3   OH230693   0.049   5.308  14.171  0.2389 -0.5186 -0.4751
 3093TIP3    H130694   0.125   5.291  14.116  0.1581 -0.6617 -0.5424
 3093TIP3    H230695  -0.026   5.279  14.119  0.0733  0.2697 -0.6908
 3094TIP3   OH230696   3.630   1.245   2.763  0.0852 -0.3184  0.1820
 3094TIP3    H130697   3.636   1.339   2.745 -0.5684 -0.2714  0.1889
 3094TIP3    H230698   3.540   1.232   2.794  0.4512 -0.7964  1.0744
 3095TIP3   OH230699   5.257   1.538  15.454  0.5415  0.2978  0.6861
 3095TIP3    H130700   5.168   1.502  15.449  0.6714 -0.0568  0.8608
 3095TIP3    H230701   5.306   1.473  15.506  1.0057  0.2728  0.2281
 3096TIP3   OH230702   6.732   2.330  16.160 -0.3434 -0.1764 -0.4925
 3096TIP3    H130703   6.754   2.364  16.073  1.6268 -0.9413 -0.3587
 3096TIP3    H230704   6.813   2.339  16.210 -1.3210 -0.1691  1.1385
 3097TIP3   OH230705   5.391   0.689   0.091  0.5474 -0.4787 -0.0660
 3097TIP3    H130706   5.366   0.700   0.183  2.1021  0.4663  0.2833
 3097TIP3    H230707   5.405   0.595   0.081  0.8725 -0.5311  0.8005
 3098TIP3   OH230708   4.227   0.753   1.531  0.4567 -0.7861  0.0221
 3098TIP3    H130709   4.170   0.830   1.528  0.7996 -0.5042  0.5013
 3098TIP3    H230710   4.225   0.718   1.442  0.6071  0.0065 -0.3039
 3099TIP3   OH230711   1.900   1.369   2.895  0.1915  0.1304  0.2473
 3099TIP3    H130712   1.899   1.279   2.929  0.7993 -0.3543 -0.9146
 3099TIP3    H230713   1.975   1.370   2.835 -0.3810  1.1356 -0.4770
 3100TIP3   OH230714   4.049   6.591   1.736 -0.1402  0.1705 -0.2021
 3100TIP3    H130715   4.091   6.553   1.814  1.2124  1.3031 -0.3301
 3100TIP3    H230716   4.103   6.559   1.663  0.1042  1.0731 -0.4347
 3101TIP3   OH230717   6.352   0.705   0.013  0.0013 -0.2563 -0.4588
 3101TIP3    H130718   6.375   0.615  -0.012  0.0286 -0.4530  0.2647
 3101TIP3    H230719   6.348   0.752  -0.070  1.3497 -0.6043 -0.7382
 3102TIP3   OH230720   6.354   4.738  16.153  0.0970 -0.0093  0.4723
 3102TIP3    H130721   6.363   4.642  16.152 -1.1913 -0.1459 -0.6251
 3102TIP3    H230722   6.341   4.762  16.061 -0.3663  1.1332  0.8206
 3103TIP3   OH230723   6.382   6.421   0.944 -0.3606  0.3047  0.0996
 3103TIP3    H130724   6.425   6.495   0.901  1.9939  0.6041  2.6596
 3103TIP3    H230725   6.335   6.460   1.018 -1.4041 -0.5082 -0.1115
 3104TIP3   OH230726   0.949   4.249   0.301 -0.3492  0.1039 -0.7731
 3104TIP3    H130727   0.931   4.286   0.387 -1.9558 -1.1702 -0.5173
 3104TIP3    H230728   1.005   4.314   0.258 -0.4307  1.2730  0.8064
 3105TIP3   OH230729   3.441   0.124  15.551 -0.0024 -0.4584  0.2700
 3105TIP3    H130730   3.509   0.143  15.487  0.2000  0.4077  0.7287
 3105TIP3    H230731   3.423   0.209  15.593 -1.3231 -0.6762  0.1836
 3106TIP3   OH230732   6.130   0.265  12.799 -0.1694  0.3993  0.2034
 3106TIP3    H130733   6.107   0.174  12.817 -0.0468  0.6644  1.8113
 3106TIP3    H230734   6.055   0.299  12.750 -0.4260 -0.4303 -0.0041
 3107TIP3   OH230735   6.074   6.101  14.157  0.7567 -0.2013 -0.0586
 3107TIP3    H130736   6.086   6.196  14.161  1.0054 -0.0375 -2.6081
 3107TIP3    H230737   6.004   6.083  14.219  2.2762  1.2746  2.2223
 3108TIP3   OH230738   2.587   0.076   3.153  0.0063  0.2057 -0.0083
 3108TIP3    H130739   2.591  -0.012   3.191 -1.6611 -0.1060 -0.4580
 3108TIP3    H230740   2.591   0.061   3.058 -2.9668  0.3261 -0.2265
 3109TIP3   OH230741   0.492   5.937  16.238  0.7515 -0.1749 -0.2596
 3109TIP3    H130742   0.511   5.939  16.331 -0.5105  1.0342  0.0077
 3109TIP3    H230743   0.566   5.983  16.197  0.7401  0.3304  0.2758
 3110TIP3   OH230744   2.538   3.902  14.077 -0.1326 -0.0002  0.3854
 3110TIP3    H130745   2.512   3.816  14.046 -2.4167 -0.0746  2.2097
 3110TIP3    H230746   2.483   3.963  14.028 -0.3721  0.2155  0.9143
 3111TIP3   OH230747   5.004   4.027  11.631  0.4799 -0.2053 -0.3754
 3111TIP3    H130748   4.929   3.978  11.599 -0.6473 -0.2798  2.0984
 3111TIP3    H230749   4.966   4.109  11.663  1.3404 -0.4449  1.3588
 3112TIP3   OH230750   2.278   3.654   2.144 -0.0546 -0.4422  0.2040
 3112TIP3    H130751   2.313   3.643   2.055 -0.7627  3.7034 -0.8129
 3112TIP3    H230752   2.221   3.731   2.137 -1.8279 -1.2396  3.8577
 3113TIP3   OH230753   3.159   2.028   2.829 -0.0277 -0.1351 -0.1856
 3113TIP3    H130754   3.231   1.972   2.799 -0.0205 -1.2202  1.6742
 3113TIP3    H230755   3.127   2.071   2.750  1.1490 -1.4093 -1.4113
 3114TIP3   OH230756   3.457   0.467  11.385 -0.2059  0.3498 -0.1478
 3114TIP3    H130757   3.384   0.430  11.336 -0.0797  2.1173 -1.8074
 3114TIP3    H230758   3.533   0.415  11.358 -0.2615  0.8441 -1.3374
 3115TIP3   OH230759   6.517   0.695  15.256 -0.3509  0.6035 -0.1578
 3115TIP3    H130760   6.519   0.781  15.300  0.9880  0.0207  0.9768
 3115TIP3    H230761   6.597   0.651  15.284 -0.6553 -0.7596 -1.3042
 3116TIP3   OH230762   4.121   3.078   2.130  0.0092  0.4865  0.3125
 3116TIP3    H130763   4.212   3.075   2.158 -0.4081  0.0874  1.7181
 3116TIP3    H230764   4.123   3.055   2.037  1.1576 -1.5429  0.7850
 3117TIP3   OH230765   0.328   1.131  16.435 -0.0124 -0.2163 -0.4757
 3117TIP3    H130766   0.242   1.115  16.473  0.5028 -0.8768  0.4718
 3117TIP3    H230767   0.350   1.220  16.462 -0.8971  0.4241 -1.7656
 3118TIP3   OH230768   4.336   1.091   5.060  0.5724  0.9679 -0.3568
 3118TIP3    H130769   4.330   1.157   4.990  0.8757  1.2162 -0.1504
 3118TIP3    H230770   4.348   1.008   5.013  0.1250  1.0502 -0.6202
 3119TIP3   OH230771   3.374   0.194  14.054  0.2798  0.4378 -0.0546
 3119TIP3    H130772   3.282   0.201  14.030  0.0729 -0.8630  0.3314
 3119TIP3    H230773   3.405   0.117  14.007  0.6645 -0.3104  1.3956
 3120TIP3   OH230774   5.953   3.972  14.022 -0.5002 -0.1392 -0.4576
 3120TIP3    H130775   5.901   3.947  14.098 -0.7721  0.4259 -0.4525
 3120TIP3    H230776   5.905   4.045  13.983  0.2503  0.3464 -0.4977
 3121TIP3   OH230777   4.568   4.214  11.783  0.4644 -0.0330  0.0772
 3121TIP3    H130778   4.627   4.268  11.835  1.5418 -0.9421 -0.1630
 3121TIP3    H230779   4.571   4.252  11.696 -0.3539  0.7169  0.3571
 3122TIP3   OH230780   5.421   0.772   2.642 -0.8152  0.2656 -0.2388
 3122TIP3    H130781   5.448   0.847   2.589 -1.3115  0.5212 -0.1402
 3122TIP3    H230782   5.329   0.759   2.619 -0.5408 -0.7814 -0.7985
 3123TIP3   OH230783   4.724   2.258   4.365 -0.3008  0.2126  0.2862
 3123TIP3    H130784   4.810   2.277   4.404  0.1604  2.3203 -1.5374
 3123TIP3    H230785   4.684   2.344   4.352 -1.8063 -0.6075 -0.8364
 3124TIP3   OH230786   1.381   6.394  16.826 -0.6379 -0.7167 -0.1066
 3124TIP3    H130787   1.376   6.461  16.893  0.8530 -0.9333  0.2658
 3124TIP3    H230788   1.306   6.411  16.769 -0.5870  0.9271  0.2668
 3125TIP3   OH230789   3.679   4.601  14.947  0.1667  0.4604  0.2433
 3125TIP3    H130790   3.704   4.515  14.978 -3.2898 -1.2452 -1.1092
 3125TIP3    H230791   3.728   4.613  14.866  0.7242 -0.2165  0.4747
 3126TIP3   OH230792   0.528   5.384  16.838  0.1104  0.1763 -0.1620
 3126TIP3    H130793   0.433   5.387  16.833  0.1533  0.4968 -0.8953
 3126TIP3    H230794   0.557   5.385  16.747  0.7535 -2.1820 -0.0512
 3127TIP3   OH230795   2.714   0.238  15.630 -0.1782 -0.0560  0.3173
 3127TIP3    H130796   2.673   0.271  15.550  0.7401  0.8373  0.1928
 3127TIP3    H230797   2.794   0.195  15.600 -0.1661 -0.3059  0.7030
 3128TIP3   OH230798   3.288   4.716  13.475  0.6585  0.1097 -0.1601
 3128TIP3    H130799   3.272   4.778  13.547 -0.0453 -0.9567  0.6412
 3128TIP3    H230800   3.210   4.724  13.419 -0.5913 -1.6689  1.1985
 3129TIP3   OH230801   4.855   2.102   5.666  0.1277 -0.8887 -0.3270
 3129TIP3    H130802   4.855   2.107   5.762  0.2099  0.2035 -0.3625
 3129TIP3    H230803   4.805   2.023   5.646 -1.5708 -0.1052  0.5929
 3130TIP3   OH230804   4.776   0.905   3.666  0.5242  0.6434  0.1909
 3130TIP3    H130805   4.804   0.980   3.614  0.9755  0.2751 -0.1006
 3130TIP3    H230806   4.849   0.843   3.660 -0.0651 -0.0421 -0.0178
 3131TIP3   OH230807   0.886   3.910  13.408  0.3254 -0.0030 -0.5154
 3131TIP3    H130808   0.805   3.956  13.389 -0.2459 -0.6296  0.2966
 3131TIP3    H230809   0.952   3.953  13.354 -0.1603  1.7732  0.2310
 3132TIP3   OH230810   0.654   1.156  17.186 -0.1246 -0.3968 -0.1599
 3132TIP3    H130811   0.588   1.226  17.182  1.1120  0.8701  0.5442
 3132TIP3    H230812   0.612   1.081  17.144 -0.4672  1.5740 -3.7486
 3133TIP3   OH230813   2.518   2.210  15.388 -0.1923 -0.8318  0.1440
 3133TIP3    H130814   2.446   2.272  15.377 -0.3857 -0.6120  2.3230
 3133TIP3    H230815   2.516   2.186  15.480  1.8919 -1.6253  0.0381
 3134TIP3   OH230816   0.958   3.299   4.732 -0.4836 -0.1868  0.1335
 3134TIP3    H130817   1.053   3.298   4.740 -0.4975  2.2249  1.2245
 3134TIP3    H230818   0.927   3.237   4.798  0.2898 -0.3336  0.3622
 3135TIP3   OH230819   4.695   1.074   2.236 -0.1579  0.8013 -0.1717
 3135TIP3    H130820   4.737   1.059   2.321 -2.1307  2.1271  1.1124
 3135TIP3    H230821   4.624   1.010   2.232  1.1222 -0.6050 -1.7798
 3136TIP3   OH230822   4.685   4.736  12.490  0.6347 -0.4377 -0.2128
 3136TIP3    H130823   4.780   4.731  12.496  0.6071 -1.1543 -0.3010
 3136TIP3    H230824   4.659   4.657  12.442  0.0331 -0.0016 -0.6226
 3137TIP3   OH230825   0.066   2.454   0.310 -0.3530  0.2102 -0.2273
 3137TIP3    H130826   0.137   2.497   0.359 -0.2436  1.7975 -1.6920
 3137TIP3    H230827   0.010   2.526   0.282 -2.8745 -1.0449  1.2872
 3138TIP3   OH230828   1.110   2.286   5.885  0.1749  0.0823 -0.0599
 3138TIP3    H130829   1.104   2.332   5.801 -0.8129  3.1920  1.5444
 3138TIP3    H230830   1.021   2.286   5.919  0.2992 -2.4511  0.4080
 3139TIP3   OH230831   1.412   4.748  15.934  0.0294 -0.2516 -0.5296
 3139TIP3    H130832   1.488   4.804  15.923  0.2554 -0.7728 -1.7412
 3139TIP3    H230833   1.448   4.662  15.956 -0.3269  0.1366  1.8374
 3140TIP3   OH230834   2.127   1.081   0.148 -0.3885  0.1859  0.2725
 3140TIP3    H130835   2.032   1.082   0.160 -0.5766  0.3454 -1.0874
 3140TIP3    H230836   2.151   0.989   0.161 -1.0657 -0.2957 -1.5220
 3141TIP3   OH230837   4.602   4.745   3.985  0.0497  0.2844 -0.1072
 3141TIP3    H130838   4.693   4.714   3.990  0.3113  0.9145 -0.8076
 3141TIP3    H230839   4.551   4.675   4.025  0.5698 -1.2561 -1.9778
 3142TIP3   OH230840   2.036   4.365  12.092  0.4889  0.0154 -0.3623
 3142TIP3    H130841   1.977   4.427  12.049 -0.2456 -0.9751 -0.8274
 3142TIP3    H230842   2.116   4.415  12.108  0.0887  0.9444 -1.1408
 3143TIP3   OH230843   2.684   6.569   1.792 -0.5925 -0.2663 -0.2101
 3143TIP3    H130844   2.619   6.511   1.753 -0.8664  0.3039 -0.6301
 3143TIP3    H230845   2.632   6.632   1.842 -0.2838 -0.5367  0.4569
 3144TIP3   OH230846   4.671   5.227   1.691  0.7320 -0.4525 -0.2079
 3144TIP3    H130847   4.722   5.154   1.656  0.1316 -0.9535 -0.0434
 3144TIP3    H230848   4.667   5.290   1.619  0.7560 -0.8377 -0.5502
 3145TIP3   OH230849   3.911   6.753   2.798  0.2110 -0.2681 -0.4999
 3145TIP3    H130850   3.911   6.667   2.754 -1.4385 -1.0175  0.8356
 3145TIP3    H230851   3.818   6.776   2.803  0.5971  1.2909 -0.2383
 3146TIP3   OH230852   4.604   6.454   1.589  0.1570 -0.1987 -0.0669
 3146TIP3    H130853   4.684   6.408   1.615  2.0125  1.6063 -2.2098
 3146TIP3    H230854   4.597   6.438   1.495 -0.9452  1.2303 -0.2590
 3147TIP3   OH230855   1.489   3.254  16.976 -0.4082 -0.6145 -0.1668
 3147TIP3    H130856   1.549   3.213  16.913  0.4989  0.0403  0.2665
 3147TIP3    H230857   1.476   3.187  17.043  0.3922 -0.5090  0.0956
 3148TIP3   OH230858   4.026   6.006  16.078 -0.3866  0.0132  0.4103
 3148TIP3    H130859   4.015   6.080  16.137 -2.6100  1.1721 -1.3355
 3148TIP3    H230860   3.957   5.945  16.104 -0.9419  0.2297 -0.5351
 3149TIP3   OH230861   0.419   5.915  14.573  0.9968  0.2880 -0.7818
 3149TIP3    H130862   0.491   5.853  14.584 -0.3818 -1.2012  0.2206
 3149TIP3    H230863   0.360   5.873  14.511  0.8041  1.3373 -1.3303
 3150TIP3   OH230864   3.829   5.700  15.480  0.0056  0.6664  0.1309
 3150TIP3    H130865   3.844   5.658  15.396 -0.3534  1.1460 -0.1772
 3150TIP3    H230866   3.900   5.763  15.489  0.6662 -0.1388  0.6915
 3151TIP3   OH230867   4.948   3.007  17.149  0.4232  0.4634  0.3180
 3151TIP3    H130868   4.983   3.039  17.066  0.2762 -1.2728 -0.4577
 3151TIP3    H230869   4.898   3.081  17.184  0.2425  1.1406 -1.2819
 3152TIP3   OH230870   5.497   1.337   1.656 -0.3010  0.7591 -0.2860
 3152TIP3    H130871   5.523   1.275   1.587 -1.0087  0.0887  0.0371
 3152TIP3    H230872   5.579   1.371   1.691  0.1561 -1.0476  0.4776
 3153TIP3   OH230873   2.305   5.927  15.573  0.6085  0.3862  0.2788
 3153TIP3    H130874   2.317   5.832  15.578  1.6393  0.5880  3.6606
 3153TIP3    H230875   2.386   5.964  15.609 -0.1006  2.5625 -0.1944
 3154TIP3   OH230876   3.070   2.529  10.666 -0.3542  0.1395 -0.4261
 3154TIP3    H130877   3.143   2.482  10.707 -0.4865 -0.8636 -1.3045
 3154TIP3    H230878   3.100   2.545  10.576 -1.1891 -0.2166 -0.7714
 3155TIP3   OH230879   3.189   0.165  11.667 -0.0174  0.2838 -0.7396
 3155TIP3    H130880   3.241   0.110  11.724  1.1388 -0.6568 -2.6120
 3155TIP3    H230881   3.221   0.254  11.682  0.4023  0.0277 -0.1087
 3156TIP3   OH230882   2.700   0.982   5.073 -0.4681 -0.4060  0.1641
 3156TIP3    H130883   2.653   1.008   5.152 -2.0274 -1.8260 -0.2425
 3156TIP3    H230884   2.662   1.036   5.004  1.2398  1.1955  0.3920
 3157TIP3   OH230885   3.319   4.996   1.644 -0.2341  0.4004  0.1458
 3157TIP3    H130886   3.363   4.945   1.576 -2.4053 -1.0102 -0.2802
 3157TIP3    H230887   3.334   5.087   1.619  0.7583 -0.0698 -1.0569
 3158TIP3   OH230888   6.360   2.673  12.722  0.5344 -0.4094  0.1658
 3158TIP3    H130889   6.283   2.701  12.771 -0.0693 -1.7969  0.0530
 3158TIP3    H230890   6.373   2.742  12.656 -0.2907  0.0905  0.5149
 3159TIP3   OH230891   1.181   3.643  11.507  0.7188 -0.3562 -0.2276
 3159TIP3    H130892   1.275   3.652  11.489  0.4878  1.7843 -0.6274
 3159TIP3    H230893   1.151   3.576  11.446  1.9541 -0.9919 -0.1774
 3160TIP3   OH230894   3.499   1.614  14.581  0.0790 -0.0090  0.2118
 3160TIP3    H130895   3.508   1.656  14.496 -1.4457  1.3616  0.6681
 3160TIP3    H230896   3.550   1.533  14.574 -0.8897 -0.4751 -2.3527
 3161TIP3   OH230897   1.957   3.606  12.903 -0.2358 -0.2251  0.7140
 3161TIP3    H130898   1.966   3.558  12.821 -0.0083  0.9506  0.0235
 3161TIP3    H230899   1.916   3.544  12.963 -1.5158 -0.7416 -0.6309
 3162TIP3   OH230900   5.609   5.899  16.088 -0.1841  0.6574  0.4546
 3162TIP3    H130901   5.540   5.836  16.110  0.3946 -0.0307  0.3283
 3162TIP3    H230902   5.591   5.924  15.998  0.1126 -0.0263  0.2018
 3163TIP3   OH230903   5.057   6.255  11.717  0.4266 -0.1924  0.0272
 3163TIP3    H130904   5.018   6.324  11.663  1.3195  0.5069  0.2716
 3163TIP3    H230905   5.024   6.173  11.678  0.2592  0.3309 -0.9521
 3164TIP3   OH230906   2.931   2.282  13.129 -0.2408 -0.2560 -0.3700
 3164TIP3    H130907   2.874   2.221  13.175 -0.9851  1.1594  0.6692
 3164TIP3    H230908   2.992   2.313  13.196  0.0948  0.1703 -0.8629
 3165TIP3   OH230909   6.639   0.281  14.618 -0.6269 -0.0339 -0.1254
 3165TIP3    H130910   6.581   0.241  14.682  0.3616 -1.1475  0.0865
 3165TIP3    H230911   6.696   0.211  14.589 -0.8850  0.5008 -2.0617
 3166TIP3   OH230912   4.873   0.651   0.145  0.1109  0.4428  0.1447
 3166TIP3    H130913   4.936   0.710   0.103  1.3746  0.1930  1.6062
 3166TIP3    H230914   4.809   0.632   0.076  0.7202  1.9995 -0.9127
 3167TIP3   OH230915   1.081   2.712   1.383 -0.5505  0.2435  0.3247
 3167TIP3    H130916   0.999   2.666   1.396 -0.8404  0.2506 -1.2482
 3167TIP3    H230917   1.072   2.792   1.434 -1.2537 -0.0496  0.6771
 3168TIP3   OH230918   3.177   0.224  12.123 -0.0780 -0.4696  0.0548
 3168TIP3    H130919   3.214   0.297  12.073 -1.4262  1.8832  2.2629
 3168TIP3    H230920   3.123   0.176  12.060 -0.7668  1.6656 -1.0556
 3169TIP3   OH230921   0.149   2.796   1.444  0.5024 -0.0013  0.4669
 3169TIP3    H130922   0.143   2.891   1.436  0.1990 -0.0587 -0.0118
 3169TIP3    H230923   0.222   2.781   1.504  0.1191  0.5459  1.0702
 3170TIP3   OH230924   2.022   5.409   1.037 -0.4485 -0.4617 -0.4328
 3170TIP3    H130925   2.027   5.383   1.128 -3.5673 -2.1145 -0.5906
 3170TIP3    H230926   2.083   5.351   0.992  0.6383 -0.0607  0.4738
 3171TIP3   OH230927   3.549   5.603  13.455  1.0264  0.5223 -0.3186
 3171TIP3    H130928   3.568   5.522  13.409 -0.3845 -0.3800  0.6212
 3171TIP3    H230929   3.553   5.671  13.388  1.1804 -0.4578 -1.3140
 3172TIP3   OH230930   6.215   5.329  15.850 -0.0204 -0.4376 -0.8651
 3172TIP3    H130931   6.192   5.296  15.937  1.1487 -1.2165 -0.8339
 3172TIP3    H230932   6.166   5.273  15.789  2.2922 -2.6781 -0.8342
 3173TIP3   OH230933   4.114   4.040   5.266 -0.4927  0.3381 -0.2095
 3173TIP3    H130934   4.065   3.958   5.264  0.6596 -0.3624 -1.0881
 3173TIP3    H230935   4.101   4.074   5.354 -0.7124 -0.9621  0.2752
 3174TIP3   OH230936   0.627   1.244   5.572  0.3442 -0.4702 -0.2327
 3174TIP3    H130937   0.621   1.319   5.631 -0.1842  0.3223 -1.2478
 3174TIP3    H230938   0.710   1.202   5.595  0.6003  0.3710  0.4293
 3175TIP3   OH230939   4.691   4.347   0.424 -0.0606  0.3179 -0.6006
 3175TIP3    H130940   4.694   4.258   0.388  0.8017 -0.1182  0.4987
 3175TIP3    H230941   4.710   4.337   0.517  0.7915  1.7215 -0.5798
 3176TIP3   OH230942   2.254   5.533  13.781 -0.0024 -0.4175  0.5045
 3176TIP3    H130943   2.239   5.489  13.865 -0.1867 -1.4225 -0.0345
 3176TIP3    H230944   2.255   5.626  13.802  0.3596 -0.6764  1.6813
 3177TIP3   OH230945   5.471   1.088  16.374 -0.4103 -0.1610 -0.0073
 3177TIP3    H130946   5.493   1.156  16.310  0.6035 -1.1744 -0.7829
 3177TIP3    H230947   5.554   1.068  16.417 -0.9788  0.1092  1.2649
 3178TIP3   OH230948   5.566   4.490   3.446  0.4265  0.5019  0.2335
 3178TIP3    H130949   5.583   4.490   3.352  0.4004 -1.3618  0.1997
 3178TIP3    H230950   5.637   4.543   3.483  0.7077  0.8530 -0.7815
 3179TIP3   OH230951   1.404   1.324   4.535 -0.1743 -0.6636 -0.1846
 3179TIP3    H130952   1.314   1.346   4.556  0.2592  1.0781 -0.0175
 3179TIP3    H230953   1.419   1.361   4.448  0.8454  0.5495  0.4745
 3180TIP3   OH230954   2.583   2.683  16.368  0.5143  0.7278 -0.2494
 3180TIP3    H130955   2.487   2.678  16.376  0.4892 -1.1276 -1.2551
 3180TIP3    H230956   2.600   2.776  16.352 -1.0682  1.1799  0.4574
 3181TIP3   OH230957   4.786   6.689  15.904  0.0301  0.0079 -0.2453
 3181TIP3    H130958   4.739   6.618  15.948  0.3291  1.3860  2.5292
 3181TIP3    H230959   4.719   6.730  15.848 -0.5801 -1.3775 -0.5752
 3182TIP3   OH230960   5.314   5.808  13.195 -0.4991  0.3334 -0.0884
 3182TIP3    H130961   5.263   5.876  13.240  0.7889  0.7730  0.7678
 3182TIP3    H230962   5.269   5.796  13.111 -2.4479  0.1319  0.9307
 3183TIP3   OH230963   4.578   4.557  12.312  0.1426 -0.8181  0.1972
 3183TIP3    H130964   4.623   4.594  12.235 -0.0599  0.7973  0.8175
 3183TIP3    H230965   4.624   4.474  12.328  2.6131  0.4898  0.4821
 3184TIP3   OH230966   2.660   6.141   4.404  0.3187  0.5802 -0.4501
 3184TIP3    H130967   2.626   6.230   4.394  0.4658  0.6409 -0.4126
 3184TIP3    H230968   2.596   6.085   4.359 -0.5611  0.5419  0.8064
 3185TIP3   OH230969   2.582   6.020  14.562 -0.1714  0.2909  0.6923
 3185TIP3    H130970   2.651   5.983  14.618 -0.6758 -0.1914  1.0020
 3185TIP3    H230971   2.502   6.013  14.615 -1.1085 -2.2356 -0.8565
 3186TIP3   OH230972   5.528   6.514  14.139  0.7372  0.3070 -0.1316
 3186TIP3    H130973   5.533   6.580  14.070  1.2712 -1.9074 -2.3804
 3186TIP3    H230974   5.473   6.445  14.102 -0.0423 -0.4236  2.2307
 3187TIP3   OH230975   3.354   6.337   5.342 -0.5465 -0.1102 -1.0193
 3187TIP3    H130976   3.447   6.359   5.336 -1.1676  2.6344 -1.8054
 3187TIP3    H230977   3.335   6.339   5.436 -0.1243  0.8733 -0.9457
 3188TIP3   OH230978   4.993   5.545   0.387  0.3173  0.3794  0.3900
 3188TIP3    H130979   4.973   5.527   0.479 -1.5148 -1.5127 -0.2862
 3188TIP3    H230980   4.913   5.586   0.352  0.0164 -1.1758 -0.8752
 3189TIP3   OH230981   2.164   2.658  13.176  0.0724 -0.3246 -0.3367
 3189TIP3    H130982   2.209   2.590  13.125 -0.8086  0.4427 -2.1931
 3189TIP3    H230983   2.076   2.624  13.189 -0.3148  0.3634 -1.1063
 3190TIP3   OH230984   3.789   2.353  13.186 -0.1445 -0.5210 -0.1697
 3190TIP3    H130985   3.824   2.306  13.110 -2.3325 -0.9097 -1.0059
 3190TIP3    H230986   3.698   2.373  13.163 -0.5977  0.1931  1.9702
 3191TIP3   OH230987   0.725   4.566  15.460 -0.2862  0.5594  0.2576
 3191TIP3    H130988   0.735   4.581  15.366  1.0570 -1.6015 -0.0191
 3191TIP3    H230989   0.711   4.653  15.497 -0.4172  1.5090 -1.8782
 3192TIP3   OH230990   4.821   2.268   0.772 -0.6815 -0.5493 -0.8164
 3192TIP3    H130991   4.738   2.317   0.765 -0.4586  0.2453  1.2307
 3192TIP3    H230992   4.823   2.239   0.863  1.5565 -0.0495 -0.6525
 3193TIP3   OH230993   5.535   3.951   5.859 -0.3059  0.3115  0.8814
 3193TIP3    H130994   5.594   3.983   5.927  0.3109  0.2563  0.3813
 3193TIP3    H230995   5.537   4.019   5.792 -0.0409 -0.1423  0.4220
 3194TIP3   OH230996   4.456   1.380  11.272  0.1308  0.3977  0.0735
 3194TIP3    H130997   4.372   1.360  11.315 -0.1763  1.6494  0.0957
 3194TIP3    H230998   4.439   1.460  11.223  0.7597 -0.4599 -1.5975
 3195TIP3   OH230999   6.752   2.383  11.825 -0.0952 -0.1648 -0.3342
 3195TIP3    H131000   6.703   2.329  11.763 -0.3075  1.0032 -1.2366
 3195TIP3    H231001   6.772   2.325  11.899 -0.8013 -1.2878 -1.0082
 3196TIP3   OH231002   5.968   4.691   5.189  0.0758 -0.6136  0.2146
 3196TIP3    H131003   6.025   4.721   5.261  0.3007 -0.1288 -0.1544
 3196TIP3    H231004   6.027   4.643   5.130  0.2128  0.2696 -0.3939
 3197TIP3   OH231005   2.989   3.959   3.703  0.5974  0.2555 -0.1410
 3197TIP3    H131006   3.075   3.953   3.745  0.1177 -0.6707  0.7496
 3197TIP3    H231007   2.990   3.891   3.636  0.5202  0.1474 -0.0345
 3198TIP3   OH231008   3.760   0.888   5.491 -0.0764  0.4543 -0.2634
 3198TIP3    H131009   3.753   0.827   5.418 -2.2530  0.9949 -0.5718
 3198TIP3    H231010   3.780   0.833   5.567  0.3853 -0.3247 -0.9280
 3199TIP3   OH231011   0.954   6.178  15.655 -0.8021  0.8445 -0.2089
 3199TIP3    H131012   1.019   6.187  15.585  1.3585  0.9646  1.6982
 3199TIP3    H231013   0.944   6.083  15.665  0.9683  0.7397  1.0457
 3200TIP3   OH231014   6.119   5.693  11.311  0.1504  0.0779  0.1426
 3200TIP3    H131015   6.076   5.614  11.276  2.3371 -1.7000  1.2651
 3200TIP3    H231016   6.184   5.716  11.245  0.3669  0.2141  0.4033
 3201TIP3   OH231017   3.925   4.889   4.683 -0.2952 -0.2562 -0.1302
 3201TIP3    H131018   3.897   4.962   4.738  0.7856  0.5955 -0.6910
 3201TIP3    H231019   3.847   4.868   4.630 -0.9289 -0.2160  0.7564
 3202TIP3   OH231020   1.197   4.915   3.322  0.3541 -0.4819  0.6537
 3202TIP3    H131021   1.137   4.975   3.277  1.0526  0.5700  1.0780
 3202TIP3    H231022   1.255   4.972   3.371  2.3412 -1.4089 -0.4885
 3203TIP3   OH231023   5.484   4.538   0.213 -0.1862 -0.2257 -0.0299
 3203TIP3    H131024   5.423   4.606   0.241 -0.8813 -1.3148  1.2775
 3203TIP3    H231025   5.443   4.500   0.135 -0.3685  0.1059 -0.0987
 3204TIP3   OH231026   1.819   0.906  14.726 -0.0441 -0.4291  0.2486
 3204TIP3    H131027   1.869   0.826  14.713 -1.2135 -1.1898  0.3367
 3204TIP3    H231028   1.855   0.945  14.805 -1.5344 -2.5300  2.0679
 3205TIP3   OH231029   3.771   5.926  11.827  0.7701 -0.0867 -0.2967
 3205TIP3    H131030   3.851   5.931  11.878  1.4541 -0.8617 -1.2501
 3205TIP3    H231031   3.801   5.911  11.737 -0.4411 -0.4019 -0.6685
 3206TIP3   OH231032   6.522   2.536  16.026 -0.6087 -0.1553 -0.3316
 3206TIP3    H131033   6.605   2.581  16.041 -0.2525 -1.3290  1.6047
 3206TIP3    H231034   6.494   2.507  16.113 -2.2401 -1.1768 -1.1369
 3207TIP3   OH231035   0.606   0.052   3.165 -0.3375  0.3875 -0.2349
 3207TIP3    H131036   0.540   0.116   3.138  0.7626  1.3532 -0.7190
 3207TIP3    H231037   0.604   0.054   3.261  0.1845  1.7203 -0.2270
 3208TIP3   OH231038   5.609   6.079  14.177  0.3671 -0.4839  0.3260
 3208TIP3    H131039   5.618   5.997  14.224  1.9961 -0.0991  0.7628
 3208TIP3    H231040   5.604   6.054  14.084  0.9719 -1.0744  0.4462
 3209TIP3   OH231041   0.911   0.178   1.804 -0.0156 -0.2071  0.1719
 3209TIP3    H131042   0.850   0.170   1.878 -0.1306  1.1262  0.2403
 3209TIP3    H231043   0.978   0.239   1.834  2.7257 -3.3019  0.9449
 3210TIP3   OH231044   6.544   1.696   2.310  0.9727  0.3240 -0.3086
 3210TIP3    H131045   6.460   1.670   2.275  0.8994  1.3204 -0.9247
 3210TIP3    H231046   6.599   1.711   2.233  1.3502  0.8110  0.0420
 3211TIP3   OH231047   0.405   1.452   3.693 -0.6749  0.2380  0.2094
 3211TIP3    H131048   0.486   1.453   3.744 -1.0900 -0.2461  0.9097
 3211TIP3    H231049   0.433   1.447   3.602  0.0798  0.2078  0.4413
 3212TIP3   OH231050   0.296   0.647  16.989  0.2611  0.0276  0.1080
 3212TIP3    H131051   0.319   0.689  16.906  0.4376 -0.5004 -0.1117
 3212TIP3    H231052   0.212   0.685  17.012  0.7114  0.9766  0.2356
 3213TIP3   OH231053   3.084   5.626   4.722  0.4687  0.2807  0.7853
 3213TIP3    H131054   3.164   5.591   4.683 -0.0100 -0.3645  0.3664
 3213TIP3    H231055   3.079   5.716   4.689  0.5292  0.0239  0.0634
 3214TIP3   OH231056   2.334   5.108   1.286  0.7113  0.0240  0.3068
 3214TIP3    H131057   2.348   5.174   1.354  0.7944  0.1580  0.1592
 3214TIP3    H231058   2.322   5.026   1.335 -1.3512  0.4544  0.5860
 3215TIP3   OH231059   1.154   6.274   6.615 -0.3217  0.0123  1.2558
 3215TIP3    H131060   1.146   6.348   6.555 -0.9204 -0.2218  1.0406
 3215TIP3    H231061   1.232   6.226   6.584 -2.3054 -1.8734 -1.3594
 3216TIP3   OH231062   3.117   2.129   5.037 -0.5578  0.6983 -0.0989
 3216TIP3    H131063   3.165   2.062   5.086 -3.0796 -1.0693  0.1247
 3216TIP3    H231064   3.029   2.093   5.026 -1.5210  3.2281 -1.5800
 3217TIP3   OH231065   1.468   5.944   0.069  0.5152  0.2762 -0.0161
 3217TIP3    H131066   1.461   5.976  -0.021  2.9796 -0.5800 -0.6039
 3217TIP3    H231067   1.495   6.021   0.120  1.1477  0.3409 -0.4278
 3218TIP3   OH231068   0.641   4.739  10.725 -0.0362  0.5962 -0.2561
 3218TIP3    H131069   0.734   4.727  10.742  0.3726 -2.0910 -3.3137
 3218TIP3    H231070   0.599   4.664  10.767 -0.8620  1.6706  0.9121
 3219TIP3   OH231071   2.104   2.652  16.706  0.2353  0.2595  0.3498
 3219TIP3    H131072   2.064   2.653  16.792 -2.0129  1.3702 -0.6292
 3219TIP3    H231073   2.083   2.737  16.668  1.2987 -0.1282 -1.2294
 3220TIP3   OH231074   1.138   6.737   2.322 -0.6361  0.3202  0.4725
 3220TIP3    H131075   1.200   6.695   2.382  0.1838  1.2239  0.2818
 3220TIP3    H231076   1.098   6.807   2.373  0.9782  1.9204 -0.3141
 3221TIP3   OH231077   2.819   5.513   5.868 -0.5081 -0.3746  0.7303
 3221TIP3    H131078   2.858   5.599   5.886 -0.0264 -0.3218 -0.4539
 3221TIP3    H231079   2.888   5.451   5.892  1.7370 -0.2147 -4.1415
 3222TIP3   OH231080   5.686   1.214  15.210 -0.3156  0.0595 -0.6890
 3222TIP3    H131081   5.651   1.144  15.155 -0.7087  0.7586 -1.3351
 3222TIP3    H231082   5.692   1.290  15.153  0.7769  0.3809 -0.1764
 3223TIP3   OH231083   0.569   2.662   1.433  0.3496 -0.0974 -0.2166
 3223TIP3    H131084   0.475   2.682   1.430  0.6013  1.1662 -0.7927
 3223TIP3    H231085   0.577   2.577   1.390 -0.7646 -1.3854  1.9326
 3224TIP3   OH231086   5.781   5.303  11.400  0.7124  0.3927  0.0408
 3224TIP3    H131087   5.872   5.308  11.430  0.7574  0.8148 -0.1598
 3224TIP3    H231088   5.770   5.212  11.372  1.7754  0.8456 -2.0818
 3225TIP3   OH231089   1.892   2.771   2.872 -0.1640  0.4769  0.0160
 3225TIP3    H131090   1.943   2.833   2.924 -0.6918  0.2968  0.7589
 3225TIP3    H231091   1.913   2.793   2.781  0.9146  0.6720  0.2957
 3226TIP3   OH231092   1.059   4.817   5.579 -0.1496 -0.0299  0.2933
 3226TIP3    H131093   1.069   4.911   5.598 -1.4070 -0.4139  3.5089
 3226TIP3    H231094   0.974   4.810   5.537 -0.3556  0.2271  0.6613
 3227TIP3   OH231095   5.999   0.343   3.257 -0.0440 -0.4108 -0.4007
 3227TIP3    H131096   6.048   0.328   3.175  1.4507  1.6926  0.0359
 3227TIP3    H231097   5.971   0.434   3.252  1.0050  0.0946  1.8647
 3228TIP3   OH231098   1.283   6.250   0.811 -0.3636 -0.0070  0.3136
 3228TIP3    H131099   1.360   6.255   0.868  0.6413 -2.3266 -0.6984
 3228TIP3    H231100   1.254   6.160   0.817 -1.9575  0.3961 -0.6871
 3229TIP3   OH231101   6.254   3.403  13.127  0.3095  0.6435 -0.3990
 3229TIP3    H131102   6.349   3.411  13.121  0.5064 -0.2054  0.9598
 3229TIP3    H231103   6.220   3.478  13.079  1.6434  0.6126 -1.4545
 3230TIP3   OH231104   1.292   1.055  11.196  0.1901 -0.4634 -0.5421
 3230TIP3    H131105   1.270   0.964  11.174 -3.1007  0.2967 -0.9263
 3230TIP3    H231106   1.363   1.048  11.260 -0.0886 -3.2864 -0.4254
 3231TIP3   OH231107   3.693   5.153   1.634 -0.0177 -0.1614 -0.1418
 3231TIP3    H131108   3.681   5.221   1.568  0.5491 -0.4075 -0.5014
 3231TIP3    H231109   3.751   5.090   1.593  2.0966  0.7187  1.3157
 3232TIP3   OH231110   6.537   0.844  11.364  0.0481  0.6520  0.1113
 3232TIP3    H131111   6.491   0.794  11.432  0.4361 -0.4144 -0.3898
 3232TIP3    H231112   6.506   0.806  11.281  0.1045  1.4719 -0.2985
 3233TIP3   OH231113   1.100   1.920   3.676  0.0772  0.2227 -0.1896
 3233TIP3    H131114   1.146   1.965   3.747  0.6893  1.1074 -1.1193
 3233TIP3    H231115   1.028   1.874   3.720  2.1547 -1.7056  1.3962
 3234TIP3   OH231116   1.036   3.535   3.709 -0.1112 -0.3695 -0.3058
 3234TIP3    H131117   1.077   3.450   3.692  0.1021 -0.0878 -1.2979
 3234TIP3    H231118   1.108   3.590   3.740 -0.7495 -1.2533  3.0992
 3235TIP3   OH231119   5.429   1.719  16.041  0.4368  0.2302 -0.5456
 3235TIP3    H131120   5.376   1.785  16.086  1.2294 -0.0671  0.8848
 3235TIP3    H231121   5.367   1.650  16.017 -0.1098  0.6988 -0.4963
 3236TIP3   OH231122   0.498   2.985  13.196  0.0181  0.4148  0.3636
 3236TIP3    H131123   0.496   2.984  13.100  0.8431 -0.7315  0.3351
 3236TIP3    H231124   0.408   2.964  13.222  0.2938 -1.8637 -0.2252
 3237TIP3   OH231125   1.018   2.043  12.348 -0.2650 -0.5550  0.6595
 3237TIP3    H131126   1.010   2.067  12.256 -0.9856  0.1444  0.8929
 3237TIP3    H231127   0.928   2.045  12.382 -0.2095 -2.3227  1.0266
 3238TIP3   OH231128   0.321   6.430  13.953 -0.2797  0.1099  0.0915
 3238TIP3    H131129   0.348   6.440  14.045  0.4816 -0.1070 -0.0994
 3238TIP3    H231130   0.389   6.476  13.903 -1.0927  0.8839 -0.3306
 3239TIP3   OH231131   0.944   4.802  16.938  0.2616 -0.0267 -0.0400
 3239TIP3    H131132   0.992   4.853  17.003  0.0033 -0.3787  0.4337
 3239TIP3    H231133   0.864   4.775  16.983 -0.7875  1.2212 -1.0728
 3240TIP3   OH231134   6.723   3.269  17.052 -0.1722 -0.2756 -0.3044
 3240TIP3    H131135   6.667   3.288  16.976  0.4208  0.9510 -0.4615
 3240TIP3    H231136   6.711   3.344  17.110 -0.4920 -1.1249  0.7552
 3241TIP3   OH231137   1.494   5.083   3.573  0.3624  0.3911 -0.2958
 3241TIP3    H131138   1.527   5.028   3.503 -1.4098 -0.0282 -0.8479
 3241TIP3    H231139   1.544   5.057   3.650  1.2020 -0.2853 -1.0526
 3242TIP3   OH231140   0.444   6.183   0.845  1.0912 -0.2074 -0.3378
 3242TIP3    H131141   0.438   6.242   0.769  0.9944  0.4075  0.1430
 3242TIP3    H231142   0.360   6.194   0.890  1.0740 -0.7158 -0.2429
 3243TIP3   OH231143   3.435   1.153  10.745 -0.3126  0.3986  0.4860
 3243TIP3    H131144   3.483   1.224  10.787  0.2262 -0.6548  1.7334
 3243TIP3    H231145   3.439   1.173  10.652  0.9362  1.3326  0.7174
 3244TIP3   OH231146   4.072   2.681  15.983 -0.2777 -0.1560  0.1052
 3244TIP3    H131147   4.120   2.755  15.947 -0.6257  0.1608  0.2867
 3244TIP3    H231148   4.128   2.647  16.053 -1.1222  1.3571  1.5624
 3245TIP3   OH231149   0.526   5.443   3.190  0.1960  0.7247 -0.1725
 3245TIP3    H131150   0.613   5.469   3.161  0.1777  0.1647 -0.7593
 3245TIP3    H231151   0.517   5.481   3.277  0.6514  1.5906 -0.4876
 3246TIP3   OH231152   2.467   4.397  10.944 -0.3045  0.1514  0.2144
 3246TIP3    H131153   2.405   4.434  10.881  1.8993 -0.1205 -2.2640
 3246TIP3    H231154   2.413   4.378  11.021 -2.8771  1.8237 -1.0058
 3247TIP3   OH231155   1.248   3.185   2.847  0.3785 -0.1542  0.2362
 3247TIP3    H131156   1.234   3.196   2.753 -1.0100 -1.5426  0.2304
 3247TIP3    H231157   1.160   3.171   2.882  1.0699 -1.9621  1.3787
 3248TIP3   OH231158   0.946   3.809  11.521  0.7307 -0.3376 -0.1587
 3248TIP3    H131159   1.017   3.752  11.550 -1.1142 -3.2423 -0.8928
 3248TIP3    H231160   0.974   3.842  11.436  1.5811 -0.6259  0.0000
 3249TIP3   OH231161   6.332   3.935   4.418 -0.0194  0.1603 -0.0494
 3249TIP3    H131162   6.296   4.020   4.445 -0.9486 -0.2798  0.1300
 3249TIP3    H231163   6.383   3.906   4.494 -0.8602 -0.0861  0.4250
 3250TIP3   OH231164   1.551   2.077  14.076  0.4616  0.2327 -0.0390
 3250TIP3    H131165   1.509   2.125  14.147  0.1099  3.0048 -2.0065
 3250TIP3    H231166   1.571   1.991  14.115 -1.2403  0.9997  2.8484
 3251TIP3   OH231167   5.866   0.931  11.465  0.7092 -0.0089  0.1931
 3251TIP3    H131168   5.837   0.958  11.552 -1.7422  0.1263 -0.5867
 3251TIP3    H231169   5.872   1.013  11.416  0.4281 -0.2295 -0.2125
 3252TIP3   OH231170   1.550   0.138   2.321 -0.2814 -0.5084  0.1505
 3252TIP3    H131171   1.506   0.123   2.405 -0.2780 -0.2015  0.2076
 3252TIP3    H231172   1.504   0.213   2.283  0.7648  0.3887  0.6155
 3253TIP3   OH231173   0.330   5.312   3.056  0.2537 -0.1061  0.4150
 3253TIP3    H131174   0.382   5.263   2.993 -2.5897 -1.7418 -0.8475
 3253TIP3    H231175   0.394   5.353   3.113  2.9233 -0.6065 -1.9904
 3254TIP3   OH231176   1.818   4.153  12.065 -0.2851 -0.3029 -0.0625
 3254TIP3    H131177   1.878   4.224  12.090 -2.8233  1.7372  0.6580
 3254TIP3    H231178   1.801   4.168  11.972  1.5391 -1.9329 -0.7240
 3255TIP3   OH231179   6.343   3.871   5.305 -0.1567 -0.0545 -0.2113
 3255TIP3    H131180   6.412   3.806   5.297 -1.9642 -1.9981 -1.1063
 3255TIP3    H231181   6.270   3.824   5.346 -0.9398  1.9405  0.8352
 3256TIP3   OH231182   1.594   0.557  12.805 -0.5504  0.7789 -0.2302
 3256TIP3    H131183   1.533   0.598  12.744 -0.0349 -0.4746 -1.6614
 3256TIP3    H231184   1.629   0.482  12.757  1.0745  0.6597  1.0482
 3257TIP3   OH231185   6.126   0.632   4.802 -0.1972  0.4263 -0.4909
 3257TIP3    H131186   6.061   0.701   4.792  0.5604  1.4161  0.9920
 3257TIP3    H231187   6.196   0.672   4.853 -0.1128 -1.6623  1.2130
 3258TIP3   OH231188   0.827   1.782  12.591 -0.0266  0.0208  0.6075
 3258TIP3    H131189   0.905   1.779  12.537 -0.0936 -4.3031  0.4356
 3258TIP3    H231190   0.860   1.772  12.681 -0.2707 -3.7048  0.4120
 3259TIP3   OH231191   1.394   5.958  12.407  0.1607 -0.1449  0.1473
 3259TIP3    H131192   1.395   6.004  12.322  0.6096  0.2642  0.3686
 3259TIP3    H231193   1.301   5.944  12.425 -0.1909  2.8646  1.2269
 3260TIP3   OH231194   5.537   0.377  17.245  0.6970 -0.3901  0.2555
 3260TIP3    H131195   5.514   0.416  17.161  0.4679 -1.2273 -0.0760
 3260TIP3    H231196   5.476   0.305  17.256 -1.3050  1.4723  2.5566
 3261TIP3   OH231197   2.112   4.967   1.086 -0.0855 -0.9677  0.7323
 3261TIP3    H131198   2.171   5.041   1.072 -0.1551 -1.2834 -1.7315
 3261TIP3    H231199   2.169   4.890   1.085 -0.4113 -1.2691 -1.6200
 3262TIP3   OH231200   4.757   3.711   4.839 -0.5668 -0.6894 -0.1599
 3262TIP3    H131201   4.773   3.804   4.857  1.0885 -0.9521 -0.1999
 3262TIP3    H231202   4.819   3.664   4.894 -2.3208 -1.8605  0.9062
 3263TIP3   OH231203   1.164   5.315  16.971 -0.2700  0.6338  0.1150
 3263TIP3    H131204   1.080   5.323  17.016  0.1535  2.0084  0.6855
 3263TIP3    H231205   1.227   5.361  17.026  0.4645  1.4537 -1.3390
 3264TIP3   OH231206   4.016   6.363   4.352 -0.4365 -0.9868  0.0329
 3264TIP3    H131207   4.058   6.298   4.408  1.7010  0.7040  0.5427
 3264TIP3    H231208   4.010   6.320   4.266  0.0098 -2.1756  0.5785
 3265TIP3   OH231209   2.011   6.474   5.494 -0.2279  0.4065 -0.2396
 3265TIP3    H131210   2.068   6.483   5.418 -0.6245  0.7687 -0.5007
 3265TIP3    H231211   1.952   6.402   5.471  1.8457 -1.9266  1.1498
 3266TIP3   OH231212   5.866   2.294   1.182  0.1596 -0.0969 -0.3676
 3266TIP3    H131213   5.896   2.255   1.100  0.7910 -1.4272  0.4626
 3266TIP3    H231214   5.870   2.222   1.246  0.2249  1.0410  0.9559
 3267TIP3   OH231215   3.978   3.377   6.441 -0.9803  0.7824 -0.7428
 3267TIP3    H131216   4.019   3.294   6.417 -3.5001 -1.5079  2.0654
 3267TIP3    H231217   4.052   3.437   6.456  1.7854 -3.0604  4.3069
 3268TIP3   OH231218   5.619   5.167  14.366 -0.3530 -0.0088 -0.8645
 3268TIP3    H131219   5.705   5.130  14.386 -0.6515  1.1385  3.3350
 3268TIP3    H231220   5.560   5.125  14.428 -2.2941  1.3475 -1.6965
 3269TIP3   OH231221   1.748   5.374   5.036  0.0191 -0.0596 -0.1430
 3269TIP3    H131222   1.762   5.316   5.110 -2.7982 -0.4325  0.2225
 3269TIP3    H231223   1.740   5.315   4.961  0.9178  0.1735 -0.4322
 3270TIP3   OH231224   2.734   3.536   1.559  0.5814 -0.1987 -0.7729
 3270TIP3    H131225   2.753   3.443   1.573  0.6683 -0.2399 -1.1456
 3270TIP3    H231226   2.674   3.559   1.629  0.6305 -0.5151 -0.6237
 3271TIP3   OH231227   1.008   3.464  13.217  0.0911 -0.1246 -0.5275
 3271TIP3    H131228   1.015   3.534  13.152 -0.3086  0.1746 -0.2487
 3271TIP3    H231229   1.094   3.462  13.259 -0.1363  0.7247 -0.0015
 3272TIP3   OH231230   4.139   5.750   3.014  0.0886 -0.6150  0.0068
 3272TIP3    H131231   4.231   5.741   2.991  0.3361 -0.2944  0.8639
 3272TIP3    H231232   4.138   5.773   3.106 -0.8156  0.4154 -0.2357
 3273TIP3   OH231233   2.032   3.289   4.452 -0.0791 -0.0220  0.0990
 3273TIP3    H131234   1.949   3.320   4.489  0.2546 -1.1784  1.9455
 3273TIP3    H231235   2.098   3.346   4.492  0.3465 -1.7013  1.9789
 3274TIP3   OH231236   6.025   5.006   2.786 -0.3845  0.4576  0.2734
 3274TIP3    H131237   6.064   4.952   2.855  1.2656 -1.4859 -2.0084
 3274TIP3    H231238   5.967   4.946   2.739 -0.4760  1.3624 -0.8233
 3275TIP3   OH231239   6.230   0.587  12.136 -0.0747 -0.4626 -0.3777
 3275TIP3    H131240   6.180   0.643  12.196 -0.4928 -1.4065  0.1765
 3275TIP3    H231241   6.243   0.642  12.058  0.5741  0.8273  0.5965
 3276TIP3   OH231242   5.763   1.536  16.750 -0.1215 -0.4145 -0.1524
 3276TIP3    H131243   5.732   1.474  16.683  1.3930 -1.7418  0.3092
 3276TIP3    H231244   5.812   1.602  16.700 -0.2751 -0.5513 -0.4921
 3277TIP3   OH231245   6.603   4.873  15.089  0.0697 -0.0428 -0.1334
 3277TIP3    H131246   6.562   4.935  15.150  1.4839 -0.7818  1.6771
 3277TIP3    H231247   6.693   4.904  15.079 -0.5088  0.9720 -3.2183
 3278TIP3   OH231248   1.452   0.335  14.894 -0.4680  0.3479  0.0965
 3278TIP3    H131249   1.422   0.394  14.824  1.0919  2.5034  1.1435
 3278TIP3    H231250   1.438   0.384  14.975 -1.0109 -1.5779  1.2345
 3279TIP3   OH231251   4.682   0.216   2.054 -0.4270  0.1252 -0.1271
 3279TIP3    H131252   4.673   0.123   2.036  0.8844 -0.0577  0.0684
 3279TIP3    H231253   4.764   0.223   2.103  0.3655  1.5584 -1.5863
 3280TIP3   OH231254   1.698   1.184  15.018 -0.2888 -0.2270  0.1283
 3280TIP3    H131255   1.753   1.106  15.028  1.1475  0.9575  2.1846
 3280TIP3    H231256   1.759   1.257  15.023 -2.0107  1.1951  3.1188
 3281TIP3   OH231257   1.160   3.288  11.625  0.1700 -0.0493 -0.1546
 3281TIP3    H131258   1.162   3.326  11.537  1.1828  0.6608  0.1498
 3281TIP3    H231259   1.086   3.228  11.624  0.3635 -0.2931 -1.5912
 3282TIP3   OH231260   6.240   6.209   0.586  0.2676 -0.6901 -0.2684
 3282TIP3    H131261   6.220   6.131   0.535 -1.1497 -0.2402 -0.4467
 3282TIP3    H231262   6.295   6.177   0.658 -1.0382 -2.0427  0.1938
 3283TIP3   OH231263   6.545   1.085   5.924 -0.3808  0.1381  0.8343
 3283TIP3    H131264   6.556   1.110   6.016 -1.4008 -1.0327  1.3031
 3283TIP3    H231265   6.595   1.003   5.916  1.4654  1.3052 -0.2223
 3284TIP3   OH231266   4.072   5.196   4.641  0.1117  0.6674 -0.7362
 3284TIP3    H131267   4.153   5.189   4.692 -0.1124 -0.0982 -0.4633
 3284TIP3    H231268   4.055   5.290   4.636 -0.9730  0.7824  2.4253
 3285TIP3   OH231269   2.856   1.637   5.176 -0.0802 -0.2484 -0.5000
 3285TIP3    H131270   2.849   1.730   5.156 -1.5121 -0.4740 -1.2176
 3285TIP3    H231271   2.808   1.626   5.259  1.8999 -0.0448  0.7292
 3286TIP3   OH231272   3.207   5.033   2.301  0.2558 -0.8950 -0.4177
 3286TIP3    H131273   3.196   5.019   2.395  2.3532 -0.8021 -0.1090
 3286TIP3    H231274   3.267   5.108   2.295  0.2845 -1.0001 -1.8333
 3287TIP3   OH231275   4.582   6.633   5.311 -0.7622  0.0615 -0.0481
 3287TIP3    H131276   4.668   6.654   5.274 -1.1929  0.8730 -0.6251
 3287TIP3    H231277   4.600   6.605   5.401  0.4361 -2.9265 -1.0886
 3288TIP3   OH231278   4.691   1.281   3.409 -0.0906 -0.2467 -0.3040
 3288TIP3    H131279   4.662   1.338   3.480  0.6724 -0.5278  0.2504
 3288TIP3    H231280   4.670   1.330   3.329  0.2446  0.6715  0.1475
 3289TIP3   OH231281   4.171   5.598  13.751  0.0663 -0.0326  0.2327
 3289TIP3    H131282   4.243   5.626  13.694  0.8515 -0.5459  0.9491
 3289TIP3    H231283   4.165   5.503  13.737 -1.0637  0.1213 -0.4698
 3290TIP3   OH231284   0.269   2.386  17.146  0.2904  0.0965  0.4563
 3290TIP3    H131285   0.261   2.344  17.231  1.4648  0.3320  0.7021
 3290TIP3    H231286   0.356   2.426  17.147  0.9152 -1.0833 -1.3785
 3291TIP3   OH231287   2.306   3.691   5.182 -0.1090  0.1630  0.3359
 3291TIP3    H131288   2.261   3.717   5.102  0.3891 -0.0992 -0.0367
 3291TIP3    H231289   2.248   3.628   5.223  0.2648 -0.7892 -0.5516
 3292TIP3   OH231290   0.155   2.733   2.867  0.0855  0.0635 -0.1755
 3292TIP3    H131291   0.061   2.722   2.873  0.1179 -0.5868 -0.8287
 3292TIP3    H231292   0.189   2.691   2.946 -0.1741  0.3915  0.1126
 3293TIP3   OH231293   3.738   2.941   4.046  0.2649  0.5002  0.4831
 3293TIP3    H131294   3.726   2.890   4.126  0.7225  1.6278  1.2948
 3293TIP3    H231295   3.666   3.004   4.047  1.0689  1.4272  0.7330
 3294TIP3   OH231296   4.992   2.260  15.189  0.0556 -0.2588 -0.4400
 3294TIP3    H131297   5.057   2.253  15.259 -0.5362 -0.4782  0.0918
 3294TIP3    H231298   5.031   2.322  15.127  0.0284  0.9310  0.6915
 3295TIP3   OH231299   0.622   2.484   5.934  0.1298 -0.3096 -0.3168
 3295TIP3    H131300   0.577   2.520   5.858  2.6322  2.5203 -0.6792
 3295TIP3    H231301   0.554   2.476   6.001 -1.4159  1.0379 -1.6424
 3296TIP3   OH231302   3.701   4.310  12.115  0.2020  0.2600  0.2789
 3296TIP3    H131303   3.673   4.370  12.184  0.0818  0.2407  0.2476
 3296TIP3    H231304   3.647   4.334  12.039  0.1242  0.0858  0.2775
 3297TIP3   OH231305   5.974   6.142   1.124  0.8422 -0.6584  0.3674
 3297TIP3    H131306   6.006   6.053   1.133  0.0191 -0.8997  1.0462
 3297TIP3    H231307   5.912   6.138   1.050  1.8569 -0.3323 -0.5226
 3298TIP3   OH231308   2.067   5.444   0.705 -0.0246 -0.2846  0.2309
 3298TIP3    H131309   2.087   5.375   0.768  0.8538 -0.3985 -0.1503
 3298TIP3    H231310   1.990   5.413   0.658  1.4233 -1.9120 -1.2037
 3299TIP3   OH231311   5.782   2.588   3.512  0.5202  0.4715 -0.3513
 3299TIP3    H131312   5.851   2.646   3.481 -2.2020  2.6674 -2.8394
 3299TIP3    H231313   5.709   2.646   3.534 -1.2830 -1.8207  0.1776
 3300TIP3   OH231314   3.984   0.114  14.099  0.1740  0.2268 -0.1793
 3300TIP3    H131315   3.998   0.045  14.164  0.6563  2.1425  1.8623
 3300TIP3    H231316   3.889   0.123  14.093  0.1270  0.2198  0.4861
 3301TIP3   OH231317   5.488   5.955  12.655  0.0210  0.1466 -0.0902
 3301TIP3    H131318   5.445   5.906  12.725  0.4911 -0.9572 -0.5361
 3301TIP3    H231319   5.563   5.997  12.696  1.1833 -1.7171 -0.1566
 3302TIP3   OH231320   2.391   1.139   4.714  0.3061 -0.0560 -0.5154
 3302TIP3    H131321   2.410   1.221   4.758 -1.2567 -0.2890  0.6933
 3302TIP3    H231322   2.467   1.123   4.658  1.4988  1.2135  0.6831
 3303TIP3   OH231323   4.135   5.859   0.815 -0.4685  0.4913  0.7297
 3303TIP3    H131324   4.143   5.780   0.869  0.2885  1.3675  1.9255
 3303TIP3    H231325   4.209   5.855   0.756 -0.5671  0.1918  0.6218
 3304TIP3   OH231326   1.646   1.562   0.765  0.2659 -0.4042 -0.0401
 3304TIP3    H131327   1.695   1.512   0.830 -2.1336 -1.6362  0.9154
 3304TIP3    H231328   1.645   1.505   0.688 -0.5954 -0.8964  0.3220
 3305TIP3   OH231329   5.180   2.706  10.755 -0.2540  0.2210  0.8450
 3305TIP3    H131330   5.171   2.612  10.742  0.5065  0.2365  0.1459
 3305TIP3    H231331   5.090   2.739  10.752 -0.4583 -0.3713  0.2157
 3306TIP3   OH231332   1.880   3.168  14.762  0.3021  1.0667 -0.2693
 3306TIP3    H131333   1.936   3.156  14.685  1.7158 -1.1817  0.9892
 3306TIP3    H231334   1.795   3.135  14.736  1.1917 -1.2336 -0.4477
 3307TIP3   OH231335   4.296   4.321  13.601 -0.2657 -0.0204 -0.2714
 3307TIP3    H131336   4.322   4.401  13.645  1.6811  0.7179 -2.5270
 3307TIP3    H231337   4.216   4.293  13.646  0.4423  1.7088  2.2662
 3308TIP3   OH231338   3.318   3.357   3.369  0.1034  0.8390 -0.2981
 3308TIP3    H131339   3.307   3.281   3.427  1.0883 -0.5913 -1.9033
 3308TIP3    H231340   3.229   3.375   3.337 -0.0786  0.0415 -0.2783
 3309TIP3   OH231341   3.214   5.754   5.321  0.4025 -0.0548 -0.0020
 3309TIP3    H131342   3.197   5.760   5.415  1.8538  0.3498  0.2733
 3309TIP3    H231343   3.151   5.813   5.280 -0.7550 -0.8162  0.6286
 3310TIP3   OH231344   3.530   1.274  13.969 -0.7274 -0.2760 -0.0035
 3310TIP3    H131345   3.590   1.237  14.034  0.8902  1.3933 -0.4670
 3310TIP3    H231346   3.462   1.317  14.020  0.8821  1.6001  0.6861
 3311TIP3   OH231347   4.742   2.834  15.807 -0.6601  0.4203  0.1945
 3311TIP3    H131348   4.799   2.867  15.876 -2.5062 -0.0683  2.0183
 3311TIP3    H231349   4.709   2.750  15.840 -1.2569 -0.0457 -1.4698
 3312TIP3   OH231350   6.613   1.941  13.219 -0.8662  0.2472 -0.1077
 3312TIP3    H131351   6.638   1.851  13.197 -0.1002  0.2798  0.6141
 3312TIP3    H231352   6.695   1.990  13.217 -1.0838  0.6627  0.7824
 3313TIP3   OH231353   1.886   0.238   0.884 -0.4977  0.2923  0.2902
 3313TIP3    H131354   1.882   0.176   0.957  0.2098  1.1218  1.0494
 3313TIP3    H231355   1.832   0.311   0.912 -1.0431  0.1885 -0.4574
 3314TIP3   OH231356   6.524   5.121   1.199  0.0178 -0.2189  0.0731
 3314TIP3    H131357   6.611   5.087   1.219  0.0619 -0.5201 -0.5822
 3314TIP3    H231358   6.540   5.208   1.161  0.1121 -0.6722 -0.9607
 3315TIP3   OH231359   3.435   4.900  16.669 -0.0124 -0.3222 -0.0517
 3315TIP3    H131360   3.351   4.930  16.705  0.2377 -0.6850  0.8501
 3315TIP3    H231361   3.421   4.900  16.574 -0.4838  1.2751 -0.0235
 3316TIP3   OH231362   3.528   5.746  14.418  0.1160 -0.0851  0.3041
 3316TIP3    H131363   3.506   5.803  14.492  0.3674 -0.0454  0.3493
 3316TIP3    H231364   3.472   5.669  14.429  1.7201 -1.1249  1.8014
 3317TIP3   OH231365   5.491   3.123  14.622  0.3429 -0.1893  0.4184
 3317TIP3    H131366   5.492   3.102  14.528  0.1603 -1.7283  0.7382
 3317TIP3    H231367   5.530   3.046  14.664  1.3818  0.9070  1.5448
 3318TIP3   OH231368   1.534   4.088  16.392 -0.2597 -0.4812 -0.2930
 3318TIP3    H131369   1.593   4.027  16.347 -0.5202 -0.4472 -0.6863
 3318TIP3    H231370   1.505   4.041  16.469  0.3440 -0.4703 -0.0535
 3319TIP3   OH231371   4.191   4.131  14.475  0.4352  0.5896  0.1930
 3319TIP3    H131372   4.102   4.134  14.441 -0.2331  3.3060  1.8625
 3319TIP3    H231373   4.247   4.128  14.397 -0.9764 -2.9696 -0.9030
 3320TIP3   OH231374   5.980   3.954  11.531 -0.5226  0.3815 -0.2454
 3320TIP3    H131375   5.975   3.901  11.611 -0.3066 -1.0437 -1.1359
 3320TIP3    H231376   6.073   3.957  11.510 -0.6466  0.0251 -0.8900
 3321TIP3   OH231377   5.049   1.336  14.620  0.0143 -0.2237 -0.0205
 3321TIP3    H131378   5.125   1.393  14.634  0.5157 -1.0785  0.7848
 3321TIP3    H231379   5.020   1.357  14.531  0.8439  0.5179 -0.1281
 3322TIP3   OH231380   3.799   1.819   3.132  0.1470 -0.6019 -0.4827
 3322TIP3    H131381   3.716   1.843   3.173  0.8575  1.4976 -0.1825
 3322TIP3    H231382   3.865   1.870   3.178  1.2509  0.1100 -2.6986
 3323TIP3   OH231383   2.465   5.680  11.156 -0.3784 -0.9065 -0.8117
 3323TIP3    H131384   2.452   5.617  11.086 -0.5697 -1.1538 -0.5577
 3323TIP3    H231385   2.381   5.682  11.202 -0.3763 -0.4596 -0.8259
 3324TIP3   OH231386   4.198   5.316   0.689  0.4160  0.3576 -0.4302
 3324TIP3    H131387   4.248   5.267   0.623 -0.7464  1.0403 -1.8810
 3324TIP3    H231388   4.156   5.386   0.639 -2.3511 -0.4491  0.6324
 3325TIP3   OH231389   2.106   1.286   0.697 -0.1505 -0.3669  0.1048
 3325TIP3    H131390   2.055   1.229   0.754  0.6655 -2.5591 -1.2094
 3325TIP3    H231391   2.132   1.229   0.624  4.2856  0.5318  0.7416
 3326TIP3   OH231392   4.651   2.923  11.204 -0.1486  0.4199 -0.4051
 3326TIP3    H131393   4.667   2.958  11.117 -1.8654 -0.3003 -1.0326
 3326TIP3    H231394   4.609   2.995  11.252 -0.1967  0.4555 -0.5011
 3327TIP3   OH231395   1.349   1.438   6.067  0.4016 -0.0018  0.0660
 3327TIP3    H131396   1.411   1.402   6.131 -0.7521 -1.0950  0.6055
 3327TIP3    H231397   1.334   1.528   6.096  0.6599 -0.1710  0.7461
 3328TIP3   OH231398   6.754   4.230  11.443  0.4365 -0.1823  0.7270
 3328TIP3    H131399   6.711   4.145  11.454  0.2922 -0.5381 -1.9473
 3328TIP3    H231400   6.710   4.270  11.368  0.7188  2.1525  1.7200
 3329TIP3   OH231401   6.247   2.401   1.570  0.8274  0.0392 -0.4199
 3329TIP3    H131402   6.246   2.329   1.506 -1.0913 -0.0315 -0.3654
 3329TIP3    H231403   6.332   2.393   1.613  2.8109  0.8899 -3.8073
 3330TIP3   OH231404   2.764   4.172   6.128  0.3388 -0.8151 -0.2481
 3330TIP3    H131405   2.726   4.098   6.176 -2.7081  1.2521  0.8824
 3330TIP3    H231406   2.775   4.140   6.039 -0.3128 -2.7920  0.3371
 3331TIP3   OH231407   4.709   3.942   1.001  0.4660  0.2101  0.1097
 3331TIP3    H131408   4.636   3.988   0.960  0.6734  0.2503 -0.2227
 3331TIP3    H231409   4.769   3.923   0.928 -0.3372 -2.0180 -0.0416
 3332TIP3   OH231410   1.741   0.694   2.973  0.0119 -0.4528 -0.1888
 3332TIP3    H131411   1.704   0.617   3.018 -0.5250 -1.0139 -1.5477
 3332TIP3    H231412   1.827   0.665   2.944 -1.1393 -1.4494 -2.8801
 3333TIP3   OH231413   6.214   1.796   2.753 -0.0506 -0.4707 -0.3824
 3333TIP3    H131414   6.243   1.783   2.844  1.1746 -0.8506 -0.8130
 3333TIP3    H231415   6.121   1.770   2.754  0.3494 -1.9971  0.4395
 3334TIP3   OH231416   2.383   4.632  16.149 -0.2172  0.2492 -0.0968
 3334TIP3    H131417   2.327   4.691  16.099  2.1768  2.9065  0.0567
 3334TIP3    H231418   2.358   4.646  16.240 -0.0330  0.6375 -0.1024
 3335TIP3   OH231419   1.516   0.203  15.287 -0.0964  0.0016  0.7977
 3335TIP3    H131420   1.600   0.161  15.269 -0.2435  0.5571 -1.5289
 3335TIP3    H231421   1.451   0.137  15.262 -0.3175  0.5524 -0.1510
 3336TIP3   OH231422   1.807   3.375   4.946  0.3730 -0.2571 -0.1345
 3336TIP3    H131423   1.764   3.292   4.924  0.9245 -0.1103 -1.9433
 3336TIP3    H231424   1.815   3.373   5.041 -0.4205 -1.8774 -0.0613
 3337TIP3   OH231425   5.618   5.030  14.635 -0.1020 -0.2578 -0.1805
 3337TIP3    H131426   5.631   5.075  14.719  0.3628  0.9139 -0.8507
 3337TIP3    H231427   5.706   5.003  14.609  0.3262  2.3340 -1.8331
 3338TIP3   OH231428   1.967   4.952  15.772 -0.3402  0.3437 -0.3260
 3338TIP3    H131429   1.913   5.012  15.721  0.9176  0.1021 -2.0129
 3338TIP3    H231430   1.985   5.000  15.853 -2.0044  0.9240 -0.2605
 3339TIP3   OH231431   1.090   3.298  14.680  0.5021 -0.1566 -0.0669
 3339TIP3    H131432   1.151   3.366  14.706 -2.4436  2.2086  1.2636
 3339TIP3    H231433   1.100   3.230  14.747  1.7996  0.0205 -0.0511
 3340TIP3   OH231434   6.197   1.039   2.398  0.1189  0.3755  0.0733
 3340TIP3    H131435   6.251   0.978   2.348  1.0094  1.2070  0.0035
 3340TIP3    H231436   6.222   1.022   2.489  0.7365  0.9643  0.0224
 3341TIP3   OH231437   6.116   6.552  11.827  0.4224 -0.2009  0.2735
 3341TIP3    H131438   6.177   6.608  11.876 -0.8316  1.2122  0.2940
 3341TIP3    H231439   6.064   6.509  11.894 -0.2456  0.5218  0.2318
 3342TIP3   OH231440   3.338   3.587  13.862  0.0174  0.2902 -0.1730
 3342TIP3    H131441   3.277   3.656  13.838 -0.3286 -0.0512 -0.2887
 3342TIP3    H231442   3.336   3.585  13.958  1.9511  2.1478 -0.0191
 3343TIP3   OH231443   5.777   3.251  16.618 -0.8237 -0.1150 -0.5522
 3343TIP3    H131444   5.849   3.213  16.567  0.2286 -1.0604  1.5238
 3343TIP3    H231445   5.701   3.243  16.561  0.5756  0.4228 -2.6085
 3344TIP3   OH231446   3.162   5.603  12.423  0.9398 -0.5661  0.9920
 3344TIP3    H131447   3.235   5.541  12.424 -0.6959 -2.7100  3.9657
 3344TIP3    H231448   3.189   5.674  12.482  1.2116 -0.5500  0.8478
 3345TIP3   OH231449   3.046   5.387  13.439 -0.4841  0.2359 -0.4974
 3345TIP3    H131450   3.018   5.393  13.531  1.1723  0.2388  0.0401
 3345TIP3    H231451   3.139   5.367  13.444 -0.2127  0.9528 -2.1860
 3346TIP3   OH231452   2.747   2.667  17.188 -0.0506 -0.3142 -0.5866
 3346TIP3    H131453   2.678   2.662  17.254  0.9451 -1.1939  0.4463
 3346TIP3    H231454   2.811   2.601  17.216  0.0170 -1.3533 -2.9068
 3347TIP3   OH231455   4.218   5.581  11.178 -0.1079  0.3639 -0.7956
 3347TIP3    H131456   4.214   5.611  11.087  0.8047 -1.4945 -1.5082
 3347TIP3    H231457   4.216   5.485  11.172 -0.3951  0.2029  1.1737
 3348TIP3   OH231458   1.691   1.162   2.409 -0.2904 -0.4911  0.6648
 3348TIP3    H131459   1.734   1.095   2.463 -0.0624 -1.7029 -0.9367
 3348TIP3    H231460   1.740   1.242   2.429  0.2454 -1.0385  1.7071
 3349TIP3   OH231461   1.966   5.036  14.737  0.2528  0.3467  1.2269
 3349TIP3    H131462   1.902   4.989  14.685 -0.3180 -0.7945  2.8667
 3349TIP3    H231463   2.045   5.039  14.683 -1.0051  1.3427 -0.6233
 3350TIP3   OH231464   5.878   5.072   4.992 -0.7805 -0.8469  0.0812
 3350TIP3    H131465   5.857   5.078   5.085  0.2978  0.9136  0.2559
 3350TIP3    H231466   5.798   5.099   4.947 -0.8590 -0.3209  0.5340
 3351TIP3   OH231467   6.650   2.531  16.604 -0.0911  0.3806 -0.4578
 3351TIP3    H131468   6.724   2.586  16.629 -1.5812  2.1527  0.3109
 3351TIP3    H231469   6.686   2.443  16.598  1.3548  0.4761  3.6159
 3352TIP3   OH231470   3.907   0.799  14.412  0.4146 -0.4518  0.1704
 3352TIP3    H131471   3.852   0.850  14.353 -0.5955 -0.2191  1.2854
 3352TIP3    H231472   3.862   0.715  14.421  1.0501 -0.8325 -0.1001
 3353TIP3   OH231473   5.926   1.566  16.964 -0.0712 -0.1923  0.0611
 3353TIP3    H131474   5.862   1.570  16.892  1.2152 -2.5099 -1.3143
 3353TIP3    H231475   5.917   1.478  16.999 -0.8901  0.9542  3.1084
 3354TIP3   OH231476   1.866   3.378   5.233 -0.0664 -0.4962  0.1072
 3354TIP3    H131477   1.819   3.395   5.314  0.1420  2.7922 -0.3115
 3354TIP3    H231478   1.945   3.332   5.260  0.1967  0.8924  1.8719
 3355TIP3   OH231479   3.369   2.836   5.408  0.2593 -0.0179 -0.5254
 3355TIP3    H131480   3.359   2.782   5.329  2.2001 -1.2744  0.0137
 3355TIP3    H231481   3.344   2.778   5.480 -1.0814  0.9828 -0.1432
 3356TIP3   OH231482   6.480   2.263   2.808 -0.1867 -0.3446 -0.1628
 3356TIP3    H131483   6.407   2.212   2.774 -1.5505  0.5056  1.3743
 3356TIP3    H231484   6.470   2.260   2.903  1.3055  0.4887  0.0552
 3357TIP3   OH231485   0.341   4.707  11.262  0.6519  0.4122 -0.6896
 3357TIP3    H131486   0.399   4.662  11.323 -0.6392  0.1622  0.4068
 3357TIP3    H231487   0.397   4.731  11.189  1.7623 -1.3519 -0.4773
 3358TIP3   OH231488   0.198   3.602   4.122 -0.4186  0.4066  0.2342
 3358TIP3    H131489   0.126   3.591   4.185 -2.1702  1.7066 -1.3969
 3358TIP3    H231490   0.159   3.581   4.037  1.8331 -1.1726 -0.5100
 3359TIP3   OH231491   3.722   2.401   5.270 -0.0910 -0.3158  0.4627
 3359TIP3    H131492   3.774   2.328   5.305 -1.6131 -1.7886 -0.1528
 3359TIP3    H231493   3.750   2.409   5.179 -0.8119 -1.0306  0.1643
 3360TIP3   OH231494   0.139   5.635  15.155  0.4328  0.5226  0.0710
 3360TIP3    H131495   0.138   5.546  15.191  1.5269  0.4705 -0.0083
 3360TIP3    H231496   0.090   5.687  15.220  0.3301 -0.0089  0.4304
 3361TIP3   OH231497   4.747   6.228  15.011 -0.0218 -0.2877 -0.5375
 3361TIP3    H131498   4.789   6.313  15.018 -0.6955 -0.0470  0.8333
 3361TIP3    H231499   4.675   6.241  14.949 -0.5056  0.3075  0.1423
 3362TIP3   OH231500   4.812   6.439  12.895  0.4061  0.2510  0.1864
 3362TIP3    H131501   4.863   6.485  12.962  3.0097 -0.6236 -1.0897
 3362TIP3    H231502   4.781   6.509  12.837  3.6132  0.6206 -1.2559
 3363TIP3   OH231503   2.359   2.371   5.406  0.3715  0.0556 -0.6852
 3363TIP3    H131504   2.408   2.413   5.477 -1.6173  0.2098  0.6948
 3363TIP3    H231505   2.419   2.370   5.332  1.8213  1.7990  0.3875
 3364TIP3   OH231506   6.280   0.740   2.957 -0.0712 -0.6198  0.2517
 3364TIP3    H131507   6.223   0.680   3.005  2.3964 -1.3747  2.4785
 3364TIP3    H231508   6.364   0.736   3.003  1.9670  0.0937 -3.0174
 3365TIP3   OH231509   4.186   3.331   1.082 -0.5593 -0.2423 -0.4755
 3365TIP3    H131510   4.136   3.333   1.001 -0.7625 -1.3108 -0.3964
 3365TIP3    H231511   4.268   3.288   1.059 -0.0936  0.6064 -0.3896
 3366TIP3   OH231512   6.620   6.445  11.072 -0.1747 -0.2814  0.4177
 3366TIP3    H131513   6.626   6.422  10.979 -0.9263 -0.3808  0.3902
 3366TIP3    H231514   6.596   6.538  11.072  0.2219 -0.1776  0.5164
 3367TIP3   OH231515   4.358   0.044  12.338 -0.2994  0.6449 -0.1355
 3367TIP3    H131516   4.338   0.137  12.344  0.4728  0.8326 -0.3009
 3367TIP3    H231517   4.364   0.015  12.429  0.2165  0.9320 -0.0743
 3368TIP3   OH231518   5.954   0.023   1.863  0.7892  0.3715  0.5235
 3368TIP3    H131519   6.031   0.055   1.912  1.2359 -2.5855  1.9649
 3368TIP3    H231520   5.880   0.042   1.921  1.0981 -1.3895  1.5645
 3369TIP3   OH231521   4.297   4.521  11.300 -0.4907 -0.0255  0.5037
 3369TIP3    H131522   4.348   4.572  11.237 -1.1972  0.8057  0.5969
 3369TIP3    H231523   4.221   4.492  11.250 -1.1207  0.7518  1.0028
 3370TIP3   OH231524   3.105   6.238   3.482 -0.2060  0.0220  0.5193
 3370TIP3    H131525   3.113   6.145   3.501 -0.7139 -0.4812 -1.5273
 3370TIP3    H231526   3.044   6.271   3.548 -1.6898 -1.5480 -0.0058
 3371TIP3   OH231527   0.409   0.496   0.977  0.1303  0.1581  0.1933
 3371TIP3    H131528   0.439   0.433   1.041  0.6219  1.2903  1.1069
 3371TIP3    H231529   0.480   0.503   0.914 -0.1297 -0.5457 -0.1921
 3372TIP3   OH231530   0.323   3.103  11.332 -0.2608 -0.3785 -0.1316
 3372TIP3    H131531   0.245   3.113  11.277  0.5173 -1.0456 -1.4035
 3372TIP3    H231532   0.301   3.031  11.392 -0.2433 -1.2989 -1.2044
 3373TIP3   OH231533   4.871   0.417  16.139 -0.2553 -0.1515 -0.1009
 3373TIP3    H131534   4.955   0.374  16.126  0.6354  2.0500 -2.6837
 3373TIP3    H231535   4.807   0.359  16.097  0.1744 -1.0800  0.5003
 3374TIP3   OH231536   5.495   1.859   3.292  0.3519  0.0183 -1.1606
 3374TIP3    H131537   5.405   1.881   3.314  0.6532  1.4639 -1.2529
 3374TIP3    H231538   5.527   1.936   3.245  1.9367 -0.0697 -0.2710
 3375TIP3   OH231539   5.885   2.597  15.311  0.9489 -0.3695  0.1055
 3375TIP3    H131540   5.951   2.591  15.243  0.4608 -0.8026 -0.3430
 3375TIP3    H231541   5.817   2.536  15.284 -0.1770  0.9059 -0.0422
 3376TIP3   OH231542   6.642   2.277  15.555 -0.2876  0.1826 -0.2888
 3376TIP3    H131543   6.601   2.361  15.574  1.7891  0.9821  0.9100
 3376TIP3    H231544   6.608   2.218  15.622  0.5538  0.8546  0.7460
 3377TIP3   OH231545   6.070   6.014   4.194 -0.0062 -0.3634  0.4217
 3377TIP3    H131546   6.048   6.100   4.229  0.7367  0.0519 -0.0871
 3377TIP3    H231547   6.165   6.017   4.180  0.1460 -1.5120  1.0350
 3378TIP3   OH231548   1.010   1.973  14.108 -0.0802 -0.6942 -0.2636
 3378TIP3    H131549   1.042   1.900  14.053 -0.1476 -1.2861  0.4647
 3378TIP3    H231550   0.975   2.036  14.046  1.8516 -0.3303 -1.0744
 3379TIP3   OH231551   6.408   6.358  15.180 -0.1065 -0.2543 -0.0292
 3379TIP3    H131552   6.318   6.366  15.148  0.0153 -1.9049 -0.9310
 3379TIP3    H231553   6.431   6.266  15.164  1.5220 -0.0301  0.7809
 3380TIP3   OH231554   2.635   3.543  13.665 -0.1655 -0.0140 -0.0497
 3380TIP3    H131555   2.704   3.601  13.697  0.8737 -2.1121  1.8051
 3380TIP3    H231556   2.560   3.600  13.653  0.4081  1.5891  2.8966
 3381TIP3   OH231557   5.112   5.435   4.613  0.6792 -0.2136 -0.0099
 3381TIP3    H131558   5.043   5.465   4.555 -0.6991  0.3341  1.8376
 3381TIP3    H231559   5.165   5.375   4.559  1.7037  3.0001 -2.8932
 3382TIP3   OH231560   2.794   2.798   3.266  0.6931  0.0777 -0.6573
 3382TIP3    H131561   2.732   2.725   3.274  2.0730 -1.2451 -1.5043
 3382TIP3    H231562   2.826   2.792   3.176  0.1784  2.3246 -1.0401
 3383TIP3   OH231563   2.165   5.360  16.592 -0.1990  0.3427 -0.5531
 3383TIP3    H131564   2.223   5.383  16.665 -0.8112 -1.2697  0.5034
 3383TIP3    H231565   2.076   5.375  16.626 -0.5073 -0.8413 -0.7822
 3384TIP3   OH231566   5.192   4.927   4.767 -0.2660 -0.1058  0.2143
 3384TIP3    H131567   5.262   4.880   4.721 -0.3664 -1.7940  1.6487
 3384TIP3    H231568   5.238   4.987   4.825 -0.1304  1.5722 -1.5364
 3385TIP3   OH231569   3.471   1.084  14.578  0.5533  0.1319  0.2233
 3385TIP3    H131570   3.404   1.098  14.511  0.4875 -2.3249 -0.2908
 3385TIP3    H231571   3.425   1.094  14.661  0.2879  1.5741 -0.0566
 3386TIP3   OH231572   0.088   5.593  12.755  0.0729 -0.3174  0.3233
 3386TIP3    H131573   0.165   5.572  12.702  0.4798  3.2260 -0.7770
 3386TIP3    H231574   0.120   5.596  12.845  1.3776  1.4662 -0.1593
 3387TIP3   OH231575   3.834   3.455   5.903  0.0745 -0.2361 -0.4247
 3387TIP3    H131576   3.803   3.507   5.829 -0.2103  1.1059  0.6065
 3387TIP3    H231577   3.918   3.420   5.874  0.5574  1.2746 -0.9512
 3388TIP3   OH231578   4.129   1.599   3.195  0.2742 -0.1842  0.4307
 3388TIP3    H131579   4.157   1.662   3.129 -0.8180  0.0577  0.1703
 3388TIP3    H231580   4.070   1.540   3.148 -0.4368 -0.0727  1.1479
 3389TIP3   OH231581   1.129   3.693  16.430 -0.2197 -0.0209 -0.3878
 3389TIP3    H131582   1.072   3.617  16.441 -1.7149  1.1622  0.5322
 3389TIP3    H231583   1.081   3.752  16.372  1.7015 -0.4522 -2.5728
 3390TIP3   OH231584   4.955   2.062   5.984  0.1895  0.3085 -0.7071
 3390TIP3    H131585   4.870   2.057   6.028 -0.2465  0.9438 -1.4538
 3390TIP3    H231586   4.957   1.985   5.928 -0.7512  1.2601 -2.1331
 3391TIP3   OH231587   5.569   6.335   2.673 -0.3517  0.2967 -0.1266
 3391TIP3    H131588   5.542   6.398   2.606  0.8332 -0.5779 -1.4584
 3391TIP3    H231589   5.570   6.386   2.754  0.3438  1.9465 -1.1245
 3392TIP3   OH231590   3.410   5.445   1.712 -0.2484 -0.1038  0.5416
 3392TIP3    H131591   3.487   5.440   1.768 -0.0470  0.1800  0.2914
 3392TIP3    H231592   3.372   5.531   1.730 -0.8860 -0.5063  1.1550
 3393TIP3   OH231593   1.074   2.110  14.894  0.0482 -0.5257  0.2846
 3393TIP3    H131594   1.076   2.037  14.956  1.0859 -0.3270  0.5045
 3393TIP3    H231595   1.161   2.149  14.901  0.4880 -0.9969 -1.9217
 3394TIP3   OH231596   0.131   4.399   2.952 -0.2347  0.0597  0.6990
 3394TIP3    H131597   0.105   4.308   2.937  1.1266 -0.2714  0.1859
 3394TIP3    H231598   0.216   4.393   2.996  0.3715  1.0769 -0.2821
 3395TIP3   OH231599   6.738   3.751  11.378 -0.4417  0.0884 -0.0771
 3395TIP3    H131600   6.731   3.793  11.293 -1.7342 -1.7052 -0.9397
 3395TIP3    H231601   6.791   3.673  11.362 -1.1213 -0.5356  0.6436
 3396TIP3   OH231602   3.791   4.659  16.625  0.1465  0.4395 -0.4633
 3396TIP3    H131603   3.797   4.615  16.541  0.6851  0.4694 -0.4453
 3396TIP3    H231604   3.750   4.596  16.683 -0.4346  0.5004 -0.8055
 3397TIP3   OH231605   0.473   1.217   3.941  0.4016 -0.0308  0.2554
 3397TIP3    H131606   0.454   1.123   3.930 -0.5499  0.1908 -0.1214
 3397TIP3    H231607   0.394   1.252   3.982  0.5500  0.6937 -0.0653
 3398TIP3   OH231608   4.141   2.984   0.919  0.1301 -0.0191  0.0471
 3398TIP3    H131609   4.175   3.042   0.852 -0.6102 -1.1287 -1.3446
 3398TIP3    H231610   4.218   2.942   0.956  0.4418 -1.1412 -1.7807
 3399TIP3   OH231611   5.282   5.635  17.158 -0.2313 -0.4215  0.1942
 3399TIP3    H131612   5.270   5.563  17.096  0.0227 -1.2469  1.0707
 3399TIP3    H231613   5.331   5.596  17.230  0.9193  0.9418  0.1782
 3400TIP3   OH231614   5.876   3.667  14.364  0.1407  0.1962 -0.1065
 3400TIP3    H131615   5.876   3.747  14.311  0.2963  0.9582  1.0064
 3400TIP3    H231616   5.849   3.696  14.451  2.7995 -0.4261  1.0459
 3401TIP3   OH231617   0.094   6.508  11.954 -0.0520 -0.2175 -0.2051
 3401TIP3    H131618   0.022   6.568  11.936 -0.1349 -0.2356  0.0600
 3401TIP3    H231619   0.170   6.547  11.911 -0.0612  0.1869  0.1397
 3402TIP3   OH231620   2.537   4.706  15.296  0.2188 -0.4600 -0.0446
 3402TIP3    H131621   2.490   4.637  15.343 -1.7611  0.5520 -0.4444
 3402TIP3    H231622   2.473   4.777  15.286  2.3140  1.7433  0.9206
 3403TIP3   OH231623   6.292   5.003   3.020 -0.1224 -0.2804 -0.1283
 3403TIP3    H131624   6.300   5.066   2.948 -0.9523  0.5622  0.4965
 3403TIP3    H231625   6.332   5.048   3.095  3.1988 -2.1738 -0.6022
 3404TIP3   OH231626   4.847   0.522   3.642 -0.5976  0.8147 -0.5096
 3404TIP3    H131627   4.849   0.429   3.665  1.7103  0.8457 -0.3215
 3404TIP3    H231628   4.802   0.564   3.715 -0.3801 -0.0046  0.1075
 3405TIP3   OH231629   2.703   4.730   2.583  0.0739  0.0841  0.3837
 3405TIP3    H131630   2.675   4.676   2.509  1.7556 -2.4138  1.4429
 3405TIP3    H231631   2.634   4.719   2.648 -0.0494  0.0011  0.2391
 3406TIP3   OH231632   4.860   2.433   0.562  0.0511 -0.5324 -0.6775
 3406TIP3    H131633   4.940   2.481   0.582  0.6891 -0.5535 -2.8773
 3406TIP3    H231634   4.852   2.368   0.631  0.7793  0.8123  0.7179
 3407TIP3   OH231635   0.939   2.127   0.399 -0.5480  0.0178 -0.2669
 3407TIP3    H131636   1.018   2.075   0.414 -0.6567 -0.0683  0.0100
 3407TIP3    H231637   0.867   2.067   0.416 -0.6954  0.5796  1.3039
 3408TIP3   OH231638   4.774   2.725  16.224  0.6706 -0.2848  0.2865
 3408TIP3    H131639   4.775   2.765  16.311  0.0685 -0.0496  0.1903
 3408TIP3    H231640   4.681   2.719  16.202  0.7702 -1.2211  0.0647
 3409TIP3   OH231641   5.598   6.117   3.310 -0.1405 -0.0630 -0.3953
 3409TIP3    H131642   5.555   6.181   3.252 -0.2140 -0.9738 -1.3670
 3409TIP3    H231643   5.537   6.043   3.313  1.6011 -1.6856 -2.3792
 3410TIP3   OH231644   1.366   5.518   4.199  0.3817  0.0950 -0.0132
 3410TIP3    H131645   1.338   5.507   4.290  0.3835  0.4745  0.0326
 3410TIP3    H231646   1.305   5.464   4.148 -0.3619  0.8246  0.0993
 3411TIP3   OH231647   4.553   5.875   0.738  0.7956 -0.1170  0.0348
 3411TIP3    H131648   4.619   5.884   0.669  0.7219 -0.7749 -0.1276
 3411TIP3    H231649   4.494   5.950   0.724  1.0001 -0.0279 -0.3724
 3412TIP3   OH231650   5.567   1.215  11.379  0.3387  0.1323 -0.0705
 3412TIP3    H131651   5.552   1.161  11.456  1.6068  1.6580  1.3012
 3412TIP3    H231652   5.583   1.152  11.309 -0.9181 -1.2869  0.8492
 3413TIP3   OH231653   1.668   6.337   3.272 -0.5429 -0.1163  0.5931
 3413TIP3    H131654   1.632   6.311   3.187  1.6435 -0.1252 -0.3862
 3413TIP3    H231655   1.599   6.391   3.311 -1.4517  0.2217 -1.3473
 3414TIP3   OH231656   3.253   4.664  16.342  0.1252  0.0948  0.3559
 3414TIP3    H131657   3.281   4.641  16.253  0.0019  1.1570  0.0323
 3414TIP3    H231658   3.317   4.621  16.399  0.8143  0.2633 -0.2797
 3415TIP3   OH231659   5.401   1.817   2.670 -0.4218  0.5043  0.8334
 3415TIP3    H131660   5.439   1.847   2.587 -0.6242 -1.1457  0.0992
 3415TIP3    H231661   5.432   1.727   2.678 -3.1564 -0.5335  0.8133
 3416TIP3   OH231662   2.761   4.146  15.512  0.3387 -0.9874  0.0283
 3416TIP3    H131663   2.735   4.073  15.568  0.8147 -0.5996  0.7574
 3416TIP3    H231664   2.815   4.202  15.567  0.7821 -0.5721 -0.8022
 3417TIP3   OH231665   6.719   6.284  15.598 -0.1760  0.3241 -0.0252
 3417TIP3    H131666   6.658   6.358  15.592  0.4417  0.8703  0.3530
 3417TIP3    H231667   6.799   6.321  15.635  0.3379 -0.4220 -0.3618
 3418TIP3   OH231668   5.698   2.063  15.539 -0.4701  0.1161  0.1094
 3418TIP3    H131669   5.737   2.119  15.606 -1.4706  1.7774 -0.6229
 3418TIP3    H231670   5.772   2.029  15.489  0.1536  1.4857  0.0574
 3419TIP3   OH231671   0.611   3.527  14.191  0.2424 -0.1517  0.2399
 3419TIP3    H131672   0.670   3.469  14.143  0.9646 -0.8057  1.8273
 3419TIP3    H231673   0.588   3.477  14.269  1.7963  2.0562  2.2540
 3420TIP3   OH231674   1.021   4.427  14.141 -0.0695 -0.1087  0.2827
 3420TIP3    H131675   0.948   4.418  14.203  1.1225 -0.3106  1.7146
 3420TIP3    H231676   1.061   4.340  14.139  0.0128 -0.0569 -0.6532
 3421TIP3   OH231677   0.365   5.530  12.616 -0.3549 -0.0007  0.5742
 3421TIP3    H131678   0.440   5.575  12.578 -1.4298  0.0662 -1.6600
 3421TIP3    H231679   0.368   5.551  12.709  1.1792  1.7354  0.1804
 3422TIP3   OH231680   3.551   5.127   1.869  0.0727 -0.4891  0.3646
 3422TIP3    H131681   3.544   5.033   1.859 -3.3135 -0.2848 -0.4803
 3422TIP3    H231682   3.565   5.160   1.781 -1.0032 -0.1484  0.2979
 3423TIP3   OH231683   1.129   2.631  13.895 -0.4522  0.2177 -0.2724
 3423TIP3    H131684   1.116   2.619  13.801 -0.2492  0.4913 -0.3376
 3423TIP3    H231685   1.127   2.726  13.908 -0.2467  0.1921 -0.0347
 3424TIP3   OH231686   5.018   0.193   2.681  0.1663 -0.2926  0.2151
 3424TIP3    H131687   4.997   0.111   2.634 -0.2855  1.9782 -4.0724
 3424TIP3    H231688   4.934   0.222   2.717  0.1730 -1.2940  1.0687
 3425TIP3   OH231689   2.279   0.750   4.000 -0.0951  0.5331  0.2677
 3425TIP3    H131690   2.205   0.791   3.954 -1.2777 -0.8861  0.8385
 3425TIP3    H231691   2.257   0.758   4.093 -0.0660 -0.8435  0.4103
 3426TIP3   OH231692   5.785   2.488  11.143  0.2705  0.7515 -0.1488
 3426TIP3    H131693   5.833   2.457  11.066 -0.3852  0.8605 -0.6064
 3426TIP3    H231694   5.703   2.522  11.108 -0.2163  0.4157  0.6522
 3427TIP3   OH231695   3.751   0.818   2.224  0.0660  0.0139 -0.0706
 3427TIP3    H131696   3.725   0.910   2.233  0.4494 -0.0031  1.6259
 3427TIP3    H231697   3.668   0.769   2.234 -0.1283  0.1633 -0.9122
 3428TIP3   OH231698   3.677   1.983   5.344  0.0408  0.6123 -0.4721
 3428TIP3    H131699   3.648   1.912   5.286 -0.4903  0.7350 -0.3618
 3428TIP3    H231700   3.753   1.946   5.390 -1.0530 -0.3854  0.5971
 3429TIP3   OH231701   0.681   4.154  11.964 -0.5669 -0.2762 -0.0350
 3429TIP3    H131702   0.650   4.106  11.888 -0.0408  0.0952 -0.4917
 3429TIP3    H231703   0.746   4.095  12.004 -0.2103 -0.1118 -0.3689
 3430TIP3   OH231704   4.933   2.318  13.697  0.0414  0.1856  0.3457
 3430TIP3    H131705   4.939   2.255  13.769  4.8345 -1.5759 -1.2112
 3430TIP3    H231706   4.971   2.399  13.732 -0.4338  0.3010  0.6042
 3431TIP3   OH231707   5.146   2.955  15.064 -0.6621  0.7766  0.4645
 3431TIP3    H131708   5.179   3.028  15.115 -0.5940 -0.1949  1.8606
 3431TIP3    H231709   5.051   2.955  15.080 -0.6981  0.7158  0.2576
 3432TIP3   OH231710   1.617   3.091  13.337 -0.1798  0.5495  0.2987
 3432TIP3    H131711   1.651   3.082  13.427 -1.4552  0.8340  0.8203
 3432TIP3    H231712   1.537   3.038  13.336 -0.0188  0.3020 -0.7710
 3433TIP3   OH231713   0.343   5.001   0.396  0.5255  0.1814  0.3191
 3433TIP3    H131714   0.333   5.096   0.400  0.6588  0.1862  0.6016
 3433TIP3    H231715   0.396   4.979   0.473  1.2525 -0.0218 -0.2205
 3434TIP3   OH231716   1.688   3.569   1.968 -0.8488 -0.0827  0.1171
 3434TIP3    H131717   1.662   3.541   2.056 -0.4346 -1.1144 -0.0721
 3434TIP3    H231718   1.649   3.505   1.909 -0.7583  0.3461 -0.4178
 3435TIP3   OH231719   5.053   2.953  16.483 -0.3177  0.0277  0.6248
 3435TIP3    H131720   5.089   2.868  16.459  1.9683  1.1056 -0.0610
 3435TIP3    H231721   5.025   2.943  16.574 -0.7920 -1.6371  0.3315
 3436TIP3   OH231722   3.616   6.729   0.277 -0.1445  0.8863  0.6254
 3436TIP3    H131723   3.596   6.648   0.325  0.0966  1.2928  1.4411
 3436TIP3    H231724   3.576   6.716   0.191  0.3466 -0.3214  0.5498
 3437TIP3   OH231725   6.260   6.765  14.974 -0.0414 -0.4252  0.1293
 3437TIP3    H131726   6.264   6.680  14.930 -1.0455 -0.5683  0.2979
 3437TIP3    H231727   6.341   6.809  14.948 -0.0544 -0.9815 -0.9032
 3438TIP3   OH231728   5.529   0.461  14.382 -0.0753  0.2028  0.4296
 3438TIP3    H131729   5.515   0.387  14.440 -1.0838  1.0653  1.3035
 3438TIP3    H231730   5.615   0.495  14.408  0.3084 -0.5042  0.1523
 3439TIP3   OH231731   6.774   4.436   1.727 -0.0151 -0.1327 -0.2165
 3439TIP3    H131732   6.798   4.360   1.780 -0.6317  0.0320  0.3185
 3439TIP3    H231733   6.804   4.511   1.779 -2.2764  0.1314  0.8841
 3440TIP3   OH231734   3.018   2.782   3.465  0.3166 -0.4262  0.1549
 3440TIP3    H131735   2.999   2.831   3.545  1.5860  1.8789 -0.8444
 3440TIP3    H231736   2.946   2.804   3.406 -0.1579 -1.4169  0.3481
 3441TIP3   OH231737   3.115   5.232  16.634 -0.7775 -0.3327 -0.0933
 3441TIP3    H131738   3.105   5.280  16.551 -0.5781  1.5136  0.8921
 3441TIP3    H231739   3.110   5.140  16.609 -1.8702  0.1829 -2.0178
 3442TIP3   OH231740   3.188   6.462   2.875  0.1645  0.0668  0.6103
 3442TIP3    H131741   3.154   6.499   2.956 -1.9762 -1.9263  0.7443
 3442TIP3    H231742   3.151   6.373   2.873  0.1318  0.0658 -2.5534
 3443TIP3   OH231743   6.041   4.444   0.204 -0.2185  0.0990  0.0935
 3443TIP3    H131744   6.101   4.487   0.264  0.9701 -1.0412 -0.2326
 3443TIP3    H231745   6.071   4.470   0.117  0.5606 -1.3675 -0.1133
 3444TIP3   OH231746   6.344   2.436  14.079 -0.4212  0.2488 -0.3842
 3444TIP3    H131747   6.253   2.466  14.072 -0.3790  0.8133  1.2630
 3444TIP3    H231748   6.392   2.512  14.111  0.0918 -0.8512  1.6208
 3445TIP3   OH231749   3.787   0.966   4.554 -0.5006 -0.4094 -0.2381
 3445TIP3    H131750   3.874   0.998   4.529 -0.2849  0.0767  1.0543
 3445TIP3    H231751   3.801   0.872   4.570 -0.0104 -0.1685  0.7996
 3446TIP3   OH231752   6.248   5.961  16.352 -0.5859 -0.1372  0.6481
 3446TIP3    H131753   6.265   5.939  16.260 -0.6197 -0.9783  0.8307
 3446TIP3    H231754   6.165   6.007  16.350 -0.1079  0.7343  0.1509
 3447TIP3   OH231755   3.154   3.582  14.796  0.0913  0.3136 -0.0411
 3447TIP3    H131756   3.058   3.576  14.797 -0.0348  1.7851  1.7673
 3447TIP3    H231757   3.174   3.647  14.729 -0.1710  0.1391 -0.2906
 3448TIP3   OH231758   0.948   0.491   3.882  0.3943  0.0933 -0.4910
 3448TIP3    H131759   0.966   0.397   3.886  1.4390  0.2400 -1.1671
 3448TIP3    H231760   0.995   0.528   3.957 -1.7934 -0.1313  1.0827
 3449TIP3   OH231761   2.621   4.631   5.190  0.0687 -0.5093 -0.5222
 3449TIP3    H131762   2.660   4.715   5.167  1.0903 -0.1681  2.1760
 3449TIP3    H231763   2.667   4.567   5.135  3.0402  0.1347  1.0443
 3450TIP3   OH231764   2.088   5.765  16.978  0.2435  0.6555 -0.6750
 3450TIP3    H131765   2.156   5.697  16.985  0.4230  0.5847 -2.6252
 3450TIP3    H231766   2.013   5.719  16.942 -1.5681  0.3320  3.0077
 3451TIP3   OH231767   6.688   1.141  15.785  0.5086 -0.1999 -0.1614
 3451TIP3    H131768   6.603   1.167  15.750  0.6342  0.3288 -0.0866
 3451TIP3    H231769   6.669   1.064  15.838 -0.3319  1.2739  1.7911
 3452TIP3   OH231770   3.918   0.791   1.674 -0.8452 -0.2049 -0.2709
 3452TIP3    H131771   4.009   0.792   1.703 -1.5391  0.4489  2.1554
 3452TIP3    H231772   3.870   0.752   1.747 -2.4505 -1.3569 -1.8400
 3453TIP3   OH231773   5.208   5.368  12.395 -0.5198  0.2335 -0.4043
 3453TIP3    H131774   5.176   5.305  12.330  0.5714 -0.6592 -0.1119
 3453TIP3    H231775   5.283   5.410  12.353 -0.8054  0.8316 -0.3241
 3454TIP3   OH231776   3.309   0.629  10.646 -0.1698 -0.3316  0.3578
 3454TIP3    H131777   3.365   0.559  10.612  1.4033  0.6411  0.8123
 3454TIP3    H231778   3.253   0.653  10.572  0.5398 -0.8307 -0.3653
 3455TIP3   OH231779   5.532   1.704   3.013  0.6910  0.0310  0.0819
 3455TIP3    H131780   5.556   1.615   2.986  0.3819  0.0097 -0.1335
 3455TIP3    H231781   5.554   1.708   3.106 -0.5537 -0.7361  0.4400
 3456TIP3   OH231782   5.784   4.471  16.647  0.1829 -0.2739 -0.0536
 3456TIP3    H131783   5.761   4.389  16.692  0.9780  0.0718  1.0382
 3456TIP3    H231784   5.863   4.449  16.598 -0.6469 -0.6328 -1.2728
 3457TIP3   OH231785   4.578   0.965   0.406 -0.1228 -0.1843  0.1104
 3457TIP3    H131786   4.535   1.051   0.402  1.0741  0.4540  0.4404
 3457TIP3    H231787   4.654   0.974   0.348 -0.1161 -1.0970 -0.0233
 3458TIP3   OH231788   2.109   4.752   4.891 -0.3069  0.0566 -0.8262
 3458TIP3    H131789   2.019   4.786   4.897 -0.7143 -1.2389  1.6108
 3458TIP3    H231790   2.164   4.830   4.901 -1.1563  0.7277 -1.2019
 3459TIP3   OH231791   1.320   4.238   0.235 -0.3180  0.4442  0.2549
 3459TIP3    H131792   1.389   4.279   0.288 -0.0890 -0.7461  0.9185
 3459TIP3    H231793   1.239   4.282   0.262  0.0772  1.3271  0.0217
 3460TIP3   OH231794   1.900   4.626  16.402 -0.1045 -0.8507 -0.1716
 3460TIP3    H131795   1.805   4.636  16.399 -0.1696 -1.5013 -2.2536
 3460TIP3    H231796   1.933   4.696  16.345  0.8683  0.7166  2.1645
 3461TIP3   OH231797   5.587   4.239   5.887  0.2110  0.3783 -0.0023
 3461TIP3    H131798   5.643   4.316   5.897 -0.3009  0.6635  0.7770
 3461TIP3    H231799   5.588   4.197   5.972 -1.2804  0.7690  0.2363
 3462TIP3   OH231800   4.156   5.107   3.745  0.0140  0.5109  0.3639
 3462TIP3    H131801   4.073   5.059   3.750 -0.5603  1.5926  1.7764
 3462TIP3    H231802   4.137   5.192   3.786  1.6173  1.0767 -0.0099
 3463TIP3   OH231803   0.789   1.332   2.111  0.1159  0.1927  0.1577
 3463TIP3    H131804   0.821   1.327   2.201  1.9177  0.8358 -0.4023
 3463TIP3    H231805   0.804   1.423   2.085  1.0944 -0.3412 -1.2791
 3464TIP3   OH231806   5.248   3.614  13.736  0.1540 -0.1234  0.7010
 3464TIP3    H131807   5.166   3.566  13.732 -1.2781  2.1755  0.4541
 3464TIP3    H231808   5.251   3.650  13.825  0.2786  0.7681  0.3470
 3465TIP3   OH231809   2.671   6.774  10.025 -0.4688 -0.2054 -0.0917
 3465TIP3    H131810   2.715   6.736  10.101 -0.5761  2.4354  1.4230
 3465TIP3    H231811   2.716   6.857  10.010 -1.5687  0.1215 -1.8457
 3466TIP3   OH231812   1.455   4.870   2.237  0.2895  0.0718  0.2238
 3466TIP3    H131813   1.388   4.937   2.250  1.5526  1.5943 -0.7247
 3466TIP3    H231814   1.409   4.800   2.190 -1.2220 -0.0845  1.8120
 3467TIP3   OH231815   1.436   6.177  16.584 -0.2897 -0.4151  0.2325
 3467TIP3    H131816   1.450   6.269  16.605 -0.1766 -0.7450  1.7342
 3467TIP3    H231817   1.362   6.151  16.639 -0.3053 -1.2233 -0.1631
 3468TIP3   OH231818   2.466   4.270  15.253  0.2631 -0.5940  0.1825
 3468TIP3    H131819   2.520   4.348  15.262 -1.4608  0.4887  1.8908
 3468TIP3    H231820   2.452   4.261  15.159  2.3713 -0.2376 -0.2112
 3469TIP3   OH231821   4.637   2.989   6.283  0.4362  0.2287 -0.2380
 3469TIP3    H131822   4.610   2.913   6.335 -0.9993  0.9339  0.0902
 3469TIP3    H231823   4.630   3.063   6.344 -1.7377  1.1498 -1.4959
 3470TIP3   OH231824   4.734   3.300   4.457  0.0515  0.0971 -0.7437
 3470TIP3    H131825   4.642   3.276   4.468 -0.2301  1.9943  2.0127
 3470TIP3    H231826   4.733   3.378   4.402 -0.2723  1.4608  1.1126
 3471TIP3   OH231827   3.883   2.086   1.149  0.0339  0.6618  0.6451
 3471TIP3    H131828   3.867   2.050   1.062 -1.6913  1.5434  0.5453
 3471TIP3    H231829   3.905   2.177   1.134  1.9606  0.3100  1.0437
 3472TIP3   OH231830   5.338   2.337  17.158 -0.0723  0.0604 -0.2436
 3472TIP3    H131831   5.319   2.414  17.105  0.0195 -0.6301 -1.3247
 3472TIP3    H231832   5.253   2.295  17.171 -0.0604  0.0906 -0.0712
 3473TIP3   OH231833   5.664   2.448  15.207 -0.8291 -0.1934 -0.2682
 3473TIP3    H131834   5.595   2.391  15.239 -0.6134 -0.1909  0.2040
 3473TIP3    H231835   5.631   2.482  15.123 -0.2858 -2.2843 -1.3834
 3474TIP3   OH231836   1.084   2.891  13.910  0.3506 -0.2803 -0.3459
 3474TIP3    H131837   1.108   2.979  13.882  2.1130 -1.4126 -2.7154
 3474TIP3    H231838   1.048   2.903  13.998  1.7553  2.6296 -0.0625
 3475TIP3   OH231839   0.761   2.772   0.574 -0.1863  0.2297 -0.4336
 3475TIP3    H131840   0.728   2.804   0.658  0.4439  0.8098 -0.3977
 3475TIP3    H231841   0.765   2.677   0.585 -1.8448  0.1368 -0.4521
 3476TIP3   OH231842   3.292   3.073   1.560  0.2246 -0.2993 -0.0959
 3476TIP3    H131843   3.245   3.152   1.534 -0.1402  0.0511  1.5534
 3476TIP3    H231844   3.384   3.093   1.540  0.0007  0.0319 -0.8627
 3477TIP3   OH231845   6.092   0.040  16.913  0.3127  0.7350 -0.1917
 3477TIP3    H131846   6.039  -0.040  16.923 -1.5110  1.6717 -1.7116
 3477TIP3    H231847   6.168   0.013  16.862  0.0594 -0.1515 -0.1157
 3478TIP3   OH231848   3.333   6.616  10.757  0.1978  0.8655 -0.8232
 3478TIP3    H131849   3.414   6.666  10.766  1.1732 -0.8158  0.2567
 3478TIP3    H231850   3.291   6.622  10.843 -0.3126  0.8935 -1.0711
 3479TIP3   OH231851   2.397   5.506  12.688  0.2156 -0.8304 -0.2813
 3479TIP3    H131852   2.469   5.446  12.670  2.2553  1.3957 -0.0372
 3479TIP3    H231853   2.421   5.587  12.642 -1.8575  0.1691  0.2713
 3480TIP3   OH231854   6.042   0.288  13.419  0.2050  0.4297  0.0016
 3480TIP3    H131855   6.106   0.235  13.468  0.6639  1.1401  0.1811
 3480TIP3    H231856   6.062   0.378  13.444 -0.9474  0.6588  0.1432
 3481TIP3   OH231857   2.573   5.245   4.644 -0.3499 -0.5422  0.1283
 3481TIP3    H131858   2.592   5.250   4.551 -2.0275  0.2568 -0.1995
 3481TIP3    H231859   2.520   5.322   4.663 -2.0923 -1.9197  1.2101
 3482TIP3   OH231860   5.175   3.571  12.820  0.0746  0.4275  0.2678
 3482TIP3    H131861   5.080   3.582  12.819 -0.4320 -2.7587  0.9824
 3482TIP3    H231862   5.204   3.626  12.892 -1.1533  1.7437 -0.1947
 3483TIP3   OH231863   3.101   1.447   1.543 -0.2182  0.0052 -0.4738
 3483TIP3    H131864   3.056   1.366   1.521  1.0615 -0.8729  0.0462
 3483TIP3    H231865   3.091   1.456   1.637 -3.2506  2.2753 -0.8736
 3484TIP3   OH231866   1.499   3.102   2.016 -0.2553  0.0628 -0.2431
 3484TIP3    H131867   1.491   3.081   2.109 -0.3760 -0.0284 -0.2730
 3484TIP3    H231868   1.469   3.022   1.971 -0.9311  0.3723 -0.3560
 3485TIP3   OH231869   2.005   5.301  13.462  0.6666 -0.3255 -0.6599
 3485TIP3    H131870   2.087   5.339  13.493  0.9279 -0.3377 -1.3312
 3485TIP3    H231871   2.024   5.272  13.373  0.0552 -0.7155 -0.6666
 3486TIP3   OH231872   0.404   5.050  16.398 -0.3260 -0.0139 -0.3358
 3486TIP3    H131873   0.440   5.045  16.310  0.3685 -0.2299 -0.0415
 3486TIP3    H231874   0.472   5.015  16.455 -1.1093 -0.7169  0.2065
 3487TIP3   OH231875   4.013   0.839   6.058  0.6360 -0.1113  0.0509
 3487TIP3    H131876   3.967   0.915   6.093 -0.8102 -1.0075  0.2085
 3487TIP3    H231877   4.095   0.836   6.108 -0.8928 -0.7314  2.7413
 3488TIP3   OH231878   5.016   2.605   2.101  0.1112 -0.2938  0.2864
 3488TIP3    H131879   4.971   2.523   2.082 -1.0028  0.0485  1.2662
 3488TIP3    H231880   4.974   2.669   2.042  0.0867 -0.1879  0.4183
 3489TIP3   OH231881   5.089   2.661  16.512  0.1320  0.2548  0.0775
 3489TIP3    H131882   5.019   2.615  16.465  0.7289  1.0097 -1.6227
 3489TIP3    H231883   5.048   2.692  16.592 -0.6860 -1.9119  0.5611
 3490TIP3   OH231884   2.879   0.746  13.978 -0.1313 -0.4325  0.7585
 3490TIP3    H131885   2.804   0.742  13.918  0.4490 -0.5745  0.0223
 3490TIP3    H231886   2.840   0.760  14.064 -1.0224 -0.7988  0.4324
 3491TIP3   OH231887   5.109   5.445  17.023 -0.3016  0.0525 -0.2555
 3491TIP3    H131888   5.111   5.388  16.947  0.2257 -0.9371  0.4771
 3491TIP3    H231889   5.131   5.388  17.097 -1.4792  0.8247  0.7428
 3492TIP3   OH231890   6.708   3.816  15.449  0.4583  0.0441 -0.4652
 3492TIP3    H131891   6.719   3.879  15.520  1.2653 -0.4404 -0.1518
 3492TIP3    H231892   6.797   3.802  15.415  0.4500 -1.6733  0.1251
 3493TIP3   OH231893   3.678   0.190  15.408 -0.1193  0.0767  0.5252
 3493TIP3    H131894   3.751   0.232  15.452  0.1738  0.7316 -0.5457
 3493TIP3    H231895   3.718   0.142  15.335 -0.9071  2.7769 -1.8679
 3494TIP3   OH231896   4.094   0.947  16.294 -0.3564  0.5682  0.0766
 3494TIP3    H131897   4.021   0.973  16.351 -0.3520  0.2462  0.2313
 3494TIP3    H231898   4.079   0.854  16.278 -0.8853  0.8586 -1.2336
 3495TIP3   OH231899   3.639   0.523   2.648 -0.2519 -0.3864 -0.5239
 3495TIP3    H131900   3.682   0.607   2.629 -1.1155 -0.1300 -1.4460
 3495TIP3    H231901   3.711   0.461   2.658  0.3645  0.0574 -1.9004
 3496TIP3   OH231902   1.243   5.980   6.042 -0.2127  0.5676 -0.3648
 3496TIP3    H131903   1.310   5.936   6.095 -1.4794 -0.7951  0.2050
 3496TIP3    H231904   1.248   6.072   6.069  0.5913  0.2707  0.5702
 3497TIP3   OH231905   2.370   1.125   1.437  0.4265  0.1473 -0.4160
 3497TIP3    H131906   2.448   1.165   1.474  0.8207 -0.3401 -0.7070
 3497TIP3    H231907   2.401   1.044   1.396 -0.4099 -0.6698  0.5172
 3498TIP3   OH231908   0.406   5.880   4.470  0.0745  0.0754 -0.2403
 3498TIP3    H131909   0.421   5.956   4.527 -1.6689  1.4919 -1.5539
 3498TIP3    H231910   0.437   5.909   4.384 -0.1553 -0.8973 -0.6537
 3499TIP3   OH231911   0.966   1.427   2.675 -0.6811  0.2716 -0.0625
 3499TIP3    H131912   1.010   1.483   2.611 -1.3637  1.3225  0.3730
 3499TIP3    H231913   0.969   1.340   2.635  0.5358  0.5625 -0.6755
 3500TIP3   OH231914   3.547   5.754  11.196 -0.4026  0.1185 -0.1809
 3500TIP3    H131915   3.526   5.788  11.109  1.5065  1.4735 -0.1764
 3500TIP3    H231916   3.511   5.665  11.196 -0.8247  0.2335 -2.2018
 3501TIP3   OH231917   6.033   1.839  12.869 -0.5488  0.0600  0.0234
 3501TIP3    H131918   6.084   1.881  12.938  1.2520 -1.5213 -0.2772
 3501TIP3    H231919   6.069   1.874  12.788  0.4870 -1.4678 -0.2059
 3502TIP3   OH231920   4.915   2.379   1.962  1.0204  0.1489  0.1186
 3502TIP3    H131921   4.856   2.311   1.995  1.5231 -0.1482  0.4151
 3502TIP3    H231922   5.002   2.339   1.964  1.6403  1.4353  2.2650
 3503TIP3   OH231923   3.758   5.467   2.473 -1.2642  0.5538  0.1375
 3503TIP3    H131924   3.700   5.496   2.403 -1.8954 -1.5745 -0.2738
 3503TIP3    H231925   3.767   5.373   2.459  0.6446  0.4982  1.4264
 3504TIP3   OH231926   0.577   3.122  11.615  0.0116  0.7695  0.1716
 3504TIP3    H131927   0.485   3.102  11.634 -0.1883  0.3648 -1.0855
 3504TIP3    H231928   0.582   3.217  11.620 -0.6106  0.8348 -0.2620
 3505TIP3   OH231929   0.814   6.233  12.907 -0.4696 -0.4477 -0.0101
 3505TIP3    H131930   0.879   6.252  12.840  0.3210 -1.0418  0.5735
 3505TIP3    H231931   0.813   6.311  12.963  0.7496 -0.9719  0.7718
 3506TIP3   OH231932   5.612   3.025  13.677 -0.2238  0.7300  0.1437
 3506TIP3    H131933   5.523   3.050  13.651 -0.4674  0.0845  0.3511
 3506TIP3    H231934   5.626   2.940  13.636 -0.2328  0.1690  1.2724
 3507TIP3   OH231935   5.961   0.277  16.898 -0.1425 -0.2410 -0.2520
 3507TIP3    H131936   5.987   0.186  16.883 -0.7784 -0.3837 -0.5504
 3507TIP3    H231937   5.877   0.270  16.945 -1.9097  0.1139 -3.1147
 3508TIP3   OH231938   5.666   3.457   3.887  0.1189 -0.0914  0.3123
 3508TIP3    H131939   5.638   3.535   3.934  0.1069  0.7365 -1.0074
 3508TIP3    H231940   5.597   3.441   3.823  1.8615  1.1196 -2.0142
 3509TIP3   OH231941   2.286   6.564   3.153 -0.0234  0.2523 -0.1632
 3509TIP3    H131942   2.191   6.571   3.142  0.2166  0.2278 -3.0053
 3509TIP3    H231943   2.322   6.595   3.070  2.3903 -1.5622  0.1080
 3510TIP3   OH231944   2.188   2.400   0.320  0.3022 -0.1960  0.2902
 3510TIP3    H131945   2.132   2.358   0.385 -0.4378  2.1119  1.2558
 3510TIP3    H231946   2.211   2.330   0.259 -1.5894 -1.7596  1.2618
 3511TIP3   OH231947   1.962   4.733   5.328  0.6649  0.4939  0.1842
 3511TIP3    H131948   2.032   4.704   5.270  0.0611 -0.1630 -0.2271
 3511TIP3    H231949   1.905   4.656   5.337  0.0238  1.0053  0.5469
 3512TIP3   OH231950   1.207   3.245  16.969  0.1423 -0.4506 -0.6849
 3512TIP3    H131951   1.157   3.274  16.892  1.2807  1.0655 -0.8944
 3512TIP3    H231952   1.299   3.258  16.944  0.5705 -1.0618  0.5090
 3513TIP3   OH231953   2.522   2.624  13.739 -0.1632 -0.5946  0.3996
 3513TIP3    H131954   2.552   2.542  13.700 -0.3583 -0.8062  0.6978
 3513TIP3    H231955   2.525   2.687  13.667 -0.7631 -1.0441 -0.0184
 3514TIP3   OH231956   3.223   6.482  16.161  0.3039 -0.0690 -0.3576
 3514TIP3    H131957   3.207   6.407  16.217  1.4063 -0.0696 -0.0112
 3514TIP3    H231958   3.303   6.522  16.197 -0.3929  1.4150 -0.3695
 3515TIP3   OH231959   4.420   1.180   5.928 -0.2211 -0.1937  0.1800
 3515TIP3    H131960   4.467   1.173   6.011  0.3289  0.5234 -0.0604
 3515TIP3    H231961   4.470   1.244   5.877 -1.3604  0.4745 -0.1402
 3516TIP3   OH231962   5.274   4.638  13.199  0.5345 -0.7103 -0.0164
 3516TIP3    H131963   5.181   4.660  13.205  0.8022  1.2913 -1.9703
 3516TIP3    H231964   5.300   4.619  13.289 -1.3279  0.5902  0.8623
 3517TIP3   OH231965   3.297   5.003   2.844 -0.1698  0.5046  0.8259
 3517TIP3    H131966   3.324   4.995   2.752 -0.6829 -0.5376  0.7547
 3517TIP3    H231967   3.369   5.050   2.886 -0.2312  1.6116 -0.2391
 3518TIP3   OH231968   0.578   0.989  16.646 -0.0733  0.4224 -0.1310
 3518TIP3    H131969   0.596   1.072  16.691  1.9778  1.0897 -1.9972
 3518TIP3    H231970   0.644   0.929  16.679  0.0041  0.2651 -0.5609
 3519TIP3   OH231971   3.170   3.384   4.096 -0.4591 -0.0687 -0.1253
 3519TIP3    H131972   3.104   3.391   4.165 -1.2666 -0.4949 -0.8463
 3519TIP3    H231973   3.235   3.323   4.132 -1.2996 -0.9540 -0.0615
 3520TIP3   OH231974   1.456   2.028   6.014 -0.0428 -0.0001  0.2824
 3520TIP3    H131975   1.502   1.946   6.034  1.2105  0.8007  0.8156
 3520TIP3    H231976   1.366   2.001   5.998  0.3687 -1.5036  0.2963
 3521TIP3   OH231977   5.422   4.412  12.308 -0.5253 -0.0934  0.3782
 3521TIP3    H131978   5.383   4.433  12.223 -0.6887 -0.2652  0.4082
 3521TIP3    H231979   5.377   4.331  12.335 -1.0366  0.3863  0.9924
 3522TIP3   OH231980   5.657   6.385   5.356  0.0888 -0.0012 -0.6598
 3522TIP3    H131981   5.693   6.404   5.269  0.5949 -1.2906 -0.7506
 3522TIP3    H231982   5.592   6.453   5.370  0.1629  0.3664 -1.9524
 3523TIP3   OH231983   2.832   2.502  12.540  0.3618 -0.0089 -0.3117
 3523TIP3    H131984   2.822   2.407  12.550  0.7634  0.0227  0.4156
 3523TIP3    H231985   2.801   2.519  12.451  0.8308 -0.8976 -0.6601
 3524TIP3   OH231986   6.325   5.569  11.563 -0.8912 -0.1501 -0.1483
 3524TIP3    H131987   6.321   5.569  11.467  0.4796  0.1137 -0.2327
 3524TIP3    H231988   6.347   5.659  11.585  0.6609 -0.6082  0.2889
 3525TIP3   OH231989   0.527   2.244   0.615 -0.3915 -0.3339  0.1658
 3525TIP3    H131990   0.583   2.213   0.686  0.0691  0.2095  0.0453
 3525TIP3    H231991   0.514   2.337   0.633  0.2534 -0.0409 -0.7961
 3526TIP3   OH231992   4.317   5.623  14.524  0.4700 -0.2293 -0.4960
 3526TIP3    H131993   4.285   5.533  14.524  1.0083 -0.4315 -1.6410
 3526TIP3    H231994   4.339   5.641  14.616  0.2472 -1.2141 -0.2417
 3527TIP3   OH231995   6.503   2.829  15.123  0.4855  0.1445 -0.3235
 3527TIP3    H131996   6.588   2.861  15.154  1.5029 -0.9293 -1.8809
 3527TIP3    H231997   6.510   2.734  15.129 -0.9553  0.0438  0.3149
 3528TIP3   OH231998   3.327   3.986  15.096  0.5311 -0.4826  0.3449
 3528TIP3    H131999   3.345   4.039  15.018  1.6828 -0.9492  0.2751
 3528TIP3    H232000   3.314   4.051  15.166  2.2452 -0.0595  0.3291
 3529TIP3   OH232001   1.086   4.580   3.622  0.5013  0.0924 -0.1045
 3529TIP3    H132002   1.176   4.598   3.648  0.0785  1.4919  0.4863
 3529TIP3    H232003   1.088   4.583   3.526  1.0321  0.4130 -0.0890
 3530TIP3   OH232004   3.120   0.809  16.856 -0.3370  0.6180  0.0215
 3530TIP3    H132005   3.038   0.815  16.905 -1.0809 -0.7216 -1.0096
 3530TIP3    H232006   3.159   0.725  16.882  1.7205  2.0280  1.9326
 3531TIP3   OH232007   2.460   1.887  12.271  0.4626 -0.0566  0.5846
 3531TIP3    H132008   2.468   1.792  12.272 -0.2932 -0.1262  0.1755
 3531TIP3    H232009   2.541   1.918  12.313  1.5034 -0.8297 -0.7477
 3532TIP3   OH232010   6.607   6.588  13.272  0.6094 -0.6489 -0.0495
 3532TIP3    H132011   6.655   6.615  13.195 -0.3336  2.8615  0.4368
 3532TIP3    H232012   6.523   6.557  13.239  0.2820  0.6582 -0.4545
 3533TIP3   OH232013   2.769   4.734  16.322  0.2755 -0.1545 -0.0586
 3533TIP3    H132014   2.842   4.714  16.381  0.7340 -1.1774 -0.9385
 3533TIP3    H232015   2.742   4.649  16.288 -1.3101  0.2124  0.2083
 3534TIP3   OH232016   5.237   1.328  11.014  0.0229 -0.0192  0.2789
 3534TIP3    H132017   5.229   1.234  10.998 -0.7983  0.2165 -0.7748
 3534TIP3    H232018   5.160   1.350  11.067  0.3732  0.0162  0.7823
 3535TIP3   OH232019   2.113   4.511  13.601  0.0218 -0.3600 -0.2962
 3535TIP3    H132020   2.052   4.540  13.669 -0.4273 -1.6938 -0.0780
 3535TIP3    H232021   2.168   4.587  13.583  1.0893 -0.3264  2.5585
 3536TIP3   OH232022   6.564   5.258  17.130 -0.5384  0.7184 -0.3882
 3536TIP3    H132023   6.550   5.185  17.191  0.8159 -0.1920 -1.1219
 3536TIP3    H232024   6.640   5.232  17.078 -0.3436  2.4361 -1.0286
 3537TIP3   OH232025   0.030   5.434   5.672  0.0974 -0.0431 -0.2285
 3537TIP3    H132026   0.101   5.467   5.727  0.4030 -1.6340  0.3759
 3537TIP3    H232027   0.075   5.396   5.596  0.0812 -2.4434  0.8658
 3538TIP3   OH232028   1.948   4.991  12.309 -0.2706 -0.2038 -0.2267
 3538TIP3    H132029   2.028   5.042  12.321 -0.1485 -0.4995  0.2564
 3538TIP3    H232030   1.878   5.056  12.314 -0.2004 -0.2077  1.6696
 3539TIP3   OH232031   4.313   4.760   1.085 -0.2464 -0.1405  0.1169
 3539TIP3    H132032   4.407   4.775   1.090  0.1798 -1.1959 -2.9142
 3539TIP3    H232033   4.296   4.745   0.992 -3.4483  0.1289  0.5529
 3540TIP3   OH232034   6.789   3.168   1.539 -0.1192  0.3414 -0.0949
 3540TIP3    H132035   6.701   3.199   1.518 -0.4506 -0.8853 -0.6589
 3540TIP3    H232036   6.847   3.239   1.511 -0.8494  0.6049 -1.0068
 3541TIP3   OH232037   1.991   2.163  17.079  0.5012  0.0244 -0.3110
 3541TIP3    H132038   2.075   2.131  17.111  0.3137 -0.0477  0.1301
 3541TIP3    H232039   1.995   2.258  17.092  1.0348  0.1888 -1.5631
 3542TIP3   OH232040   2.891   1.924   4.143 -0.6766  0.6377  0.3286
 3542TIP3    H132041   2.832   1.857   4.108 -0.2342 -0.2533  1.2495
 3542TIP3    H232042   2.943   1.950   4.067 -1.7304  0.9074 -0.3347
 3543TIP3   OH232043   6.319   2.746   2.349  0.4849  0.8386  0.0973
 3543TIP3    H132044   6.322   2.718   2.258  0.6308 -0.7790  0.5666
 3543TIP3    H232045   6.227   2.740   2.373  0.5042  0.8460  0.1745
 3544TIP3   OH232046   5.094   3.353   2.528 -0.1603 -0.1621 -0.4308
 3544TIP3    H132047   5.176   3.329   2.486 -0.0664  2.7287 -2.1713
 3544TIP3    H232048   5.119   3.417   2.595 -0.8672 -0.4677  0.1436
 3545TIP3   OH232049   2.236   1.675  12.310 -0.0547 -0.0807 -0.5075
 3545TIP3    H132050   2.282   1.673  12.227  2.2721 -1.4073  0.7170
 3545TIP3    H232051   2.221   1.769  12.326  0.6791  0.2770 -1.7635
 3546TIP3   OH232052   1.692   2.345  14.748 -0.1101 -0.2614 -0.3653
 3546TIP3    H132053   1.724   2.323  14.836  0.1698 -0.6313 -0.5516
 3546TIP3    H232054   1.645   2.266  14.719 -0.6576  0.0549 -0.3388
 3547TIP3   OH232055   3.565   4.617   5.888 -0.1988  0.7400  0.5017
 3547TIP3    H132056   3.601   4.701   5.917 -1.1367  1.5268 -0.5429
 3547TIP3    H232057   3.483   4.608   5.935  0.1850  0.0963  1.0693
 3548TIP3   OH232058   5.042   1.057  16.510  0.4475  0.2315  0.7734
 3548TIP3    H132059   5.102   0.982  16.517 -0.9181 -0.9157  0.7702
 3548TIP3    H232060   5.099   1.133  16.506  2.2352 -1.0133 -4.0026
 3549TIP3   OH232061   4.565   2.684   1.219 -0.2767 -0.2050  0.4323
 3549TIP3    H132062   4.543   2.642   1.303  2.4900 -1.1461  0.7990
 3549TIP3    H232063   4.621   2.758   1.243  2.0896 -1.5382 -0.5313
 3550TIP3   OH232064   3.139   5.219  13.720  0.3558 -0.3415  0.0813
 3550TIP3    H132065   3.077   5.289  13.743  1.6516  0.7478  0.3609
 3550TIP3    H232066   3.137   5.161  13.796  1.5026  1.0293  1.2302
 3551TIP3   OH232067   1.927   0.970  15.533 -0.2960  0.1964 -0.2513
 3551TIP3    H132068   1.859   1.029  15.500 -0.8099 -0.0477  0.3573
 3551TIP3    H232069   1.898   0.883  15.508 -0.4856  0.0438  0.4823
 3552TIP3   OH232070   5.124   5.706  10.622  0.2340  0.2135  0.6469
 3552TIP3    H132071   5.175   5.641  10.573 -0.7517 -0.2786  0.2431
 3552TIP3    H232072   5.153   5.790  10.588 -0.1533 -0.1092 -0.5153
 3553TIP3   OH232073   3.350   2.564  13.619  0.7656  0.2438 -0.2599
 3553TIP3    H132074   3.261   2.539  13.596  0.7428 -0.1272  0.2115
 3553TIP3    H232075   3.385   2.605  13.540  0.2585  0.1715 -0.5233
 3554TIP3   OH232076   2.759   1.840   5.510  0.1098 -0.5165  0.4869
 3554TIP3    H132077   2.728   1.795   5.589 -2.2179 -0.6362 -0.4003
 3554TIP3    H232078   2.681   1.885   5.477  1.6254  1.5567 -0.4191
 3555TIP3   OH232079   3.800   2.187   1.926  0.4896  0.1662 -0.4736
 3555TIP3    H132080   3.827   2.278   1.911 -1.7066  0.7302 -1.4536
 3555TIP3    H232081   3.864   2.135   1.878  1.2223  1.2496 -0.7182
 3556TIP3   OH232082   0.991   0.985  14.811  0.2959  0.1251  0.3088
 3556TIP3    H132083   1.016   1.075  14.835  3.2443 -0.2883 -0.7730
 3556TIP3    H232084   0.986   0.986  14.716 -1.0461 -0.5888  0.3492
 3557TIP3   OH232085   2.475   5.631  12.257 -0.2438 -0.2189 -0.0069
 3557TIP3    H132086   2.545   5.626  12.192  0.2600 -2.4669  0.6424
 3557TIP3    H232087   2.423   5.552  12.243 -0.6673 -0.2830  1.7329
 3558TIP3   OH232088   6.149   4.397   2.986 -0.0057 -0.4710  0.1016
 3558TIP3    H132089   6.233   4.400   2.941 -0.3283  0.6120 -0.4668
 3558TIP3    H232090   6.084   4.400   2.917 -0.5094  1.0759  0.5852
 3559TIP3   OH232091   6.570   2.681   1.656  0.2383  0.1369 -0.6711
 3559TIP3    H132092   6.482   2.680   1.618  0.1087 -1.8376 -0.4184
 3559TIP3    H232093   6.596   2.773   1.654 -1.6373  0.6935 -1.1824
 3560TIP3   OH232094   1.426   6.448  15.125  0.0791 -0.6505  0.2542
 3560TIP3    H132095   1.457   6.421  15.038 -0.3253 -1.5017  0.3715
 3560TIP3    H232096   1.426   6.544  15.121 -1.8542 -0.6579 -1.3753
 3561TIP3   OH232097   5.068   4.741   4.939 -0.5110 -0.1164  0.0623
 3561TIP3    H132098   5.137   4.777   4.993  0.0153 -1.2276  0.1547
 3561TIP3    H232099   5.082   4.781   4.853 -0.3350  0.3749  0.3149
 3562TIP3   OH232100   0.736   6.589   5.237  0.5536 -0.3643 -0.4225
 3562TIP3    H132101   0.678   6.661   5.262  3.0908  1.4556  0.6251
 3562TIP3    H232102   0.769   6.555   5.320  1.2232 -1.1476 -1.0013
 3563TIP3   OH232103   4.198   0.563   1.957  0.2917  0.3389 -0.1987
 3563TIP3    H132104   4.276   0.512   1.979  0.6705  0.2795 -1.6266
 3563TIP3    H232105   4.125   0.501   1.966  0.4371  0.2809  0.7067
 3564TIP3   OH232106   6.310   1.014  17.183 -0.1138 -0.2328  0.0189
 3564TIP3    H132107   6.315   1.037  17.276  2.4506  1.3040 -0.4040
 3564TIP3    H232108   6.238   1.067  17.149 -0.5369 -0.1825  0.9583
 3565TIP3   OH232109   4.202   2.189  13.387  0.0366 -0.2274  0.3431
 3565TIP3    H132110   4.109   2.165  13.386 -0.5214  1.7772  0.3899
 3565TIP3    H232111   4.247   2.110  13.355 -1.6595 -1.2564  0.3578
 3566TIP3   OH232112   5.624   1.197  12.363 -0.3304  0.0493  0.4035
 3566TIP3    H132113   5.586   1.248  12.291  0.6674 -0.0514 -0.2076
 3566TIP3    H232114   5.661   1.264  12.422  0.1904  0.0793  0.0504
 3567TIP3   OH232115   6.049   3.489  15.778 -0.0334  0.2308  0.1545
 3567TIP3    H132116   6.049   3.400  15.812  0.6058  0.4453  0.7490
 3567TIP3    H232117   5.978   3.533  15.827 -0.0227  0.1754  0.2196
 3568TIP3   OH232118   4.290   4.603  12.206  0.5557 -0.1135  0.0960
 3568TIP3    H132119   4.289   4.539  12.135  0.5499  0.1555 -0.1485
 3568TIP3    H232120   4.367   4.580  12.258  1.6021  0.7544 -0.9967
 3569TIP3   OH232121   2.893   3.094  13.729 -0.2288 -0.8297 -0.3091
 3569TIP3    H132122   2.802   3.122  13.719  0.5136  1.7077 -0.8943
 3569TIP3    H232123   2.913   3.047  13.648 -0.5611  0.1638 -0.9987
 3570TIP3   OH232124   0.684   6.542  15.229 -0.0397 -0.1235 -0.3601
 3570TIP3    H132125   0.775   6.527  15.256  0.1541  0.4448 -0.6790
 3570TIP3    H232126   0.691   6.602  15.155 -0.7007  0.3745 -0.0316
 3571TIP3   OH232127   0.299   0.029  16.730 -0.3427 -0.2055  0.3753
 3571TIP3    H132128   0.329  -0.018  16.808 -1.4388 -0.8807  0.4001
 3571TIP3    H232129   0.231   0.088  16.762  0.4230  0.8124  0.1989
 3572TIP3   OH232130   5.964   4.124  15.855 -0.3770  0.5841 -0.0510
 3572TIP3    H132131   5.935   4.033  15.849 -0.7459  0.7623 -1.1363
 3572TIP3    H232132   5.962   4.143  15.949  3.6295 -1.7749  0.7706
 3573TIP3   OH232133   4.592   2.127  16.116 -0.5085 -0.7467 -0.5086
 3573TIP3    H132134   4.578   2.222  16.121  1.0647 -0.5362  1.1194
 3573TIP3    H232135   4.623   2.112  16.027 -1.2580  0.1778 -0.9469
 3574TIP3   OH232136   0.191   1.206   6.486  0.1170 -0.3289 -1.0074
 3574TIP3    H132137   0.170   1.171   6.572  1.1228 -1.4564 -1.1845
 3574TIP3    H232138   0.107   1.212   6.441 -0.3412 -0.3133 -0.1528
 3575TIP3   OH232139   3.002   1.470  15.135  0.0362 -0.6049  0.3344
 3575TIP3    H132140   3.013   1.376  15.148 -1.3417 -0.8486 -0.0741
 3575TIP3    H232141   3.020   1.484  15.042  1.1413 -0.2999  0.5811
 3576TIP3   OH232142   6.106   0.699  15.318  0.1930  0.2401  0.3596
 3576TIP3    H132143   6.096   0.757  15.394 -1.8930  2.7783 -1.6222
 3576TIP3    H232144   6.147   0.755  15.251 -0.2143 -1.1131 -1.0875
 3577TIP3   OH232145   3.974   1.090   1.016 -0.3383  0.1506  0.6264
 3577TIP3    H132146   3.935   1.160   1.069 -0.1001  1.7578 -1.1791
 3577TIP3    H232147   4.067   1.093   1.036 -0.2880  0.5742  0.3503
 3578TIP3   OH232148   4.652   4.141   4.588  0.2390  0.3302  0.6445
 3578TIP3    H132149   4.724   4.195   4.622  0.9995  1.1407 -1.9746
 3578TIP3    H232150   4.581   4.203   4.574  0.1760  0.1539  0.1801
 3579TIP3   OH232151   3.472   5.808   2.288  0.0882 -0.0633  0.5154
 3579TIP3    H132152   3.391   5.793   2.238  0.6628  0.7594 -0.7122
 3579TIP3    H232153   3.461   5.896   2.324 -0.2116 -0.5531  1.6891
 3580TIP3   OH232154   2.474   1.580  11.464 -0.0012  0.1118 -0.7073
 3580TIP3    H132155   2.475   1.494  11.506 -1.8439 -0.3660 -1.5477
 3580TIP3    H232156   2.409   1.630  11.514  1.1705  1.1116 -0.1224
 3581TIP3   OH232157   0.572   4.459   4.188 -0.7955 -0.1844  0.1401
 3581TIP3    H132158   0.606   4.436   4.101 -0.7087 -2.3075  0.6825
 3581TIP3    H232159   0.543   4.549   4.179  0.9155  0.2615 -1.5805
 3582TIP3   OH232160   6.702   0.877   0.754  0.2579  0.5492  0.2707
 3582TIP3    H132161   6.792   0.888   0.785 -0.0010  1.0806  0.8719
 3582TIP3    H232162   6.711   0.846   0.664  1.0756  2.3789 -0.3328
 3583TIP3   OH232163   1.658   3.601   5.938 -0.1280 -0.4555 -0.1537
 3583TIP3    H132164   1.713   3.621   6.014 -0.7389  2.6072 -0.3957
 3583TIP3    H232165   1.636   3.508   5.949 -1.8429  0.1922  4.5685
 3584TIP3   OH232166   6.735   4.553  16.287  0.3293  0.1069 -0.2527
 3584TIP3    H132167   6.729   4.496  16.364  1.6959  0.9471  0.5158
 3584TIP3    H232168   6.810   4.518  16.238  0.5065  0.5777 -0.3248
 3585TIP3   OH232169   6.611   6.497  12.276  0.2487 -0.5286 -0.1012
 3585TIP3    H132170   6.629   6.591  12.276  0.5414 -0.5680 -1.5022
 3585TIP3    H232171   6.524   6.489  12.316 -0.1066  0.4121 -0.6656
 3586TIP3   OH232172   2.179   3.419   3.453 -0.1092 -0.0197  0.4842
 3586TIP3    H132173   2.197   3.437   3.361 -1.0370  0.3361  0.3668
 3586TIP3    H232174   2.174   3.506   3.494  3.0596 -0.1576  1.4613
 3587TIP3   OH232175   3.468   3.754  16.739  0.3099 -0.5897  0.0863
 3587TIP3    H132176   3.488   3.697  16.813  1.2085 -1.6801 -0.9556
 3587TIP3    H232177   3.516   3.716  16.666 -0.3600  0.6003 -1.0123
 3588TIP3   OH232178   6.151   5.078  14.303  0.3419  0.2638 -0.0222
 3588TIP3    H132179   6.190   5.008  14.252 -0.7153 -1.1067  0.9637
 3588TIP3    H232180   6.105   5.132  14.239 -0.5812 -1.1598 -0.6216
 3589TIP3   OH232181   0.163   1.860  11.663  0.1221  0.9111 -0.0470
 3589TIP3    H132182   0.108   1.878  11.740 -0.1459 -0.1017  0.0205
 3589TIP3    H232183   0.247   1.833  11.700  0.2327  1.1424 -0.1278
 3590TIP3   OH232184   6.604   2.067  15.369 -0.2649 -0.1113  0.2380
 3590TIP3    H132185   6.524   2.016  15.386 -3.0040  2.9153 -2.1362
 3590TIP3    H232186   6.617   2.118  15.449 -1.2530 -0.0583  0.3820
 3591TIP3   OH232187   2.262   2.902  15.433 -0.3162 -0.1561 -0.4836
 3591TIP3    H132188   2.211   2.827  15.463 -0.0354 -0.2799 -0.3065
 3591TIP3    H232189   2.257   2.965  15.505  1.6770 -1.0898  0.5425
 3592TIP3   OH232190   5.069   6.129  12.465 -0.5006  0.4899 -0.0983
 3592TIP3    H132191   5.162   6.108  12.468 -0.5233  0.5077  0.8878
 3592TIP3    H232192   5.046   6.154  12.554 -1.4352  0.5743 -0.3436
 3593TIP3   OH232193   6.722   4.595   5.137  0.4132  0.1553  0.2303
 3593TIP3    H132194   6.805   4.642   5.135 -0.5007  1.8414 -0.6802
 3593TIP3    H232195   6.737   4.522   5.198  2.6827  0.1001 -0.2943
 3594TIP3   OH232196   1.600   5.174   1.192 -0.1568 -0.3034  0.1250
 3594TIP3    H132197   1.669   5.111   1.173 -1.0327 -0.9449 -1.1064
 3594TIP3    H232198   1.644   5.259   1.191  0.8761 -0.8060  0.8986
 3595TIP3   OH232199   6.604   2.357  12.503 -0.0909  0.0860 -0.1811
 3595TIP3    H132200   6.528   2.367  12.561 -1.4180  1.5226 -2.0429
 3595TIP3    H232201   6.676   2.397  12.551 -0.4978 -1.0684  1.5241
 3596TIP3   OH232202   1.127   1.529  15.358  0.0822  0.5337 -0.2354
 3596TIP3    H132203   1.112   1.471  15.432 -0.3393  1.6728  0.5997
 3596TIP3    H232204   1.084   1.485  15.284 -0.7676  0.0845  0.5027
 3597TIP3   OH232205   4.003   0.261  16.706  0.4830 -0.3514 -0.1145
 3597TIP3    H132206   4.006   0.353  16.732 -0.9709 -0.4100  0.3742
 3597TIP3    H232207   4.091   0.242  16.673  1.7028  0.4450  2.4259
 3598TIP3   OH232208   4.245   2.551  16.593  0.1561  0.2926  0.0318
 3598TIP3    H132209   4.191   2.554  16.514  0.4265  0.6045 -0.1476
 3598TIP3    H232210   4.294   2.469  16.587 -2.9547 -1.9543  2.0051
 3599TIP3   OH232211   0.713   4.048   0.216 -0.0436 -0.0500 -0.1304
 3599TIP3    H132212   0.785   4.110   0.207  0.9361 -1.4588 -3.5542
 3599TIP3    H232213   0.635   4.097   0.188  0.3596  0.2566 -0.7272
 3600TIP3   OH232214   6.721   2.679   0.532  0.5115 -0.2745 -0.1846
 3600TIP3    H132215   6.793   2.742   0.527 -0.2710  0.7275  0.7647
 3600TIP3    H232216   6.764   2.594   0.530  1.4769  0.1698 -3.4978
 3601TIP3   OH232217   4.541   2.219  13.063  0.2529 -0.3813  0.4541
 3601TIP3    H132218   4.540   2.130  13.028  1.5598  0.3807 -1.7676
 3601TIP3    H232219   4.634   2.242  13.067 -0.0917  1.5011 -0.8527
 3602TIP3   OH232220   0.552   4.143   3.109  0.1262 -0.1962 -0.5141
 3602TIP3    H132221   0.561   4.095   3.026 -0.4034  2.0246 -1.9505
 3602TIP3    H232222   0.471   4.110   3.148 -0.7331  0.1310 -1.9403
 3603TIP3   OH232223   1.369   6.753  15.246 -0.3489  0.0804 -0.6067
 3603TIP3    H132224   1.413   6.682  15.293 -3.1915 -2.0121 -0.7985
 3603TIP3    H232225   1.288   6.766  15.295 -1.8530  0.1778 -2.9897
 3604TIP3   OH232226   0.929   6.108  13.281 -0.0338  0.1159  0.2039
 3604TIP3    H132227   0.848   6.117  13.232 -0.7708  1.9465  1.6535
 3604TIP3    H232228   0.988   6.174  13.244 -0.0577  0.4439  0.7363
 3605TIP3   OH232229   3.153   3.308   1.503 -0.2035  0.2345  0.0195
 3605TIP3    H132230   3.163   3.377   1.438  0.6834 -0.5636 -0.7141
 3605TIP3    H232231   3.152   3.355   1.587  0.8940  1.1011 -0.4244
 3606TIP3   OH232232   1.136   5.104   5.622  0.0427 -0.0511  0.3024
 3606TIP3    H132233   1.054   5.115   5.670 -0.7872  0.6673 -1.2042
 3606TIP3    H232234   1.183   5.186   5.635  1.4828 -1.1557  2.7686
 3607TIP3   OH232235   6.207   4.914  15.694 -0.0785 -0.2119  0.0468
 3607TIP3    H132236   6.112   4.918  15.681 -0.2211  1.2182  1.2231
 3607TIP3    H232237   6.244   4.947  15.612 -0.5813 -0.6993 -0.3863
 3608TIP3   OH232238   1.809   6.003   1.934 -0.5045 -0.2799  0.4277
 3608TIP3    H132239   1.876   5.995   1.866 -1.1780  0.6343 -0.3861
 3608TIP3    H232240   1.732   6.036   1.888 -1.2049 -0.3272  1.5181
 3609TIP3   OH232241   0.889   4.834   5.976 -0.1917 -0.2232 -0.3596
 3609TIP3    H132242   0.943   4.870   5.906  1.2028 -1.8693 -0.1809
 3609TIP3    H232243   0.950   4.787   6.032 -1.4800 -0.0581  1.2383
 3610TIP3   OH232244   4.155   4.113  11.544  0.7145 -1.0093 -0.1649
 3610TIP3    H132245   4.225   4.125  11.480  0.9679  0.2830  0.3142
 3610TIP3    H232246   4.074   4.112  11.493  0.2943  5.2325 -0.4449
 3611TIP3   OH232247   3.080   0.311  10.893 -0.4598 -0.0072  1.3660
 3611TIP3    H132248   3.068   0.358  10.810 -1.5220 -0.5547  1.1958
 3611TIP3    H232249   3.096   0.220  10.867  3.7614  0.4795  1.5786
 3612TIP3   OH232250   5.118   2.186   5.426 -0.4603  0.3262 -0.1868
 3612TIP3    H132251   5.037   2.177   5.477 -0.1506 -1.1846  0.0834
 3612TIP3    H232252   5.188   2.172   5.490 -0.0033  0.7660 -0.5879
 3613TIP3   OH232253   1.939   2.964  12.317 -0.1699 -0.4241  0.5797
 3613TIP3    H132254   1.848   2.991  12.304  0.1842  0.7066  0.3008
 3613TIP3    H232255   1.933   2.876  12.354 -1.4272  0.1564  1.8942
 3614TIP3   OH232256   1.655   1.192   0.593  0.2723  1.0551  0.7624
 3614TIP3    H132257   1.578   1.176   0.648 -0.1113 -1.0168 -0.2595
 3614TIP3    H232258   1.703   1.109   0.596  1.4787  1.7037 -0.1290
 3615TIP3   OH232259   6.191   4.610  16.562  0.4146 -0.5477 -0.0604
 3615TIP3    H132260   6.105   4.642  16.535  0.9415  1.4562  0.4921
 3615TIP3    H232261   6.252   4.680  16.540  1.4185 -0.4527  2.5896
 3616TIP3   OH232262   3.715   6.315  13.655 -0.1310 -0.5527  0.5112
 3616TIP3    H132263   3.633   6.349  13.618  0.0236  0.5587  1.1483
 3616TIP3    H232264   3.774   6.390  13.657  0.2701 -0.8713  1.8477
 3617TIP3   OH232265   3.197   2.080  12.107  0.4689  0.3164  0.2151
 3617TIP3    H132266   3.173   2.081  12.200  0.0035 -1.3857  0.1555
 3617TIP3    H232267   3.176   1.991  12.078  0.9309  0.7090 -1.4445
 3618TIP3   OH232268   3.180   2.349  16.189  0.0265  0.6225 -0.2713
 3618TIP3    H132269   3.171   2.367  16.283 -0.9958 -0.3364 -0.1698
 3618TIP3    H232270   3.090   2.346  16.157  0.3090 -0.4952 -0.9959
 3619TIP3   OH232271   4.154   0.282  13.540 -0.1506  0.0481  0.1360
 3619TIP3    H132272   4.201   0.357  13.575 -1.1874  1.7943 -1.9476
 3619TIP3    H232273   4.061   0.307  13.543 -0.7460 -2.0165  1.2439
 3620TIP3   OH232274   4.214   5.305  13.280 -0.7625 -0.1554  0.4993
 3620TIP3    H132275   4.195   5.236  13.344  0.1116 -0.7965  0.0911
 3620TIP3    H232276   4.213   5.260  13.196 -1.7658  0.6602  0.0556
 3621TIP3   OH232277   2.335   5.110   3.506 -0.0117 -0.1992  0.0918
 3621TIP3    H132278   2.430   5.103   3.517  0.3212  2.5011 -0.2538
 3621TIP3    H232279   2.310   5.033   3.456  1.8566 -1.3972  0.9212
 3622TIP3   OH232280   1.201   2.373  12.675 -0.0295 -0.5423  0.2122
 3622TIP3    H132281   1.293   2.346  12.682  0.5827  1.1240 -0.6851
 3622TIP3    H232282   1.205   2.462  12.640 -2.0185 -0.5874 -0.2561
 3623TIP3   OH232283   1.171   4.330   2.294  0.0558  0.6198 -0.4880
 3623TIP3    H132284   1.104   4.311   2.359  1.6730 -1.1929  0.7653
 3623TIP3    H232285   1.128   4.314   2.210 -1.8718  2.3125  0.1007
 3624TIP3   OH232286   0.434   6.644  13.304 -0.1188  0.0426 -0.5030
 3624TIP3    H132287   0.349   6.629  13.345  0.4778 -2.1190  0.1073
 3624TIP3    H232288   0.415   6.699  13.228 -1.9554  0.1457 -0.0164
 3625TIP3   OH232289   0.061   1.825   1.815  0.3134 -0.1641  0.0360
 3625TIP3    H132290  -0.005   1.893   1.798  0.6227 -0.1774 -1.2712
 3625TIP3    H232291   0.010   1.744   1.825  0.1278 -0.2176 -1.2154
 3626TIP3   OH232292   4.450   1.188  15.988 -0.1943 -0.7169  0.0768
 3626TIP3    H132293   4.361   1.209  16.015 -0.4962  3.6579 -3.1727
 3626TIP3    H232294   4.506   1.234  16.050 -0.3828 -0.2574 -0.0930
 3627TIP3   OH232295   1.953   3.290   3.388 -0.2943  0.1131 -0.7832
 3627TIP3    H132296   1.992   3.257   3.308  1.1620 -0.4706  0.1217
 3627TIP3    H232297   2.025   3.333   3.434 -0.9849  0.0539  0.4038
 3628TIP3   OH232298   5.354   0.265   5.163  0.5200  0.4015  0.1573
 3628TIP3    H132299   5.338   0.178   5.199  0.3082  0.0516 -0.7657
 3628TIP3    H232300   5.291   0.274   5.091 -0.0572  1.6546  0.7803
 3629TIP3   OH232301   4.424   1.789   3.660  0.6092  0.5240 -0.2630
 3629TIP3    H132302   4.484   1.735   3.711  1.5069 -0.4295 -2.2413
 3629TIP3    H232303   4.445   1.770   3.569 -1.1911  1.8762 -1.0303
 3630TIP3   OH232304   1.249   3.636  12.696  0.1787  0.2695  0.7296
 3630TIP3    H132305   1.304   3.714  12.693  0.1365  0.3067  0.8980
 3630TIP3    H232306   1.295   3.572  12.641  0.9794 -0.0643  1.7423
 3631TIP3   OH232307   1.988   6.476   1.961  0.2230  0.0822  0.6528
 3631TIP3    H132308   2.073   6.460   2.002  0.8814  1.1588 -0.2393
 3631TIP3    H232309   1.997   6.561   1.918 -1.3801  0.3113  0.6967
 3632TIP3   OH232310   3.030   1.249  10.366  0.5123 -0.4140  0.7281
 3632TIP3    H132311   2.971   1.253  10.441  1.8390  1.1044  1.7571
 3632TIP3    H232312   2.979   1.204  10.298 -2.0191  1.2353  1.3702
 3633TIP3   OH232313   4.600   6.349   0.306 -0.3608 -0.1885 -0.0546
 3633TIP3    H132314   4.608   6.327   0.399 -0.3609  3.6532  1.0408
 3633TIP3    H232315   4.691   6.362   0.277 -0.4328 -0.0404 -0.2147
 3634TIP3   OH232316   4.330   0.779   4.666 -0.3254 -0.0808  0.1729
 3634TIP3    H132317   4.235   0.786   4.670 -0.2404  1.0557  0.4574
 3634TIP3    H232318   4.356   0.761   4.756 -0.2022  0.7759  0.3212
 3635TIP3   OH232319   5.175   0.751  15.981  0.7460  0.1870 -0.4487
 3635TIP3    H132320   5.084   0.734  16.007  0.7871  1.9434  1.1041
 3635TIP3    H232321   5.226   0.729  16.059  1.4505  0.8963 -0.7002
 3636TIP3   OH232322   5.730   1.304   4.171 -0.2096 -0.0288 -1.0338
 3636TIP3    H132323   5.658   1.307   4.234 -0.5323 -1.1907 -1.3173
 3636TIP3    H232324   5.799   1.359   4.209 -0.6367 -0.2134  0.0258
 3637TIP3   OH232325   4.818   5.541  11.109 -0.3185 -0.0855 -0.4031
 3637TIP3    H132326   4.756   5.548  11.037 -0.2772  0.3864 -0.3931
 3637TIP3    H232327   4.838   5.447  11.114  0.8784  0.0280 -2.0290
 3638TIP3   OH232328   5.302   6.398  13.686  0.0022  0.0689  0.3507
 3638TIP3    H132329   5.330   6.310  13.660  0.0987  0.2728 -0.2478
 3638TIP3    H232330   5.278   6.441  13.604  2.7957  1.6215  0.2224
 3639TIP3   OH232331   1.901   0.347  15.562  0.0870 -0.0276  0.2647
 3639TIP3    H132332   1.831   0.288  15.534  0.5163 -0.0039 -0.9231
 3639TIP3    H232333   1.977   0.321  15.509  0.7082  0.5692  0.8478
 3640TIP3   OH232334   5.980   1.123   2.260  0.4583 -0.0629 -0.0209
 3640TIP3    H132335   6.011   1.126   2.169 -0.1179 -0.3197 -0.2300
 3640TIP3    H232336   6.059   1.107   2.312  1.1855  2.2935 -0.2584
 3641TIP3   OH232337   5.327   5.852  14.446  0.3522 -0.0834  1.0648
 3641TIP3    H132338   5.344   5.760  14.468  1.5191  0.2129  1.4904
 3641TIP3    H232339   5.318   5.895  14.531 -1.6568 -0.0364  0.8598
 3642TIP3   OH232340   4.787   3.473  14.157 -0.2163 -0.0257  0.2465
 3642TIP3    H132341   4.850   3.401  14.163  0.6703  0.5598 -1.1866
 3642TIP3    H232342   4.729   3.448  14.085  0.4525  0.9046 -0.6518
 3643TIP3   OH232343   4.217   0.063   1.694  0.1312 -0.0522 -0.1347
 3643TIP3    H132344   4.142   0.050   1.635  0.7020 -1.0839 -0.6506
 3643TIP3    H232345   4.280   0.112   1.641  0.9833 -1.6931 -0.7051
 3644TIP3   OH232346   2.960   1.851  11.054 -0.2039 -0.0210 -0.0891
 3644TIP3    H132347   3.013   1.918  11.011  0.9414 -0.3482  0.7452
 3644TIP3    H232348   2.870   1.871  11.028  0.2629  0.9247 -1.0609
 3645TIP3   OH232349   1.090   0.498  17.213  0.3405 -0.3321  0.1805
 3645TIP3    H132350   1.154   0.477  17.281 -0.4277  0.4671  1.1825
 3645TIP3    H232351   1.131   0.567  17.161  0.8558 -0.8118 -0.0604
 3646TIP3   OH232352   5.658   3.475  16.730  0.3859 -0.2366 -0.4081
 3646TIP3    H132353   5.653   3.481  16.825 -0.9518 -2.2188 -0.2773
 3646TIP3    H232354   5.711   3.397  16.714  1.2324  0.5093 -1.3124
 3647TIP3   OH232355   4.940   6.141  11.291  0.2693  0.1136 -0.3245
 3647TIP3    H132356   4.849   6.134  11.263  0.0151  0.7178  0.3152
 3647TIP3    H232357   4.991   6.132  11.211 -0.3912  0.6862 -0.8150
 3648TIP3   OH232358   6.281   6.431  14.344 -0.1838 -0.2693  0.0136
 3648TIP3    H132359   6.323   6.454  14.261 -1.5366 -0.4625 -0.7594
 3648TIP3    H232360   6.345   6.377  14.389  1.3195  1.3370 -0.0693
 3649TIP3   OH232361   2.823   1.841   6.522 -0.2251  0.7615  0.0609
 3649TIP3    H132362   2.869   1.915   6.482 -0.3919  0.8587  0.0427
 3649TIP3    H232363   2.748   1.882   6.566 -0.4166  0.5855 -0.0996
 3650TIP3   OH232364   1.968   1.645   2.500  0.0815 -0.2561 -0.4929
 3650TIP3    H132365   1.965   1.600   2.416  0.5574 -0.3346 -0.4672
 3650TIP3    H232366   2.032   1.716   2.488  0.0946 -0.2178 -0.2222
 3651TIP3   OH232367   5.866   4.814  15.239 -0.2638 -0.3812 -0.3258
 3651TIP3    H132368   5.941   4.873  15.248 -0.1017 -0.6741  0.2973
 3651TIP3    H232369   5.805   4.843  15.307  0.1052 -1.3511  0.4386
 3652TIP3   OH232370   5.102   1.494  17.084 -0.2790  0.9221  0.1571
 3652TIP3    H132371   5.137   1.523  17.168 -0.0072  0.0070  0.3644
 3652TIP3    H232372   5.123   1.566  17.024  1.3324  0.7241  0.4325
 3653TIP3   OH232373   5.248   4.272   1.605 -0.2887 -0.0695 -0.1191
 3653TIP3    H132374   5.201   4.284   1.523  0.5938 -1.9694 -0.9733
 3653TIP3    H232375   5.285   4.358   1.624  0.5535  0.1567 -2.4339
 3654TIP3   OH232376   1.447   4.104  15.451  0.2085 -0.1683  0.2622
 3654TIP3    H132377   1.476   4.021  15.413  0.6641 -0.3919  1.0761
 3654TIP3    H232378   1.359   4.117  15.416 -0.0832 -1.2821  0.5496
 3655TIP3   OH232379   5.015   4.803  14.952  0.2954  0.3317 -0.0731
 3655TIP3    H132380   4.995   4.720  14.994 -0.4607  0.3522 -0.3757
 3655TIP3    H232381   4.932   4.851  14.951  0.1503  0.1359 -1.9900
 3656TIP3   OH232382   4.820   5.380   3.444 -0.2298  0.4279  0.6206
 3656TIP3    H132383   4.771   5.298   3.440  0.3738  0.0773 -2.8126
 3656TIP3    H232384   4.763   5.445   3.402  1.4948  0.3315 -2.1228
 3657TIP3   OH232385   1.042   6.218  14.864  0.5032 -0.3299 -0.2032
 3657TIP3    H132386   1.028   6.260  14.949  0.3035 -0.6441 -0.0803
 3657TIP3    H232387   1.132   6.239  14.842 -0.2644  2.3285 -1.3165
 3658TIP3   OH232388   3.980   6.481  15.744  0.1818 -0.0621 -0.4314
 3658TIP3    H132389   4.039   6.405  15.747 -2.0862 -1.9850 -1.1657
 3658TIP3    H232390   3.893   6.443  15.730 -1.1739  2.6712 -0.0866
 3659TIP3   OH232391   5.425   0.050  10.845  0.1687 -0.3762  0.2363
 3659TIP3    H132392   5.365   0.019  10.778  0.8413 -0.3704 -0.3761
 3659TIP3    H232393   5.438  -0.025  10.903  0.6146 -0.7878 -0.3903
 3660TIP3   OH232394   2.478   5.163   2.919  0.5576  0.6195  0.4328
 3660TIP3    H132395   2.508   5.186   3.007  1.3774  2.9603 -0.3802
 3660TIP3    H232396   2.537   5.210   2.861  1.2041 -2.3217 -1.4772
 3661TIP3   OH232397   4.382   1.236  15.156 -0.0581  0.6353  0.0827
 3661TIP3    H132398   4.346   1.218  15.069 -1.9927  0.8238  0.8047
 3661TIP3    H232399   4.409   1.151  15.189  2.0298  0.7109 -1.1907
 3662TIP3   OH232400   3.405   3.598   5.174 -0.0225 -0.6626  0.4176
 3662TIP3    H132401   3.367   3.611   5.087 -1.2275 -1.6945  0.7508
 3662TIP3    H232402   3.440   3.509   5.171 -0.5152 -0.8924  1.1177
 3663TIP3   OH232403   5.336   1.055  15.023 -0.1056 -0.2297 -0.2292
 3663TIP3    H132404   5.315   1.120  14.956  0.3795  0.1925  0.0280
 3663TIP3    H232405   5.298   1.089  15.103 -0.2542 -0.4945 -0.1851
 3664TIP3   OH232406   5.999   3.797  11.747 -0.4019 -0.1424 -0.4491
 3664TIP3    H132407   6.074   3.737  11.746 -2.6890 -3.3604  0.7865
 3664TIP3    H232408   5.990   3.822  11.839 -0.6589  0.4718 -0.6388
 3665TIP3   OH232409   3.914   2.459  14.463 -0.3015  0.0082  0.5663
 3665TIP3    H132410   3.977   2.438  14.394 -1.8579 -0.7850 -0.6857
 3665TIP3    H232411   3.875   2.374  14.485 -1.2700  0.5419  0.9527
 3666TIP3   OH232412   0.486   2.273   5.734 -0.0830 -0.1289  0.5150
 3666TIP3    H132413   0.544   2.343   5.705 -1.3894  1.2556  1.0980
 3666TIP3    H232414   0.487   2.209   5.663  1.1781  0.4468 -0.0147
 3667TIP3   OH232415   2.554   0.951  12.756  0.5994 -0.0883 -0.1974
 3667TIP3    H132416   2.544   0.916  12.844  1.1529  0.1696 -0.0280
 3667TIP3    H232417   2.630   1.009  12.761  0.6680 -0.1065 -0.8531
 3668TIP3   OH232418   5.916   5.069   5.775  0.5989  0.0565  0.0731
 3668TIP3    H132419   5.850   5.043   5.840 -0.9729 -1.5087 -2.0215
 3668TIP3    H232420   5.911   5.165   5.773 -2.5770 -0.0096 -0.8542
 3669TIP3   OH232421   1.011   5.377   5.512 -0.0057 -0.3996 -0.3107
 3669TIP3    H132422   0.956   5.429   5.569  0.3873 -1.2770  0.8990
 3669TIP3    H232423   1.088   5.432   5.495  0.7459 -0.8178  1.5403
 3670TIP3   OH232424   2.397   0.017   5.893  0.5497 -0.2874 -0.0702
 3670TIP3    H132425   2.487  -0.017   5.891  0.5066 -0.4144 -2.2777
 3670TIP3    H232426   2.405   0.107   5.862  0.2692  0.8491  2.8525
 3671TIP3   OH232427   1.178   6.558  14.548  0.9719  0.0630  0.5627
 3671TIP3    H132428   1.228   6.565  14.629  0.7665 -1.4662  0.8492
 3671TIP3    H232429   1.216   6.483  14.502 -1.0062 -1.1361  0.7855
 3672TIP3   OH232430   4.492   0.010  14.711  0.2757  0.3604 -0.7075
 3672TIP3    H132431   4.501  -0.018  14.619 -0.4216  0.9612 -0.9726
 3672TIP3    H232432   4.404  -0.019  14.736  0.2306  0.7403 -0.4228
 3673TIP3   OH232433   1.103   1.048   1.312 -0.4507 -0.0867  0.1845
 3673TIP3    H132434   1.125   1.137   1.337 -1.3331 -0.4901  2.6248
 3673TIP3    H232435   1.019   1.056   1.267 -1.2489  0.2243  1.6557
 3674TIP3   OH232436   5.206   1.933  13.773  0.1513 -0.6245  0.1390
 3674TIP3    H132437   5.243   1.881  13.702  2.6053  0.1383  0.7560
 3674TIP3    H232438   5.214   2.024  13.744  1.1231 -0.3061  1.3207
 3675TIP3   OH232439   1.195   4.355   5.138  0.3502  0.3532  0.0973
 3675TIP3    H132440   1.286   4.354   5.168 -0.1245  1.3041  1.6721
 3675TIP3    H232441   1.146   4.390   5.212 -1.2948 -0.0237 -0.7761
 3676TIP3   OH232442   5.149   2.784  12.682  0.2126  0.3491 -0.0834
 3676TIP3    H132443   5.101   2.733  12.747  0.8273 -0.8839 -0.5625
 3676TIP3    H232444   5.239   2.751  12.687  0.5425  1.1316 -0.6704
 3677TIP3   OH232445   2.628   4.564   4.894  0.0488  0.8067 -0.2601
 3677TIP3    H132446   2.686   4.639   4.910  1.2372 -0.1326 -0.0414
 3677TIP3    H232447   2.686   4.495   4.862 -1.0812  0.0841 -0.7962
 3678TIP3   OH232448   2.020   6.037   6.024  0.5100 -0.2058 -0.2800
 3678TIP3    H132449   2.042   6.030   6.117  0.7992 -0.1696 -0.3436
 3678TIP3    H232450   2.030   6.130   6.004  0.2715 -0.1851 -0.3056
 3679TIP3   OH232451   0.448   6.671   0.683 -0.1918 -0.1574 -0.1903
 3679TIP3    H132452   0.366   6.652   0.637 -0.5250  1.9363 -0.5466
 3679TIP3    H232453   0.516   6.658   0.617 -0.3735 -0.3616 -0.3380
 3680TIP3   OH232454   3.607   2.999   6.163 -0.3259  0.8192  0.4093
 3680TIP3    H132455   3.686   3.031   6.118  0.8164 -2.1643  0.0513
 3680TIP3    H232456   3.637   2.976   6.251 -1.0368  0.6051  0.6033
 3681TIP3   OH232457   6.185   6.402   0.146 -0.0177 -0.1503 -0.1447
 3681TIP3    H132458   6.228   6.346   0.210  0.9883  0.3324 -0.3791
 3681TIP3    H232459   6.241   6.479   0.140 -0.9320  0.5030 -0.4531
 3682TIP3   OH232460   1.961   3.370  13.418 -0.9546 -0.0502 -0.6711
 3682TIP3    H132461   2.012   3.296  13.385  0.1618  0.9301 -1.2467
 3682TIP3    H232462   1.934   3.417  13.340  0.1221  1.2702 -0.2994
 3683TIP3   OH232463   0.832   0.423   4.320 -0.1022 -0.3152 -0.0259
 3683TIP3    H132464   0.802   0.405   4.230  1.3831 -1.7457 -0.2719
 3683TIP3    H232465   0.840   0.519   4.323  2.1411 -0.3309 -2.2579
 3684TIP3   OH232466   1.064   1.811  15.369 -0.1325  0.1873  0.2891
 3684TIP3    H132467   1.129   1.742  15.353  2.0013  2.0821  0.3935
 3684TIP3    H232468   0.982   1.763  15.382  1.4796 -2.4627  1.7554
 3685TIP3   OH232469   0.281   5.920   2.030 -0.3618 -0.1700 -0.2796
 3685TIP3    H132470   0.256   5.919   2.122  2.3942 -1.4577  0.5418
 3685TIP3    H232471   0.269   5.830   2.000 -2.1737  0.4331 -1.5220
 3686TIP3   OH232472   3.227   2.452   1.101  0.5573  0.3562 -0.0892
 3686TIP3    H132473   3.289   2.408   1.159  0.5339 -0.0316 -0.3498
 3686TIP3    H232474   3.270   2.534   1.077  1.5845 -0.4891 -1.3136
 3687TIP3   OH232475   4.531   4.380  11.561 -0.1522 -1.0213 -0.1706
 3687TIP3    H132476   4.525   4.351  11.470  0.1041 -0.9016 -0.2268
 3687TIP3    H232477   4.516   4.475  11.557  0.7438 -0.8704 -0.1974
 3688TIP3   OH232478   3.705   3.479   2.442 -0.3944 -0.5918 -0.4304
 3688TIP3    H132479   3.734   3.451   2.529  0.6403  2.6919  0.4479
 3688TIP3    H232480   3.782   3.469   2.386 -0.2773 -0.3433 -0.3171
 3689TIP3   OH232481   6.332   3.881   3.624 -0.4925 -0.3266 -0.0275
 3689TIP3    H132482   6.248   3.926   3.614 -0.1567  0.6093  1.0911
 3689TIP3    H232483   6.367   3.877   3.535 -1.6607 -0.6431 -0.4976
 3690TIP3   OH232484   5.641   4.047   3.420  0.0094 -0.3494  0.5837
 3690TIP3    H132485   5.711   4.060   3.484  1.5501  0.5622 -1.2143
 3690TIP3    H232486   5.578   4.117   3.438  0.5353  0.0324  0.9458
 3691TIP3   OH232487   6.586   5.895  12.888 -0.1188  0.3626  0.4080
 3691TIP3    H132488   6.668   5.893  12.839  0.1914 -0.8138  0.9518
 3691TIP3    H232489   6.604   5.955  12.961 -0.0191  0.7413  0.0794
 3692TIP3   OH232490   1.314   2.702  11.489  0.3056  0.2968 -0.0514
 3692TIP3    H132491   1.373   2.744  11.426  1.5694 -1.6462 -0.2491
 3692TIP3    H232492   1.229   2.700  11.444  0.4480  1.6175 -0.4395
 3693TIP3   OH232493   1.837   1.110  15.803  1.0838  0.3449 -0.0770
 3693TIP3    H132494   1.813   1.189  15.755 -1.6071 -0.7092 -0.6602
 3693TIP3    H232495   1.858   1.046  15.735 -2.7997 -1.1720 -0.1490
 3694TIP3   OH232496   4.008   6.043  11.076 -0.4255  0.6707 -0.1003
 3694TIP3    H132497   3.985   6.055  11.169  1.7988 -0.6496  0.6925
 3694TIP3    H232498   4.094   6.084  11.067  0.4741 -1.2827 -0.9501
 3695TIP3   OH232499   3.179   0.267  14.757  0.0514  0.5414 -0.8715
 3695TIP3    H132500   3.175   0.173  14.741  1.3222  0.6318 -1.8800
 3695TIP3    H232501   3.145   0.278  14.846  0.4228 -0.9415 -0.5211
 3696TIP3   OH232502   4.744   3.730   1.386 -0.3798 -0.2532 -0.5421
 3696TIP3    H132503   4.669   3.728   1.326  1.6338  1.1451 -3.3685
 3696TIP3    H232504   4.780   3.819   1.376  1.2678 -0.6428  1.2610
 3697TIP3   OH232505   1.596   4.949  13.576 -0.3028  0.1798  0.4287
 3697TIP3    H132506   1.536   4.966  13.504  0.5664 -2.8199 -1.1735
 3697TIP3    H232507   1.548   4.975  13.654 -1.9543  1.9075 -1.0693
 3698TIP3   OH232508   1.995   2.857  14.928  0.6566  0.0045 -0.1105
 3698TIP3    H132509   1.996   2.951  14.911 -0.0570 -0.2562 -1.8477
 3698TIP3    H232510   2.069   2.842  14.986 -0.0916  1.8285  1.4174
 3699TIP3   OH232511   3.599   2.003   1.232  0.0333  0.2266 -0.2510
 3699TIP3    H132512   3.666   2.064   1.201  0.7029  0.7374  2.0549
 3699TIP3    H232513   3.608   2.003   1.327 -0.2476 -3.1545 -0.1139
 3700TIP3   OH232514   3.158   1.781   2.945  0.0225 -0.2814 -0.5529
 3700TIP3    H132515   3.137   1.865   2.905 -0.4940 -0.7850 -1.3808
 3700TIP3    H232516   3.120   1.786   3.033 -0.5853  0.0992 -0.8332
 3701TIP3   OH232517   1.016   6.043  14.640  0.2306  0.2320 -0.0273
 3701TIP3    H132518   1.083   5.975  14.649  1.9576  1.6992 -0.9121
 3701TIP3    H232519   0.999   6.071  14.730 -0.8870 -1.6467  0.3973
 3702TIP3   OH232520   1.791   0.947   5.390 -0.3281 -0.7478  0.0449
 3702TIP3    H132521   1.717   0.888   5.397 -1.2670  0.3208 -0.4914
 3702TIP3    H232522   1.807   0.956   5.296 -0.3651  0.0374  0.1026
 3703TIP3   OH232523   1.157   5.356  13.324 -0.0762 -0.0405  0.0677
 3703TIP3    H132524   1.178   5.293  13.255 -2.8702 -1.5905  0.4791
 3703TIP3    H232525   1.099   5.420  13.282 -1.2746 -0.6277  0.7937
 3704TIP3   OH232526   1.489   5.993   3.746  0.4659 -0.8039 -0.1882
 3704TIP3    H132527   1.439   6.061   3.792  1.0678 -0.1368 -0.4921
 3704TIP3    H232528   1.444   5.911   3.767 -0.2094 -0.3239  0.2792
 3705TIP3   OH232529   1.205   2.605   1.915 -0.3392 -0.0634 -0.2631
 3705TIP3    H132530   1.141   2.669   1.887 -0.1465 -0.4636 -1.6618
 3705TIP3    H232531   1.158   2.549   1.977 -1.2787 -0.2519 -1.1400
 3706TIP3   OH232532   2.697   2.467   1.736  0.0891  0.3553 -0.6694
 3706TIP3    H132533   2.782   2.424   1.736  0.0715  0.3016  0.0437
 3706TIP3    H232534   2.667   2.462   1.827 -0.9966 -0.2584 -1.0425
 3707TIP3   OH232535   2.739   4.528  16.962 -0.0275  0.4394  0.1584
 3707TIP3    H132536   2.739   4.435  16.981  1.3002  0.7183  1.7193
 3707TIP3    H232537   2.674   4.538  16.893 -1.3658 -1.3997  1.0640
 3708TIP3   OH232538   1.171   1.505   1.122 -0.1599 -0.4402  0.0038
 3708TIP3    H132539   1.206   1.425   1.084  0.7260 -0.2497  0.3984
 3708TIP3    H232540   1.248   1.560   1.137 -0.6696  0.1499  0.4961
 3709TIP3   OH232541   3.608   6.217   4.342  0.5711  0.1231 -0.1406
 3709TIP3    H132542   3.556   6.272   4.283  0.4240  1.0112  0.7795
 3709TIP3    H232543   3.598   6.128   4.307 -0.9597  0.3790 -0.4251
 3710TIP3   OH232544   0.047   0.317   0.771 -0.2516 -0.2176  0.1416
 3710TIP3    H132545   0.071   0.399   0.814 -0.1455  0.1223 -0.5628
 3710TIP3    H232546   0.076   0.249   0.832 -0.8474  0.2726  0.9912
 3711TIP3   OH232547   4.572   4.546   3.577  0.2531 -0.0816  0.2695
 3711TIP3    H132548   4.653   4.544   3.628 -0.4252 -1.3217  1.3772
 3711TIP3    H232549   4.598   4.517   3.490  0.7370 -2.3757  1.1044
 3712TIP3   OH232550   1.619   3.811  13.734 -0.1512 -0.3184 -0.2388
 3712TIP3    H132551   1.643   3.861  13.656 -2.0933 -0.2624 -0.8433
 3712TIP3    H232552   1.625   3.874  13.806  0.1188  0.0485 -0.5780
 3713TIP3   OH232553   3.649   4.975   2.351 -0.2558 -0.2678 -0.0690
 3713TIP3    H132554   3.607   5.035   2.289 -0.9132  0.9901  1.5122
 3713TIP3    H232555   3.717   5.028   2.393 -0.4450 -0.7948  0.9414
 3714TIP3   OH232556   1.969   6.556   5.783 -0.2535 -0.3261  0.1759
 3714TIP3    H132557   1.987   6.531   5.693  0.8114 -0.3420  0.3803
 3714TIP3    H232558   1.993   6.479   5.835 -0.3067 -0.1169  0.5179
 3715TIP3   OH232559   6.262   4.877  14.167 -0.1566  0.1888  0.0205
 3715TIP3    H132560   6.208   4.853  14.093  1.0882  0.0723 -0.8746
 3715TIP3    H232561   6.301   4.795  14.197  0.9545  0.5084 -0.5092
 3716TIP3   OH232562   1.685   5.032  16.436 -0.1353 -0.1186 -0.1116
 3716TIP3    H132563   1.627   5.034  16.360 -0.1835 -1.2481 -0.1201
 3716TIP3    H232564   1.632   4.996  16.507 -0.6028  2.4812  0.9474
 3717TIP3   OH232565   6.615   6.690   4.134 -0.3372 -0.1958  0.0410
 3717TIP3    H132566   6.651   6.763   4.084 -1.0753  1.3842  1.7051
 3717TIP3    H232567   6.564   6.640   4.071  0.8747  0.2154 -1.3150
 3718TIP3   OH232568   0.675   0.082  11.233 -0.7206  0.8996  0.2233
 3718TIP3    H132569   0.717   0.131  11.303 -0.3954 -0.1036  0.7535
 3718TIP3    H232570   0.656  -0.004  11.272  0.3567 -0.0308 -1.1956
 3719TIP3   OH232571   3.073   4.271  11.622 -0.1584  0.5324  0.4099
 3719TIP3    H132572   3.023   4.264  11.540 -0.5341 -3.7748  0.7892
 3719TIP3    H232573   3.013   4.313  11.683 -0.7777  1.5484 -0.8373
 3720TIP3   OH232574   3.302   0.151  12.806 -0.3965 -0.7193 -0.4864
 3720TIP3    H132575   3.374   0.093  12.782 -0.1104 -0.2226 -0.8170
 3720TIP3    H232576   3.274   0.191  12.724 -0.0918  0.1957 -0.1538
 3721TIP3   OH232577   6.132   6.454  14.585  0.6334  0.2158 -0.3137
 3721TIP3    H132578   6.088   6.539  14.590  2.4362  1.1330  0.9640
 3721TIP3    H232579   6.183   6.458  14.504  0.2910  0.0945 -0.5429
 3722TIP3   OH232580   2.629   5.769   3.261 -0.7835  0.5281 -0.3763
 3722TIP3    H132581   2.667   5.685   3.288 -2.7412  0.0090  0.9675
 3722TIP3    H232582   2.540   5.748   3.235 -1.4510  2.2491  0.3852
 3723TIP3   OH232583   0.110   6.379   0.228  0.1150 -0.3886  0.3242
 3723TIP3    H132584   0.189   6.390   0.282 -0.1056 -2.0494  1.0509
 3723TIP3    H232585   0.039   6.413   0.282  0.1081 -0.5393  0.4110
 3724TIP3   OH232586   2.814   4.960  14.612  0.0366  0.3775  0.1714
 3724TIP3    H132587   2.752   5.031  14.591 -0.7560 -0.0605  0.9675
 3724TIP3    H232588   2.774   4.882  14.574 -0.8370 -0.2248  2.2071
 3725TIP3   OH232589   2.758   3.982   3.896  0.1949 -0.9356  0.3951
 3725TIP3    H132590   2.808   3.988   3.977  0.7529 -4.0486  0.4340
 3725TIP3    H232591   2.820   3.946   3.832 -0.5166  0.4630 -1.1494
 3726TIP3   OH232592   5.745   1.638   5.534  0.0825 -0.3872 -0.4910
 3726TIP3    H132593   5.681   1.571   5.510 -0.1713 -1.1038  1.9148
 3726TIP3    H232594   5.733   1.708   5.470 -1.1052 -1.7344 -1.7937
 3727TIP3   OH232595   6.341   2.480   0.928  0.0688  0.5810 -0.6946
 3727TIP3    H132596   6.406   2.410   0.941 -1.6866 -1.4670 -2.1691
 3727TIP3    H232597   6.386   2.543   0.871  1.0461 -0.4113 -1.0859
 3728TIP3   OH232598   6.136   0.933   0.489 -0.6329  0.0890 -0.5386
 3728TIP3    H132599   6.201   0.899   0.551  0.5641  2.7300 -0.2407
 3728TIP3    H232600   6.143   0.873   0.414  1.2504 -0.4457 -0.0042
 3729TIP3   OH232601   3.867   3.513   0.492 -0.1657 -0.0418  0.2005
 3729TIP3    H132602   3.932   3.579   0.469 -0.6174  1.1326  2.1405
 3729TIP3    H232603   3.797   3.561   0.536 -1.9495 -1.4103 -0.9700
 3730TIP3   OH232604   0.804   2.847  11.964  0.0503 -0.0350  0.6714
 3730TIP3    H132605   0.764   2.903  12.031 -0.2074  0.2840  0.2572
 3730TIP3    H232606   0.890   2.887  11.948  0.0916 -0.0821  0.7771
 3731TIP3   OH232607   2.128   3.879   3.130 -0.1597  0.5163  0.3051
 3731TIP3    H132608   2.177   3.924   3.061 -0.2219 -1.2664 -0.9748
 3731TIP3    H232609   2.086   3.949   3.180  1.8277  1.9722  0.0289
 3732TIP3   OH232610   3.569   6.586   4.380 -0.3869 -0.1977  0.0749
 3732TIP3    H132611   3.523   6.561   4.461  0.3181 -1.5532  0.0659
 3732TIP3    H232612   3.661   6.592   4.405 -0.2348 -0.0358 -0.5047
 3733TIP3   OH232613   2.580   0.985  15.810  0.9806  0.5902 -0.4907
 3733TIP3    H132614   2.553   0.926  15.881 -0.2519 -0.3173 -1.6724
 3733TIP3    H232615   2.648   0.938  15.763  0.4565  0.3702 -1.0418
 3734TIP3   OH232616   5.934   2.019  13.628  0.5284 -0.3931 -0.5218
 3734TIP3    H132617   6.004   2.069  13.669 -0.3921 -1.7759  3.2060
 3734TIP3    H232618   5.978   1.956  13.571  1.9727  1.3880 -1.4371
 3735TIP3   OH232619   3.083   3.552   3.896  0.2775  0.2731  0.3486
 3735TIP3    H132620   3.152   3.497   3.931  1.0972  0.3822 -1.0161
 3735TIP3    H232621   3.110   3.570   3.806 -0.7147  1.6697  0.2921
 3736TIP3   OH232622   1.152   4.467   2.960  0.0549 -0.0183  0.1870
 3736TIP3    H132623   1.168   4.377   2.931 -0.2688 -0.3889  1.1278
 3736TIP3    H232624   1.057   4.474   2.966 -0.0221  0.9339 -1.5183
 3737TIP3   OH232625   4.743   2.991  13.579 -0.2990 -1.0981  0.0559
 3737TIP3    H132626   4.677   2.991  13.509  0.9735  0.0145 -1.2207
 3737TIP3    H232627   4.791   2.910  13.566  0.9337 -0.2002 -1.4473
 3738TIP3   OH232628   4.274   1.697  12.038 -0.2397 -0.4851  0.0105
 3738TIP3    H132629   4.315   1.614  12.064  0.1157 -0.0297  0.9353
 3738TIP3    H232630   4.338   1.737  11.979 -0.1670 -0.6104  0.0028
 3739TIP3   OH232631   5.432   1.883  16.959 -0.4652 -0.3164 -0.4695
 3739TIP3    H132632   5.461   1.861  17.048 -3.3136  0.0480  0.6673
 3739TIP3    H232633   5.492   1.952  16.931  0.7041 -0.6563  1.0101
 3740TIP3   OH232634   1.539   1.613  10.868 -0.0932 -1.0845  0.3986
 3740TIP3    H132635   1.473   1.636  10.802 -2.4457 -0.5009  2.8062
 3740TIP3    H232636   1.566   1.524  10.845 -3.5391 -2.3296  0.6173
 3741TIP3   OH232637   1.398   3.836  15.610  0.2870 -0.1395  0.3731
 3741TIP3    H132638   1.486   3.802  15.593  0.1807  0.1890 -0.8803
 3741TIP3    H232639   1.344   3.801  15.540 -1.0455 -1.9166  2.1758
 3742TIP3   OH232640   6.740   3.992   0.091  0.3056  0.1983 -0.3690
 3742TIP3    H132641   6.755   4.085   0.071  1.0362  0.0916 -0.3570
 3742TIP3    H232642   6.775   3.946   0.015  1.4103 -0.1302  0.3210
 3743TIP3   OH232643   5.144   4.614   3.261 -0.5421 -0.5485  0.0451
 3743TIP3    H132644   5.157   4.697   3.216 -1.3524  1.2848  2.9418
 3743TIP3    H232645   5.052   4.615   3.288 -0.3187 -1.9173  0.9869
 3744TIP3   OH232646   2.900   1.842   3.069  0.1677 -0.1472  0.1041
 3744TIP3    H132647   2.859   1.896   3.002  3.0419 -0.7315 -2.4085
 3744TIP3    H232648   2.863   1.755   3.055  0.5898 -0.2192 -0.6421
 3745TIP3   OH232649   2.297   0.584   1.882 -0.3920  0.3342  0.3716
 3745TIP3    H132650   2.355   0.658   1.902  0.1711  0.0622 -0.2055
 3745TIP3    H232651   2.212   0.623   1.864 -0.2697  0.7807  0.7441
 3746TIP3   OH232652   2.274   1.553  16.683  0.2084 -0.1845 -0.3584
 3746TIP3    H132653   2.329   1.490  16.637  0.7917  1.0128 -1.3510
 3746TIP3    H232654   2.283   1.529  16.776 -0.2810 -2.0744 -0.7547
 3747TIP3   OH232655   4.320   4.150  11.879  0.1849 -0.1105 -0.6136
 3747TIP3    H132656   4.268   4.197  11.814  1.4207 -0.6701 -2.0699
 3747TIP3    H232657   4.411   4.167  11.854  0.6698 -1.8088 -0.1223
 3748TIP3   OH232658   5.652   0.443   4.666 -0.0412  0.0165 -0.6039
 3748TIP3    H132659   5.745   0.455   4.686 -0.0302  0.4405 -0.8991
 3748TIP3    H232660   5.615   0.404   4.745  0.4507 -0.4591 -0.6034
 3749TIP3   OH232661   3.391   3.719   6.274 -0.2985 -1.0257 -0.0104
 3749TIP3    H132662   3.350   3.648   6.225 -1.3991 -1.0993  0.9599
 3749TIP3    H232663   3.396   3.686   6.364 -0.3805 -0.0646  0.3625
 3750TIP3   OH232664   6.147   4.582  17.239  0.5397  0.4166  0.2419
 3750TIP3    H132665   6.082   4.576  17.169  0.5444 -0.2180  0.2775
 3750TIP3    H232666   6.204   4.654  17.214  0.3537  0.3950 -0.2473
 3751TIP3   OH232667   3.718   0.407  10.536  0.2206  0.1867 -0.6602
 3751TIP3    H132668   3.804   0.423  10.576 -0.9092  1.1790  1.5733
 3751TIP3    H232669   3.690   0.322  10.571  0.5555 -0.4618 -1.9270
 3752TIP3   OH232670   1.644   0.925   2.795  0.1657  0.1568 -0.3633
 3752TIP3    H132671   1.691   0.864   2.852  2.1995  0.2199 -1.8459
 3752TIP3    H232672   1.586   0.869   2.743  0.1634 -0.2039  0.0192
 3753TIP3   OH232673   6.440   2.855   5.568 -0.0496  0.5846 -0.0891
 3753TIP3    H132674   6.490   2.797   5.626  0.1497  2.4278  1.7198
 3753TIP3    H232675   6.500   2.875   5.496  0.6377  0.1773  0.3570
 3754TIP3   OH232676   2.981   6.492  14.620 -0.2524 -0.4482 -0.4375
 3754TIP3    H132677   2.949   6.407  14.651 -0.7511 -0.9604 -2.1814
 3754TIP3    H232678   3.075   6.480  14.610 -0.0565 -0.2078  0.9953
 3755TIP3   OH232679   2.987   2.688  11.301  0.4487 -0.6609 -0.0623
 3755TIP3    H132680   2.958   2.740  11.226  2.3759  0.0644 -0.3595
 3755TIP3    H232681   2.941   2.726  11.376 -1.2910 -1.2226 -0.8103
 3756TIP3   OH232682   0.583   1.569   3.943  0.0755  0.2606  0.1516
 3756TIP3    H132683   0.642   1.643   3.959  0.4984  0.2706 -1.3679
 3756TIP3    H232684   0.637   1.491   3.961 -0.2292  0.2770  1.2669
 3757TIP3   OH232685   5.288   1.860  14.890  0.0307 -0.1016 -0.0608
 3757TIP3    H132686   5.350   1.916  14.936  1.2245 -0.3100 -1.3371
 3757TIP3    H232687   5.243   1.919  14.830 -1.2317  0.0967  1.0440
 3758TIP3   OH232688   5.678   6.284  13.704 -0.3385  0.0150  0.3566
 3758TIP3    H132689   5.725   6.254  13.626 -1.4588  0.7395 -0.6299
 3758TIP3    H232690   5.648   6.372  13.681  0.4119  0.7749  2.1091
 3759TIP3   OH232691   0.094   4.942   5.183 -0.0161  0.0246  0.1833
 3759TIP3    H132692   0.138   4.858   5.170 -0.2117 -0.1106  0.3778
 3759TIP3    H232693   0.102   4.988   5.099 -1.6566 -0.9979 -0.5754
 3760TIP3   OH232694   2.059   4.310  16.783 -0.0077 -0.2504  0.1565
 3760TIP3    H132695   1.997   4.238  16.776  0.1822 -0.3441 -0.7455
 3760TIP3    H232696   2.021   4.380  16.729  1.0981 -0.6477 -1.2226
 3761TIP3   OH232697   6.068   2.626   4.563 -0.0864 -0.5692  0.4704
 3761TIP3    H132698   5.982   2.585   4.570 -0.8498  0.8174 -0.2841
 3761TIP3    H232699   6.106   2.587   4.483 -1.0210  0.5164 -0.5384
 3762TIP3   OH232700   0.011   3.589   3.413 -0.2545  0.0663  0.1784
 3762TIP3    H132701  -0.020   3.640   3.488 -0.5530  0.8947 -0.4936
 3762TIP3    H232702  -0.045   3.617   3.340 -1.0026 -1.8302 -0.0440
 3763TIP3   OH232703   4.810   6.028  17.081 -0.0787  0.1859  0.1094
 3763TIP3    H132704   4.887   6.003  17.131 -0.0931 -0.2133 -0.0679
 3763TIP3    H232705   4.751   5.953  17.088 -1.5451  1.4559  2.3847
 3764TIP3   OH232706   1.376   2.502   0.575  0.2116 -0.3361  0.5893
 3764TIP3    H132707   1.312   2.529   0.509  1.1476  0.0417 -0.1780
 3764TIP3    H232708   1.461   2.516   0.534  0.8008 -2.8243  0.7791
 3765TIP3   OH232709   4.260   0.325   5.061 -0.0514  0.1061  0.0483
 3765TIP3    H132710   4.229   0.257   5.121 -0.6138  0.7931  0.5610
 3765TIP3    H232711   4.354   0.311   5.053 -0.1968 -0.8509 -0.0136
 3766TIP3   OH232712   3.491   6.484   3.313  0.0043 -0.0467  0.6116
 3766TIP3    H132713   3.454   6.400   3.340  2.4420 -1.4375 -0.0956
 3766TIP3    H232714   3.500   6.534   3.395 -1.6912 -0.3201  1.0043
 3767TIP3   OH232715   2.758   0.076  17.242  0.2541 -0.3259  0.4140
 3767TIP3    H132716   2.669   0.042  17.231 -0.5068  2.1105 -2.2416
 3767TIP3    H232717   2.757   0.117  17.328 -1.0334 -0.7492  0.6368
 3768TIP3   OH232718   4.879   2.957   5.424 -0.0621 -0.4866  0.2053
 3768TIP3    H132719   4.817   2.988   5.491  0.3629 -1.1899  0.9403
 3768TIP3    H232720   4.964   2.961   5.467  0.3052 -0.2936 -0.5326
 3769TIP3   OH232721   1.255   0.753  12.842  0.2017 -0.0212  0.7427
 3769TIP3    H132722   1.224   0.832  12.798  0.6424  0.4050  1.1875
 3769TIP3    H232723   1.176   0.713  12.878  0.0068  0.3539  0.7352
 3770TIP3   OH232724   2.546   0.236   1.159 -0.3236 -0.0130 -0.7107
 3770TIP3    H132725   2.467   0.254   1.210  0.3307 -2.7574  1.5306
 3770TIP3    H232726   2.603   0.312   1.175 -1.5431  0.8522 -0.3386
 3771TIP3   OH232727   0.091   0.355   3.209 -0.4720 -0.4673 -0.0833
 3771TIP3    H132728   0.101   0.449   3.200  1.2900 -0.4915  1.0789
 3771TIP3    H232729  -0.003   0.341   3.222 -0.8023  1.0678 -0.7056
 3772TIP3   OH232730   4.328   1.162  10.830  0.1055 -0.2856  0.4127
 3772TIP3    H132731   4.267   1.141  10.901 -1.8061 -1.6773 -1.5000
 3772TIP3    H232732   4.346   1.078  10.789 -0.8238  0.6919 -2.2130
 3773TIP3   OH232733   5.619   5.358   3.788  0.0972 -0.4560 -0.5085
 3773TIP3    H132734   5.528   5.386   3.776 -0.3336 -0.9365  1.2173
 3773TIP3    H232735   5.616   5.303   3.867  1.9867  0.0280 -0.0513
 3774TIP3   OH232736   3.897   5.647  13.737 -0.3741  0.2404 -0.4360
 3774TIP3    H132737   3.845   5.622  13.814 -0.7072  0.8430 -0.4604
 3774TIP3    H232738   3.988   5.630  13.762 -0.6222 -1.5629 -0.6704
 3775TIP3   OH232739   2.846   6.407  13.427 -0.2789  0.0856  0.6138
 3775TIP3    H132740   2.905   6.402  13.352 -0.5185 -0.3158  0.4478
 3775TIP3    H232741   2.766   6.362  13.398 -0.7254  0.7554  0.7787
 3776TIP3   OH232742   6.626   0.337   1.905 -0.2849 -0.1197 -0.1334
 3776TIP3    H132743   6.705   0.316   1.855 -1.0960 -1.9809 -0.7049
 3776TIP3    H232744   6.656   0.338   1.996  0.6631  0.6369 -0.4286
 3777TIP3   OH232745   5.631   4.374  14.379  0.2438 -0.2781 -0.5170
 3777TIP3    H132746   5.632   4.378  14.283 -0.1532 -3.8274 -0.8041
 3777TIP3    H232747   5.551   4.327  14.400  1.1389 -1.0426  1.4261
 3778TIP3   OH232748   2.917   5.584  13.303  0.6237  0.2621 -0.7842
 3778TIP3    H132749   2.891   5.529  13.229 -2.5879 -2.5645  2.1380
 3778TIP3    H232750   2.972   5.527  13.357 -0.4741  0.8071  0.9781
 3779TIP3   OH232751   0.581   0.594   5.343  0.1197 -0.1864 -0.2521
 3779TIP3    H132752   0.496   0.574   5.384  0.8660  0.7569  1.9293
 3779TIP3    H232753   0.591   0.689   5.355  1.0019 -0.1009 -1.5126
 3780TIP3   OH232754   3.337   1.887   2.630 -0.4908 -0.1658  0.3058
 3780TIP3    H132755   3.387   1.915   2.553  0.5886 -2.2407  0.1810
 3780TIP3    H232756   3.302   1.801   2.606 -0.1584 -0.8412  2.0985
 3781TIP3   OH232757   0.865   3.000  11.228  1.0840  0.0628 -0.0122
 3781TIP3    H132758   0.845   3.042  11.145  0.9037 -1.9209 -1.0259
 3781TIP3    H232759   0.876   3.073  11.290  1.3339  1.5802 -1.7657
 3782TIP3   OH232760   5.585   2.334   4.703  0.2701 -0.1759 -0.4097
 3782TIP3    H132761   5.600   2.342   4.609 -0.6472  0.1518 -0.5355
 3782TIP3    H232762   5.501   2.289   4.711  0.1629  0.1260  0.2512
 3783TIP3   OH232763   0.374   6.087   1.255  0.0605 -0.3878 -0.2304
 3783TIP3    H132764   0.371   6.174   1.295  1.1247 -0.5279  0.1983
 3783TIP3    H232765   0.466   6.062   1.260 -0.1876 -1.4275 -0.6022
 3784TIP3   OH232766   4.161   5.693   2.566  0.0568  0.0289 -0.2288
 3784TIP3    H132767   4.224   5.622   2.576  2.1830  1.3958 -2.6230
 3784TIP3    H232768   4.103   5.662   2.496  0.3833  0.2212 -0.5916
 3785TIP3   OH232769   3.828   6.340  15.504 -0.6132  0.2926 -0.3557
 3785TIP3    H132770   3.737   6.363  15.525 -1.0834 -1.3677 -0.4770
 3785TIP3    H232771   3.856   6.408  15.442 -1.2339  1.7247  0.8567
 3786TIP3   OH232772   2.041   3.390  14.359 -0.5756 -0.1212 -0.6734
 3786TIP3    H132773   2.087   3.387  14.443 -1.1317  0.8525 -0.3161
 3786TIP3    H232774   2.108   3.368  14.294  0.5037  1.5929 -0.2033
 3787TIP3   OH232775   5.081   0.726   0.477  0.3613  0.0518  0.5813
 3787TIP3    H132776   5.164   0.701   0.435  0.0788  0.9991 -0.6128
 3787TIP3    H232777   5.046   0.644   0.511  1.2549 -0.5535  0.1102
 3788TIP3   OH232778   5.143   0.339  10.759  0.4298  0.6727 -0.2112
 3788TIP3    H132779   5.092   0.261  10.736  1.1242 -0.9894  3.1645
 3788TIP3    H232780   5.229   0.324  10.720  0.7394 -0.6416  0.8741
 3789TIP3   OH232781   6.703   5.584   2.575 -0.1424 -0.4727  0.6882
 3789TIP3    H132782   6.704   5.589   2.479  1.3472 -1.0714  0.6436
 3789TIP3    H232783   6.623   5.631   2.600 -0.1784  0.3506 -0.8002
 3790TIP3   OH232784   2.713   6.100  12.910 -0.0550  0.1147  0.9143
 3790TIP3    H132785   2.802   6.132  12.924  0.0614 -0.3625  1.2808
 3790TIP3    H232786   2.720   6.005  12.914  0.0146 -0.1401 -2.4431
 3791TIP3   OH232787   1.367   0.919  14.857  0.2061  0.4377  0.8592
 3791TIP3    H132788   1.448   0.969  14.866  0.5244  0.0729  0.1161
 3791TIP3    H232789   1.318   0.964  14.789  1.6697 -1.6700 -1.8242
 3792TIP3   OH232790   1.611   2.075   1.524  0.4260  0.0884 -0.1366
 3792TIP3    H132791   1.628   2.153   1.471 -0.2257  1.7395  1.9568
 3792TIP3    H232792   1.577   2.109   1.607 -2.4456 -2.5441 -0.0701
 3793TIP3   OH232793   6.572   2.435   6.016 -0.1391  0.0698 -0.3700
 3793TIP3    H132794   6.494   2.386   5.990 -0.1678 -0.3213  0.4190
 3793TIP3    H232795   6.572   2.512   5.959  0.0190 -0.9335 -1.7654
 3794TIP3   OH232796   4.361   2.637   4.279 -0.2367  0.2831  0.3976
 3794TIP3    H132797   4.288   2.633   4.341  0.3430 -1.4229  1.0360
 3794TIP3    H232798   4.432   2.678   4.327  0.5375 -1.9492  1.3095
 3795TIP3   OH232799   3.580   4.268  15.350 -0.1245  0.0246  0.2857
 3795TIP3    H132800   3.598   4.174  15.351  0.0414  0.0447  1.6086
 3795TIP3    H232801   3.639   4.303  15.283  0.4359 -0.7008  0.3841
 3796TIP3   OH232802   6.444   1.881  12.938 -0.1233  0.0136 -0.4997
 3796TIP3    H132803   6.445   1.785  12.933  0.1107 -0.0323  0.3445
 3796TIP3    H232804   6.533   1.904  12.964 -0.3084  0.4390 -0.2486
 3797TIP3   OH232805   3.375   5.478  14.594  0.1891 -1.1192 -0.5100
 3797TIP3    H132806   3.403   5.397  14.552  0.2098 -0.3357 -2.0807
 3797TIP3    H232807   3.292   5.500  14.553  0.6198  0.1148 -0.7806
 3798TIP3   OH232808   3.902   3.265   0.407  0.4902  0.4078  0.5068
 3798TIP3    H132809   3.982   3.261   0.355  0.2495 -1.4642  0.2121
 3798TIP3    H232810   3.885   3.358   0.418  1.2876  0.8424 -1.5990
 3799TIP3   OH232811   3.886   6.524  13.702 -0.1570 -0.2595  0.5261
 3799TIP3    H132812   3.899   6.509  13.795  1.9389 -0.9611  0.1609
 3799TIP3    H232813   3.972   6.550  13.669 -0.5238 -1.3404 -1.4358
 3800TIP3   OH232814   4.833   2.049  12.032 -0.5471  0.2133 -0.2799
 3800TIP3    H132815   4.759   2.020  11.978  0.1732 -0.2161 -1.0509
 3800TIP3    H232816   4.798   2.123  12.082 -1.1596  0.8362 -1.5716
 3801TIP3   OH232817   1.844   2.964   0.380  0.1443  0.1169  0.0816
 3801TIP3    H132818   1.774   3.010   0.333 -0.0344  1.6188  1.7145
 3801TIP3    H232819   1.900   3.034   0.415 -0.4828 -0.7984  3.2132
 3802TIP3   OH232820   5.563   3.046   2.994 -0.4672  0.3940 -0.2565
 3802TIP3    H132821   5.592   3.002   2.913 -1.6709  0.3442 -0.6795
 3802TIP3    H232822   5.546   2.974   3.055 -0.4539  0.3878 -0.2600
 3803TIP3   OH232823   0.770   6.358   0.336 -0.0568  0.1353  0.3214
 3803TIP3    H132824   0.820   6.300   0.393  0.4033 -0.3451 -0.5498
 3803TIP3    H232825   0.832   6.428   0.313  0.4252 -0.7510 -1.2021
 3804TIP3   OH232826   0.664   5.542   5.933 -0.0858  0.5375  0.5311
 3804TIP3    H132827   0.722   5.600   5.984 -0.5094  0.3200  1.2686
 3804TIP3    H232828   0.576   5.573   5.953 -0.2572  0.4725 -0.1091
 3805TIP3   OH232829   2.519   5.477  16.322 -0.4470  0.0275 -0.4344
 3805TIP3    H132830   2.517   5.470  16.226  0.0361  1.8969 -0.6326
 3805TIP3    H232831   2.555   5.565  16.338 -3.1748  0.9262  1.4297
 3806TIP3   OH232832   2.559   1.540  15.391  0.1678  0.1113  0.3286
 3806TIP3    H132833   2.594   1.511  15.307  0.0747 -2.9282  1.2114
 3806TIP3    H232834   2.622   1.604  15.423  0.6764  0.6455 -1.6441
 3807TIP3   OH232835   4.675   1.456   0.006 -0.6713 -0.3401  0.1625
 3807TIP3    H132836   4.726   1.394   0.058  0.5062  1.9339  1.9189
 3807TIP3    H232837   4.589   1.458   0.049 -0.4276 -0.1295  0.6498
 3808TIP3   OH232838   0.190   4.447   4.961  0.0318  0.1492 -0.4821
 3808TIP3    H132839   0.212   4.366   5.008  0.2311  0.8080  0.5879
 3808TIP3    H232840   0.238   4.516   5.008  1.8437  0.6162 -2.8381
 3809TIP3   OH232841   4.819   1.286   0.169 -0.0221 -0.2661  0.3613
 3809TIP3    H132842   4.801   1.194   0.148  0.8427 -0.8399  1.9205
 3809TIP3    H232843   4.914   1.293   0.164 -0.1746  1.1211 -1.7733
 3810TIP3   OH232844   0.213   0.113  15.093 -0.1133 -0.1082 -0.6431
 3810TIP3    H132845   0.286   0.073  15.045 -0.5192 -1.5930 -0.0859
 3810TIP3    H232846   0.252   0.187  15.138  1.1687 -1.1369  0.0019
 3811TIP3   OH232847   1.817   6.553  16.499  0.1281 -0.2713  0.4691
 3811TIP3    H132848   1.732   6.518  16.528  0.3003  0.9602  2.6379
 3811TIP3    H232849   1.829   6.515  16.412 -1.0090 -3.2855  1.4785
 3812TIP3   OH232850   4.178   0.578   5.260  0.8403  0.5220 -0.5466
 3812TIP3    H132851   4.112   0.543   5.199  1.0246  0.0171 -0.4644
 3812TIP3    H232852   4.214   0.500   5.302  0.6933  0.8685  0.2305
 3813TIP3   OH232853   3.998   4.095  15.873 -0.2069  0.5908 -0.1660
 3813TIP3    H132854   4.047   4.146  15.808  0.7472  2.4824  1.8824
 3813TIP3    H232855   3.913   4.139  15.879  0.3494  1.5620  1.0714
 3814TIP3   OH232856   2.445   2.359  11.589  0.0567  0.2244  0.7395
 3814TIP3    H132857   2.375   2.421  11.605 -0.5691  0.4022 -2.1635
 3814TIP3    H232858   2.430   2.328  11.500  2.2986 -1.5558  0.8873
 3815TIP3   OH232859   5.588   4.549   4.782  0.0686  0.1505 -0.3983
 3815TIP3    H132860   5.665   4.573   4.833 -0.0034  0.9445 -0.6519
 3815TIP3    H232861   5.514   4.580   4.833  0.0103  1.2921 -1.1345
 3816TIP3   OH232862   4.151   5.623   3.316  0.0272 -0.0594 -0.7020
 3816TIP3    H132863   4.190   5.567   3.383 -1.0927 -0.0181  0.0121
 3816TIP3    H232864   4.179   5.712   3.341 -0.5531 -0.0236 -0.1590
 3817TIP3   OH232865   5.343   4.641  11.332 -0.4351 -0.2338  0.1962
 3817TIP3    H132866   5.360   4.713  11.272 -1.2471 -1.0470 -1.0462
 3817TIP3    H232867   5.263   4.666  11.377 -0.7651 -0.3929 -0.2972
 3818TIP3   OH232868   1.838   3.804  11.937  0.3523 -0.4392 -0.4392
 3818TIP3    H132869   1.896   3.790  11.863  0.5738  1.3473 -0.6396
 3818TIP3    H232870   1.788   3.883  11.915  1.4069  0.9897  1.8799
 3819TIP3   OH232871   2.702   6.198  14.991  0.6645  0.4157 -0.6281
 3819TIP3    H132872   2.776   6.206  14.930  0.4660 -3.0575 -1.5045
 3819TIP3    H232873   2.734   6.140  15.060 -0.0284  2.0892  1.2045
 3820TIP3   OH232874   1.073   1.251  14.856  0.1425 -0.1710 -0.0453
 3820TIP3    H132875   0.992   1.277  14.812 -0.2464  2.1373  1.7995
 3820TIP3    H232876   1.116   1.334  14.878  0.8674 -1.1582  2.7966
 3821TIP3   OH232877   5.253   4.313  13.320  0.0912 -0.1136  0.0412
 3821TIP3    H132878   5.256   4.278  13.409 -3.3631 -0.1901  0.2593
 3821TIP3    H232879   5.262   4.407  13.331  0.2460 -0.1721  0.4176
 3822TIP3   OH232880   2.320   2.496  13.940 -0.4731 -0.4913 -0.3141
 3822TIP3    H132881   2.257   2.428  13.917 -0.1785 -0.4665 -1.1984
 3822TIP3    H232882   2.340   2.540  13.858 -0.8771  0.8615  0.2766
 3823TIP3   OH232883   5.291   5.544  13.502  0.0543 -0.7715  0.1340
 3823TIP3    H132884   5.293   5.514  13.411 -2.1830  0.0701 -0.2657
 3823TIP3    H232885   5.358   5.613  13.506 -1.9647  1.4996 -1.8542
 3824TIP3   OH232886   4.900   3.977   0.020  0.0417 -0.2786 -0.1170
 3824TIP3    H132887   4.922   3.972  -0.073  1.3902  0.9239  0.0950
 3824TIP3    H232888   4.984   3.994   0.063 -0.8806  1.7039  1.0432
 3825TIP3   OH232889   2.550   2.960  16.118  0.6431 -0.1729  0.2840
 3825TIP3    H132890   2.615   2.951  16.188  0.8212 -2.5662 -0.1034
 3825TIP3    H232891   2.466   2.945  16.162  0.4759  1.1444  0.4559
 3826TIP3   OH232892   6.759   2.924  15.132 -0.2826  0.0976 -0.4387
 3826TIP3    H132893   6.835   2.932  15.190 -1.1624 -0.2175  0.8024
 3826TIP3    H232894   6.796   2.904  15.046  1.0514 -5.3063  0.9839
 3827TIP3   OH232895   6.550   4.701   3.844  0.2516 -0.3169  0.3162
 3827TIP3    H132896   6.627   4.746   3.808 -0.4001 -1.0220 -2.1461
 3827TIP3    H232897   6.524   4.640   3.775 -2.6614  0.0680  0.9632
 3828TIP3   OH232898   0.018   3.939   6.301  0.1423  0.3315 -0.5274
 3828TIP3    H132899   0.008   4.021   6.254  1.4506  1.2461  0.6922
 3828TIP3    H232900  -0.004   3.961   6.392  2.8943  0.0176  0.3032
 3829TIP3   OH232901   6.319   4.521   2.793  0.4374  0.8195  0.0407
 3829TIP3    H132902   6.412   4.543   2.798  0.9445 -0.8417 -1.2604
 3829TIP3    H232903   6.275   4.594   2.836  2.2507  2.2697 -0.4402
 3830TIP3   OH232904   1.612   3.622  11.825  0.2303  0.0499  0.2102
 3830TIP3    H132905   1.565   3.702  11.799  1.7842  0.5080 -1.3902
 3830TIP3    H232906   1.702   3.638  11.798  0.4628 -2.4912 -0.7566
 3831TIP3   OH232907   0.971   0.141   2.454 -0.4420  0.3731  0.1071
 3831TIP3    H132908   0.978   0.055   2.496 -0.1616 -1.0089 -2.5133
 3831TIP3    H232909   0.912   0.190   2.511  0.0754 -1.2167  2.1740
 3832TIP3   OH232910   4.386   0.259  15.586 -0.0446 -0.1928  0.4347
 3832TIP3    H132911   4.301   0.301  15.603 -0.0482  1.1685 -2.3982
 3832TIP3    H232912   4.439   0.328  15.546  0.7413 -2.2251 -2.2885
 3833TIP3   OH232913   6.025   2.021  15.487 -0.1022 -0.6485 -0.0927
 3833TIP3    H132914   6.048   2.020  15.580  2.3038  3.4150 -0.4064
 3833TIP3    H232915   6.079   1.952  15.448 -1.3439 -2.5837  1.4659
 3834TIP3   OH232916   1.639   6.557   0.116 -0.0620  0.2236 -0.6247
 3834TIP3    H132917   1.603   6.607   0.190  1.8188 -2.9344  2.7973
 3834TIP3    H232918   1.573   6.489   0.100  1.0642 -1.3140  0.8466
 3835TIP3   OH232919   1.283   5.798  13.371  0.0136 -0.3906  0.0897
 3835TIP3    H132920   1.334   5.725  13.407 -0.8580 -0.5080  1.1060
 3835TIP3    H232921   1.287   5.785  13.276  2.5142  0.0390  0.0526
 3836TIP3   OH232922   2.631   0.332  10.215  0.3652 -0.2269  0.4666
 3836TIP3    H132923   2.569   0.260  10.229 -0.0466 -0.1376 -0.7595
 3836TIP3    H232924   2.576   0.411  10.214  0.9138  0.2268  2.6398
 3837TIP3   OH232925   2.708   3.526  12.972  0.3854 -0.0139 -0.5883
 3837TIP3    H132926   2.629   3.556  13.017 -0.4757 -0.6392 -1.6395
 3837TIP3    H232927   2.755   3.476  13.039  0.4082  1.1787  0.3359
 3838TIP3   OH232928   4.795   3.534  15.681 -0.4760 -0.5539  0.8783
 3838TIP3    H132929   4.851   3.589  15.736  0.3247 -0.4397 -0.0300
 3838TIP3    H232930   4.830   3.446  15.691  0.5431 -0.3303 -0.4847
 3839TIP3   OH232931   3.583   0.360   5.573 -0.1651 -0.3384 -0.1169
 3839TIP3    H132932   3.579   0.376   5.667 -2.2697 -0.7054 -0.0893
 3839TIP3    H232933   3.560   0.444   5.534 -3.4211 -1.0985 -0.1360
 3840TIP3   OH232934   6.039   3.118  10.723 -0.2920  0.1781  0.2305
 3840TIP3    H132935   6.044   3.025  10.701 -0.8099  0.6528 -2.2406
 3840TIP3    H232936   5.967   3.151  10.670  0.6892  2.2284  0.0813
 3841TIP3   OH232937   4.283   2.084   0.494  0.0341  0.2497 -0.7191
 3841TIP3    H132938   4.297   2.125   0.408 -0.2249 -0.7944 -1.2774
 3841TIP3    H232939   4.271   1.991   0.474  1.2232 -0.1992  0.5690
 3842TIP3   OH232940   5.434   0.605  11.663 -0.4045 -0.4271  0.5701
 3842TIP3    H132941   5.426   0.676  11.727  1.2934 -0.4956  0.9143
 3842TIP3    H232942   5.522   0.617  11.626 -0.2960 -2.0390  0.2660
 3843TIP3   OH232943   3.731   6.398   3.153  0.3257 -0.0425  0.6470
 3843TIP3    H132944   3.697   6.310   3.161 -0.3403  0.2954  1.7192
 3843TIP3    H232945   3.663   6.454   3.191  0.3493  1.0225 -0.7979
 3844TIP3   OH232946   3.556   1.309   0.558 -0.0926 -0.3556  0.2381
 3844TIP3    H132947   3.569   1.333   0.466 -1.8316 -0.6900 -0.1311
 3844TIP3    H232948   3.462   1.295   0.566  0.1090 -0.9842  1.9225
 3845TIP3   OH232949   1.198   4.018   3.604 -0.0042 -0.3209  0.0876
 3845TIP3    H132950   1.105   4.015   3.583 -0.1894  0.3167  0.7711
 3845TIP3    H232951   1.236   3.946   3.555 -0.8171 -0.4249 -0.4091
 3846TIP3   OH232952   5.378   5.440   2.764  0.2584 -0.4094 -0.0212
 3846TIP3    H132953   5.458   5.456   2.714  0.5975 -0.5041  0.4832
 3846TIP3    H232954   5.375   5.510   2.829 -0.3763 -0.0713 -0.4063
 3847TIP3   OH232955   0.188   5.914  14.851  0.0907 -0.2242 -0.3433
 3847TIP3    H132956   0.233   5.888  14.771 -1.1298  2.1262 -1.8812
 3847TIP3    H232957   0.096   5.896  14.834 -0.3084  1.2578  0.0825
 3848TIP3   OH232958   2.088   2.975  12.083  0.6010  0.1710 -0.3210
 3848TIP3    H132959   2.032   3.024  12.023 -0.4410 -1.3142 -0.5923
 3848TIP3    H232960   2.038   2.970  12.164  0.7645 -0.3328 -0.2502
 3849TIP3   OH232961   1.409   3.817   1.584  0.2021 -0.2325 -0.3728
 3849TIP3    H132962   1.448   3.768   1.512  2.2214 -0.8219  1.0544
 3849TIP3    H232963   1.418   3.760   1.660  0.4044  1.3485  0.8452
 3850TIP3   OH232964   0.092   6.335   1.847 -0.2735 -0.1549 -0.4152
 3850TIP3    H132965   0.041   6.329   1.767 -1.3873  0.4407  0.2221
 3850TIP3    H232966   0.106   6.429   1.859  1.6456 -0.3281 -0.9656
 3851TIP3   OH232967   3.861   4.015  11.153 -0.0136 -0.0659 -0.2527
 3851TIP3    H132968   3.857   4.088  11.091  1.9174 -0.9078 -1.4719
 3851TIP3    H232969   3.772   3.979  11.154 -0.8856  1.9655  0.0132
 3852TIP3   OH232970   0.879   2.809  11.459 -0.1637  0.2355 -0.1807
 3852TIP3    H132971   0.912   2.864  11.530  0.1215 -0.4615  0.2331
 3852TIP3    H232972   0.861   2.871  11.388 -1.0360  1.0209  0.6908
 3853TIP3   OH232973   6.357   4.792   2.490  0.0843  0.3094 -0.3236
 3853TIP3    H132974   6.357   4.888   2.487  0.2241  0.2845 -1.2775
 3853TIP3    H232975   6.265   4.768   2.496  0.0798  0.5148  0.5534
 3854TIP3   OH232976   2.775   2.717   1.756 -0.7366 -0.6123  0.2183
 3854TIP3    H132977   2.850   2.701   1.700 -0.5624  1.0759 -0.0882
 3854TIP3    H232978   2.719   2.640   1.745  0.5347 -1.5037 -0.1968
 3855TIP3   OH232979   4.961   3.127  14.113 -0.4849  0.6575  0.5601
 3855TIP3    H132980   4.906   3.131  14.034  0.3721  0.8783 -0.0314
 3855TIP3    H232981   4.927   3.051  14.161 -1.4866  0.9503  0.3428
 3856TIP3   OH232982   3.539   5.493  15.334 -0.0229  0.6443  0.1498
 3856TIP3    H132983   3.514   5.403  15.352  2.3718  0.0646  1.0353
 3856TIP3    H232984   3.569   5.527  15.418 -0.4348  2.1159 -0.2652
 3857TIP3   OH232985   0.100   3.869  12.978 -0.2364 -0.5167 -0.7509
 3857TIP3    H132986   0.068   3.813  13.049 -0.7991  0.4969 -0.1904
 3857TIP3    H232987   0.114   3.808  12.905 -1.6860 -1.2681 -0.4446
 3858TIP3   OH232988   4.285   1.188  10.417 -0.2134  0.2493  0.2410
 3858TIP3    H132989   4.248   1.122  10.358 -1.6325  2.9326 -2.1747
 3858TIP3    H232990   4.210   1.244  10.439  0.7967  0.7731  2.6696
 3859TIP3   OH232991   2.039   4.673  15.874 -0.9793 -0.0063  0.6088
 3859TIP3    H132992   2.125   4.713  15.884 -1.3673  0.8719  0.5555
 3859TIP3    H232993   1.988   4.738  15.826 -1.6846 -0.4990  0.6718
 3860TIP3   OH232994   2.190   6.489  14.918  0.2937 -0.0410 -0.3499
 3860TIP3    H132995   2.230   6.406  14.944 -0.7839 -0.7074 -0.7540
 3860TIP3    H232996   2.137   6.467  14.842 -0.8708  0.7967  0.1940
 3861TIP3   OH232997   2.910   0.740  13.581 -0.1422 -0.0134  0.2477
 3861TIP3    H132998   2.966   0.671  13.617 -0.0145  0.0198  0.1150
 3861TIP3    H232999   2.941   0.820  13.625 -0.6343 -0.1131  0.7895
 3862TIP3   OH233000   5.619   4.131   1.154  0.2715 -0.2122 -0.1527
 3862TIP3    H133001   5.553   4.199   1.161 -1.1522 -1.6860  1.4019
 3862TIP3    H233002   5.588   4.075   1.083  1.2666  0.5161 -1.2020
 3863TIP3   OH233003   2.920   2.321   6.160 -0.3866 -0.2715  0.5558
 3863TIP3    H133004   2.946   2.318   6.068 -0.0759  0.3048  0.6216
 3863TIP3    H233005   2.830   2.288   6.160  0.1390 -1.8197  0.2643
 3864TIP3   OH233006   6.333   4.688   5.128 -0.4444  0.3961 -0.1708
 3864TIP3    H133007   6.270   4.618   5.143  1.6663 -1.3544  1.0689
 3864TIP3    H233008   6.378   4.699   5.212  1.3786  1.0383 -1.1703
 3865TIP3   OH233009   6.221   6.327   3.409  0.0462  0.1069 -0.3730
 3865TIP3    H133010   6.172   6.348   3.330  1.9266  1.9260 -1.1393
 3865TIP3    H233011   6.245   6.412   3.446  3.2154 -0.6497 -0.4760
 3866TIP3   OH233012   5.639   4.887  13.034  0.0789  0.7887 -0.0939
 3866TIP3    H133013   5.685   4.911  13.114  1.4843  1.4082 -1.0523
 3866TIP3    H233014   5.686   4.933  12.964 -2.9769  2.8928 -0.9976
 3867TIP3   OH233015   4.176   0.568  12.191  0.2150  0.2741  0.2384
 3867TIP3    H133016   4.245   0.503  12.179  0.3641  0.2581  1.1404
 3867TIP3    H233017   4.184   0.595  12.282 -0.8512  0.4134  0.2979
 3868TIP3   OH233018   3.531   3.258   5.500 -0.0816  0.2618  0.0339
 3868TIP3    H133019   3.489   3.303   5.573  1.6423  1.4498  0.3599
 3868TIP3    H233020   3.512   3.165   5.515  0.2292  0.4689  2.0030
 3869TIP3   OH233021   2.648   2.099  15.056 -0.5192 -0.1319  0.7093
 3869TIP3    H133022   2.617   2.176  15.009 -0.3389  0.0466  0.8796
 3869TIP3    H233023   2.654   2.031  14.990 -1.6612 -0.2872  0.7353
 3870TIP3   OH233024   3.656   1.417  11.455 -0.9011  0.0662 -0.1550
 3870TIP3    H133025   3.696   1.442  11.372  0.5803  1.0569  0.8035
 3870TIP3    H233026   3.642   1.323  11.448 -1.9332  0.3299 -1.9698
 3871TIP3   OH233027   1.818   1.785  12.516 -0.6001 -0.1006  0.0150
 3871TIP3    H133028   1.889   1.722  12.519 -0.1528  0.4125  1.3688
 3871TIP3    H233029   1.854   1.864  12.558 -2.0277  0.0764  0.9828
 3872TIP3   OH233030   1.380   0.615   1.678 -0.0252 -0.4084 -0.2801
 3872TIP3    H133031   1.446   0.630   1.609 -0.6402 -0.6346 -0.9358
 3872TIP3    H233032   1.334   0.699   1.685  0.5843 -0.1257  0.4654
 3873TIP3   OH233033   4.451   1.599  16.975  0.2846  0.0043  0.3600
 3873TIP3    H133034   4.491   1.655  16.908 -1.2133 -0.6637 -1.1779
 3873TIP3    H233035   4.483   1.634  17.058  3.0252  0.2449 -0.7054
 3874TIP3   OH233036   0.889   2.911   0.844 -0.4025  0.3572 -0.3397
 3874TIP3    H133037   0.928   2.954   0.768  0.4880 -1.5280 -1.0151
 3874TIP3    H233038   0.846   2.981   0.892  1.3640  2.0671 -1.1242
 3875TIP3   OH233039   2.663   6.463  15.752  0.3381 -0.6072 -0.0194
 3875TIP3    H133040   2.659   6.502  15.665 -1.5672 -0.3940  0.1290
 3875TIP3    H233041   2.676   6.370  15.736  0.7948 -0.4666 -0.4979
 3876TIP3   OH233042   0.832   0.839  11.850  0.4484 -0.1190 -0.5510
 3876TIP3    H133043   0.867   0.907  11.792 -2.5411  1.3397 -0.8613
 3876TIP3    H233044   0.857   0.867  11.938 -1.6465  2.1804 -0.5593
 3877TIP3   OH233045   0.992   3.509  12.702  0.1683  0.3323 -0.2719
 3877TIP3    H133046   1.058   3.561  12.748  0.2719 -0.1675  0.1487
 3877TIP3    H233047   0.926   3.490  12.768 -1.7766  3.0151 -1.2496
 3878TIP3   OH233048   0.581   3.392  11.638  1.0866 -0.5569  0.2470
 3878TIP3    H133049   0.618   3.460  11.582 -0.1073  0.1035  0.2329
 3878TIP3    H233050   0.497   3.427  11.667 -0.9046 -3.0672 -1.9430
 3879TIP3   OH233051   4.170   0.820   1.786  0.4329  0.2137  0.0512
 3879TIP3    H133052   4.215   0.789   1.707  0.5649  0.0197  0.2026
 3879TIP3    H233053   4.211   0.771   1.857 -0.1472 -0.0980  0.1698
 3880TIP3   OH233054   5.656   1.405  11.072 -0.1055 -0.3564 -0.2409
 3880TIP3    H133055   5.716   1.441  11.138 -1.6460  1.9495  0.0118
 3880TIP3    H233056   5.569   1.434  11.100 -0.8468  0.5382 -3.1051
 3881TIP3   OH233057   6.318   1.425  14.076 -0.4266  0.3328  1.0815
 3881TIP3    H133058   6.388   1.482  14.044 -0.5569  1.0558  2.0114
 3881TIP3    H233059   6.309   1.357  14.010  1.4894 -0.0511  1.1755
 3882TIP3   OH233060   1.835   4.461   5.717 -0.5725  0.4049 -0.0721
 3882TIP3    H133061   1.914   4.447   5.770 -2.3094  0.0031  2.6086
 3882TIP3    H233062   1.864   4.446   5.627  1.7804 -2.6636  0.9916
 3883TIP3   OH233063   3.865   0.821  12.244 -0.1871 -0.9149 -0.0006
 3883TIP3    H133064   3.947   0.824  12.195 -0.3477 -1.3926 -0.3071
 3883TIP3    H233065   3.892   0.809  12.335  0.1114 -0.0744  0.0219
 3884TIP3   OH233066   0.449   4.754   6.389 -0.3763 -0.6799 -0.0709
 3884TIP3    H133067   0.487   4.728   6.473  1.0981 -1.8735 -1.0655
 3884TIP3    H233068   0.433   4.672   6.343 -0.3387 -0.0137 -1.3139
 3885TIP3   OH233069   5.871   5.772   4.236 -0.2103  0.4824 -0.1289
 3885TIP3    H133070   5.803   5.836   4.258 -1.8830 -0.6595 -1.7150
 3885TIP3    H233071   5.925   5.817   4.171 -1.6370  0.2335 -1.5659
 3886TIP3   OH233072   5.312   5.449   4.331  0.0994 -0.0946 -0.1022
 3886TIP3    H133073   5.269   5.534   4.316 -0.0546 -0.2403 -0.5101
 3886TIP3    H233074   5.401   5.471   4.357 -0.0619  0.2023  0.2054
 3887TIP3   OH233075   3.744   3.243   0.690 -0.2179 -0.3055 -0.4408
 3887TIP3    H133076   3.769   3.327   0.728  0.4679 -0.0172 -1.4754
 3887TIP3    H233077   3.793   3.239   0.608  1.3735 -2.6010  0.5086
 3888TIP3   OH233078   1.290   0.664   1.030 -0.2291 -0.0053  0.1838
 3888TIP3    H133079   1.261   0.670   1.121  0.9045  1.6627  0.4811
 3888TIP3    H233080   1.222   0.711   0.981 -0.4225 -0.1962  0.2650
 3889TIP3   OH233081   4.908   1.309  13.846  0.4628  0.2987 -0.0867
 3889TIP3    H133082   4.854   1.340  13.773  0.4598 -0.2669 -0.3322
 3889TIP3    H233083   4.853   1.244  13.890  0.1272  1.2403  0.9494
 3890TIP3   OH233084   6.040   5.534   4.731  0.4214 -0.3274  0.2893
 3890TIP3    H133085   6.063   5.443   4.713  0.0182 -0.0742 -1.7445
 3890TIP3    H233086   5.956   5.529   4.777  0.3313 -0.9830  0.0668
 3891TIP3   OH233087   0.831   0.875  16.805  0.9236  0.3873 -0.0342
 3891TIP3    H133088   0.773   0.844  16.874  2.5458 -0.1571  1.1448
 3891TIP3    H233089   0.860   0.961  16.835 -0.8549  1.6190 -1.6351
 3892TIP3   OH233090   1.293   4.828  15.223 -0.2627 -0.0240 -0.2286
 3892TIP3    H133091   1.229   4.848  15.154 -0.2456 -1.5063 -0.7203
 3892TIP3    H233092   1.370   4.797  15.175  0.2310  0.1840  0.4234
 3893TIP3   OH233093   4.125   5.368   2.467 -0.4914 -0.3514  1.1672
 3893TIP3    H133094   4.094   5.286   2.507  0.4497 -2.4409 -1.9829
 3893TIP3    H233095   4.051   5.396   2.412 -0.2133 -0.0202  0.9647
 3894TIP3   OH233096   0.364   4.266   4.476  0.7296 -0.2216 -0.3202
 3894TIP3    H133097   0.358   4.171   4.465 -0.2610 -0.0089 -1.8859
 3894TIP3    H233098   0.411   4.278   4.559  0.0756 -2.0748  0.3598
 3895TIP3   OH233099   6.476   1.921   0.438 -0.4154 -0.0991 -0.3365
 3895TIP3    H133100   6.467   2.016   0.439 -1.5639 -0.1868 -0.5363
 3895TIP3    H233101   6.570   1.906   0.429 -0.0746  0.9942  1.0127
 3896TIP3   OH233102   0.893   2.549   1.654  0.1719 -0.2635  0.2202
 3896TIP3    H133103   0.832   2.510   1.591  0.1572 -2.7139  1.6274
 3896TIP3    H233104   0.978   2.512   1.631  0.7829  1.4163 -0.3534
 3897TIP3   OH233105   1.793   6.638  11.556  0.6769  0.2031  0.2072
 3897TIP3    H133106   1.725   6.700  11.530 -0.7960 -2.2002 -2.1833
 3897TIP3    H233107   1.864   6.653  11.494 -0.6832 -1.9752 -2.0467
 3898TIP3   OH233108   0.494   6.720  11.803  0.4300  0.3993  0.3511
 3898TIP3    H133109   0.420   6.668  11.771  1.1043 -1.4776  1.6493
 3898TIP3    H233110   0.509   6.786  11.735 -1.6511  0.0740 -0.4944
 3899TIP3   OH233111   0.735   5.154   2.335 -0.9645 -0.3111  0.6581
 3899TIP3    H133112   0.730   5.237   2.382 -0.7388  0.5059 -0.7078
 3899TIP3    H233113   0.672   5.163   2.264 -1.1071 -1.4146  0.6356
 3900TIP3   OH233114   3.623   2.056   3.273  0.5986  0.5361  0.9128
 3900TIP3    H133115   3.625   2.122   3.204  0.2341  0.8609  1.2090
 3900TIP3    H233116   3.543   2.075   3.323  0.9006  0.3608  1.4765
 3901TIP3   OH233117   4.486   3.202  13.249  0.6280 -0.1897 -0.8612
 3901TIP3    H133118   4.497   3.124  13.303  1.0825  0.9059  0.6941
 3901TIP3    H233119   4.470   3.273  13.311  0.2795  0.9879 -2.2195
 3902TIP3   OH233120   3.052   5.221  12.889 -0.3081 -0.2854  0.0705
 3902TIP3    H133121   3.082   5.130  12.896  0.6498  0.0454  0.4167
 3902TIP3    H233122   3.133   5.273  12.890 -0.7535  0.5026 -1.5576
 3903TIP3   OH233123   4.813   5.270   2.899 -0.0565 -0.1652 -0.1526
 3903TIP3    H133124   4.721   5.291   2.914 -0.3229 -1.6752  0.5091
 3903TIP3    H233125   4.812   5.183   2.858  1.0724 -0.2116 -0.1185
 3904TIP3   OH233126   2.405   0.182  12.637 -0.1887 -0.2926  0.2917
 3904TIP3    H133127   2.426   0.266  12.678 -1.1111 -0.7991  1.9148
 3904TIP3    H233128   2.395   0.201  12.544 -1.5088  1.6233  0.7791
 3905TIP3   OH233129   2.459   2.840   0.609  0.0456  0.1808  0.1608
 3905TIP3    H133130   2.524   2.908   0.629  0.1969 -0.1096  0.6661
 3905TIP3    H233131   2.375   2.886   0.614  0.1928  0.4896 -0.1941
 3906TIP3   OH233132   5.109   2.922  11.785 -0.2246  0.5007  0.1018
 3906TIP3    H133133   5.187   2.875  11.755 -1.1470 -0.9351 -0.1518
 3906TIP3    H233134   5.143   2.989  11.845  1.3548  1.2906 -1.5844
 3907TIP3   OH233135   0.728   3.057   3.306  0.0430  0.0156  0.5947
 3907TIP3    H133136   0.693   3.056   3.217  1.7993 -0.5568 -0.1368
 3907TIP3    H233137   0.720   2.967   3.336  0.2644  0.0172  0.6658
 3908TIP3   OH233138   5.601   3.994   6.395  0.3041 -0.2842  0.6662
 3908TIP3    H133139   5.549   3.920   6.426 -0.0257 -0.4326 -0.1962
 3908TIP3    H233140   5.608   4.053   6.470 -0.0410 -0.8538  1.1497
 3909TIP3   OH233141   2.439   3.567  13.093  0.2140  0.5132 -0.2204
 3909TIP3    H133142   2.498   3.632  13.132  0.4679  0.8198 -1.0817
 3909TIP3    H233143   2.420   3.506  13.164  2.7467 -0.4312 -0.2489
 3910TIP3   OH233144   1.668   0.666  13.050  0.0438  0.4504  0.3834
 3910TIP3    H133145   1.659   0.616  12.969 -0.0688 -1.7430  1.6630
 3910TIP3    H233146   1.579   0.686  13.077 -0.0165 -0.3335  0.8094
 3911TIP3   OH233147   3.739   1.693   5.669 -0.1358  0.5635 -0.5010
 3911TIP3    H133148   3.794   1.660   5.740  0.8483 -0.1749 -1.5642
 3911TIP3    H233149   3.706   1.614   5.626 -1.0733  1.0003 -0.6045
 3912TIP3   OH233150   4.364   0.784   0.187  0.1888 -0.3516 -0.3780
 3912TIP3    H133151   4.315   0.864   0.201 -0.7792 -1.0986  0.6689
 3912TIP3    H233152   4.445   0.796   0.237  0.2195  0.1154 -0.5381
 3913TIP3   OH233153   1.981   4.028  13.434 -0.1303 -0.1067  0.3201
 3913TIP3    H133154   2.056   3.991  13.389  1.2131  0.0960  2.2473
 3913TIP3    H233155   2.017   4.102  13.483 -1.5901  0.0394  1.2378
 3914TIP3   OH233156   5.001   1.302   5.287  0.1610  0.6148  0.0584
 3914TIP3    H133157   4.948   1.227   5.259  1.1081  0.3048 -0.9609
 3914TIP3    H233158   4.952   1.340   5.360 -0.6404 -0.6251  0.1873
 3915TIP3   OH233159   2.954   5.029  16.838  0.6429 -0.1784  0.2534
 3915TIP3    H133160   2.872   5.046  16.791  1.6594 -0.3459 -1.6821
 3915TIP3    H233161   2.955   4.934  16.851  0.4916 -0.1640  0.3741
 3916TIP3   OH233162   5.906   4.999  11.469 -0.2834  0.0703 -0.0252
 3916TIP3    H133163   5.932   4.957  11.551 -1.2995  0.9990  0.7913
 3916TIP3    H233164   5.953   5.082  11.469  0.2712 -0.2255 -0.7548
 3917TIP3   OH233165   6.135   5.146   4.941  0.1951 -0.3833  0.2554
 3917TIP3    H133166   6.178   5.108   5.018 -2.4610 -0.8190  1.6224
 3917TIP3    H233167   6.042   5.142   4.961 -0.4539  3.0487 -1.3391
 3918TIP3   OH233168   5.629   1.133  13.767  0.7441 -0.3387  0.1237
 3918TIP3    H133169   5.672   1.211  13.731 -0.6501 -0.7202 -2.5965
 3918TIP3    H233170   5.553   1.168  13.815 -0.2960  0.0224 -1.6979
 3919TIP3   OH233171   0.626   2.077   4.634  0.6261 -0.3881 -0.2379
 3919TIP3    H133172   0.610   2.073   4.539  1.4122  2.1196 -0.5197
 3919TIP3    H233173   0.684   2.152   4.646 -2.4055  1.7834  2.5690
 3920TIP3   OH233174   0.485   1.967  17.089 -0.1884 -0.0793  0.1784
 3920TIP3    H133175   0.566   2.003  17.125 -0.9463  0.5880  1.2494
 3920TIP3    H233176   0.447   2.039  17.038 -0.6619 -0.0097  0.6147
 3921TIP3   OH233177   4.641   2.413  16.148 -0.7051 -0.0472 -0.7535
 3921TIP3    H133178   4.682   2.457  16.222 -0.3878 -1.0452 -0.3135
 3921TIP3    H233179   4.616   2.484  16.088 -0.4417  0.7300  0.0379
 3922TIP3   OH233180   2.074   4.566   0.001  0.2535 -0.2301  0.4695
 3922TIP3    H133181   2.091   4.529   0.088 -0.5513 -0.2991  0.6040
 3922TIP3    H233182   2.096   4.495  -0.060 -1.0315 -0.8683  0.7146
 3923TIP3   OH233183   5.788   2.112   0.479  0.4462 -0.0219  0.2592
 3923TIP3    H133184   5.727   2.176   0.441  1.9316  1.7853  0.7817
 3923TIP3    H233185   5.746   2.027   0.464 -2.5055  1.1568  1.1738
 3924TIP3   OH233186   3.245   4.190  12.058  0.1255 -0.2930  0.0329
 3924TIP3    H133187   3.309   4.216  12.124  0.3110 -0.4894 -0.0712
 3924TIP3    H233188   3.204   4.111  12.094 -0.3426  0.0579  0.2855
 3925TIP3   OH233189   1.265   3.780   4.840  0.1022  0.5212 -0.3497
 3925TIP3    H133190   1.340   3.837   4.859  0.1914  0.2697  0.0567
 3925TIP3    H233191   1.209   3.832   4.783  0.1665  1.0320  0.0493
 3926TIP3   OH233192   2.834   1.443  13.725 -0.3113 -0.8711  0.0401
 3926TIP3    H133193   2.844   1.366  13.669 -1.2272 -1.0680  0.1308
 3926TIP3    H233194   2.746   1.434  13.762  0.3266 -0.8345  1.6523
 3927TIP3   OH233195   1.773   2.916   3.702 -0.0725  0.7027  0.9083
 3927TIP3    H133196   1.706   2.973   3.664 -0.3185 -0.3382 -0.2811
 3927TIP3    H233197   1.775   2.839   3.645  1.3686  0.2148  1.5549
 3928TIP3   OH233198   1.465   3.015  15.840  0.5493  0.1258  0.2287
 3928TIP3    H133199   1.441   2.929  15.873 -2.3681  0.9247  0.4442
 3928TIP3    H233200   1.532   2.997  15.774 -0.7473 -2.4575 -0.5391
 3929TIP3   OH233201   6.309   2.616   2.717 -0.1156  0.1006 -0.2715
 3929TIP3    H133202   6.386   2.643   2.667  1.0187 -0.5122  1.0893
 3929TIP3    H233203   6.323   2.652   2.805 -0.2165 -1.9584  0.6501
 3930TIP3   OH233204   1.521   2.052  13.541 -0.1441  0.1531 -0.2673
 3930TIP3    H133205   1.542   2.074  13.631  1.0301  0.2344 -0.5443
 3930TIP3    H233206   1.598   2.079  13.491 -0.2679 -1.0048 -1.1310
 3931TIP3   OH233207   1.753   4.483   3.332  0.1690 -0.2355  0.2169
 3931TIP3    H133208   1.849   4.486   3.336  0.3381 -0.8067 -1.9773
 3931TIP3    H233209   1.725   4.485   3.423  2.2535  0.2726  0.9037
 3932TIP3   OH233210   0.510   5.027  16.140 -0.3074  0.2616  0.1372
 3932TIP3    H133211   0.568   4.987  16.076 -2.3862 -0.2795 -1.5432
 3932TIP3    H233212   0.463   5.094  16.090 -2.6056 -0.7459  0.8168
 3933TIP3   OH233213   0.506   5.753   5.514 -0.5417 -0.0405 -0.3294
 3933TIP3    H133214   0.554   5.836   5.513  1.0961 -0.8330  1.8542
 3933TIP3    H233215   0.550   5.699   5.448 -0.4463  0.2612 -0.5142
 3934TIP3   OH233216   5.377   3.174   4.430  0.1947 -0.0829  0.4606
 3934TIP3    H133217   5.441   3.104   4.444 -0.3648 -0.4588  1.1926
 3934TIP3    H233218   5.292   3.131   4.439 -0.1913  0.2426 -1.2749
 3935TIP3   OH233219   5.186   4.572  15.886  0.1698  0.7205  0.0120
 3935TIP3    H133220   5.216   4.628  15.958  0.0432 -0.4995  1.0483
 3935TIP3    H233221   5.129   4.508  15.928  0.5074 -0.3448 -1.1068
 3936TIP3   OH233222   3.846   4.945  16.604 -0.0177 -0.0727 -0.3178
 3936TIP3    H133223   3.850   4.850  16.613 -2.3783 -0.2458 -0.4438
 3936TIP3    H233224   3.889   4.979  16.682 -1.2139 -1.2890  0.9272
 3937TIP3   OH233225   1.985   3.778   5.749  0.3806  0.5752  0.4254
 3937TIP3    H133226   2.001   3.872   5.743 -1.1852  0.7848 -1.9400
 3937TIP3    H233227   1.890   3.770   5.752  0.4271 -0.9653 -1.0092
 3938TIP3   OH233228   3.782   2.316   2.314 -0.1394 -0.5366 -0.1087
 3938TIP3    H133229   3.845   2.386   2.328 -0.0338  0.6413 -4.7131
 3938TIP3    H233230   3.834   2.243   2.279 -0.9587 -0.5319 -1.4006
 3939TIP3   OH233231   6.606   5.292  16.846  0.5949 -0.1710 -0.4372
 3939TIP3    H133232   6.552   5.228  16.893  1.5027 -1.5348 -1.1753
 3939TIP3    H233233   6.688   5.294  16.895  0.3792  0.8966 -0.0888
 3940TIP3   OH233234   0.158   6.036   1.762  0.1636  0.4975 -0.1408
 3940TIP3    H133235   0.241   5.989   1.767 -0.7800 -1.1174  2.7692
 3940TIP3    H233236   0.174   6.118   1.809  0.0110 -0.1249  1.0552
 3941TIP3   OH233237   3.505   3.180   2.598  0.2297  0.4355  0.0001
 3941TIP3    H133238   3.469   3.099   2.562  0.5227 -0.3221  1.3430
 3941TIP3    H233239   3.587   3.154   2.639  1.3321  1.7914 -1.2621
 3942TIP3   OH233240   5.318   2.265   4.472 -0.4056 -0.3904  0.0492
 3942TIP3    H133241   5.256   2.298   4.536 -0.3048 -3.0640  1.6946
 3942TIP3    H233242   5.265   2.248   4.394 -1.3631 -0.8069  0.7728
 3943TIP3   OH233243   3.464   6.742   6.327  0.2134 -0.1989  0.1356
 3943TIP3    H133244   3.374   6.743   6.359 -0.4624 -0.9513 -1.6236
 3943TIP3    H233245   3.482   6.650   6.307  1.2453 -0.0055  0.1295
 3944TIP3   OH233246   0.558   1.826   4.443  0.0452 -0.3841  0.3857
 3944TIP3    H133247   0.485   1.764   4.450 -0.5868  0.4107  0.9649
 3944TIP3    H233248   0.622   1.795   4.507 -0.2296 -0.4890  0.6124
 3945TIP3   OH233249   2.299   1.867  12.056  0.1303 -0.4400 -0.0995
 3945TIP3    H133250   2.355   1.900  12.126 -0.5251  0.3934  0.0453
 3945TIP3    H233251   2.337   1.782  12.034  2.7945  0.9843 -1.5225
 3946TIP3   OH233252   3.345   0.703   0.991  1.0009 -0.3073  0.3279
 3946TIP3    H133253   3.370   0.631   0.933 -0.1914 -0.7001  0.2744
 3946TIP3    H233254   3.315   0.772   0.933 -2.5919 -1.5858  0.3975
 3947TIP3   OH233255   5.542   2.702  16.149  0.0098 -0.0800 -0.2389
 3947TIP3    H133256   5.524   2.704  16.055 -0.4448  1.3865 -0.1525
 3947TIP3    H233257   5.604   2.630  16.161 -0.8118 -1.0402 -1.4915
 3948TIP3   OH233258   2.905   6.318   1.460  0.3343 -0.5889 -0.0032
 3948TIP3    H133259   2.822   6.274   1.482  0.0366 -0.9421 -1.6975
 3948TIP3    H233260   2.931   6.362   1.541 -1.5591 -0.3898  0.5366
 3949TIP3   OH233261   5.186   6.701   4.069 -0.1992  0.3706 -0.8674
 3949TIP3    H133262   5.237   6.773   4.031  0.5670  0.5750  0.4828
 3949TIP3    H233263   5.250   6.652   4.121 -1.0544 -0.3354 -0.4663
 3950TIP3   OH233264   6.530   2.066  15.776  0.2326 -0.0525  0.4272
 3950TIP3    H133265   6.482   1.999  15.825  0.0162 -0.6000 -0.5125
 3950TIP3    H233266   6.620   2.034  15.774  0.5906  0.7770  1.8438
 3951TIP3   OH233267   1.908   0.764  16.262 -0.6803 -0.3726  0.3671
 3951TIP3    H133268   2.001   0.745  16.268 -0.6433 -0.4144 -0.2554
 3951TIP3    H233269   1.898   0.850  16.303 -0.9669 -1.9325  3.9136
 3952TIP3   OH233270   4.384   0.949   0.781  0.1045  0.0111  0.0139
 3952TIP3    H133271   4.343   1.034   0.765 -0.6057 -0.2025  0.6133
 3952TIP3    H233272   4.474   0.959   0.751  0.4718  1.4727  1.4510
 3953TIP3   OH233273   2.994   6.593  14.016  0.3640  0.0362 -0.1155
 3953TIP3    H133274   2.903   6.608  13.990  0.4106 -0.7242 -0.7622
 3953TIP3    H233275   3.044   6.611  13.937  0.7536  0.1821  0.1619
 3954TIP3   OH233276   2.984   5.815  13.661 -0.2870  0.2842  0.6452
 3954TIP3    H133277   2.970   5.798  13.568 -0.3573  0.2064  0.6707
 3954TIP3    H233278   2.898   5.804  13.702  0.2530 -2.6827  1.1922
 3955TIP3   OH233279   2.765   1.431   3.691  0.6757 -0.1491 -0.0985
 3955TIP3    H133280   2.735   1.424   3.600  1.4237  2.5480 -0.6576
 3955TIP3    H233281   2.851   1.388   3.691  0.5089 -0.4896 -0.5871
 3956TIP3   OH233282   2.446   3.693   4.485 -0.1021  0.2370 -0.2051
 3956TIP3    H133283   2.513   3.692   4.416 -2.2381 -1.8764 -2.4836
 3956TIP3    H233284   2.382   3.759   4.456 -0.5732 -0.0209  0.2263
 3957TIP3   OH233285   4.150   1.106   1.775 -0.0314 -0.4488  0.2296
 3957TIP3    H133286   4.214   1.145   1.834 -0.4557 -1.0033  1.0758
 3957TIP3    H233287   4.147   1.014   1.800 -0.7045 -0.5568 -0.2183
 3958TIP3   OH233288   4.387   0.619   2.777  0.0270  0.0293  0.1576
 3958TIP3    H133289   4.430   0.682   2.720 -2.2892  0.9705 -0.6672
 3958TIP3    H233290   4.379   0.664   2.861  0.8854 -0.2890  0.4297
 3959TIP3   OH233291   4.024   2.021  13.082  0.0067  0.2470 -0.3891
 3959TIP3    H133292   4.033   1.975  13.165  0.2693  2.3812  0.8486
 3959TIP3    H233293   3.985   1.957  13.022 -0.3971 -1.2782  1.4299
 3960TIP3   OH233294   3.874   2.495  11.550 -0.2726  0.4915  0.0195
 3960TIP3    H133295   3.935   2.559  11.586 -0.3734  2.0555 -2.3516
 3960TIP3    H233296   3.790   2.540  11.549  0.1468  1.6162 -4.2528
 3961TIP3   OH233297   1.013   6.222  13.543 -0.1586  0.5813 -0.4241
 3961TIP3    H133298   1.067   6.287  13.497  2.0353 -0.7568  0.0876
 3961TIP3    H233299   1.055   6.138  13.522 -0.5333 -0.2980  2.0687
 3962TIP3   OH233300   4.970   3.162  15.471  0.4673 -0.3333 -0.4020
 3962TIP3    H133301   5.061   3.130  15.474  0.2749 -0.8357  1.0157
 3962TIP3    H233302   4.930   3.113  15.399  0.2232 -3.3810  1.6134
 3963TIP3   OH233303   3.985   0.394  15.979  0.0905 -0.1736 -0.7469
 3963TIP3    H133304   3.905   0.430  16.015 -1.0173  0.2824 -3.3971
 3963TIP3    H233305   4.045   0.388  16.053 -2.4138 -0.7166  1.3805
 3964TIP3   OH233306   2.437   5.124  16.943 -0.3354  0.6273  0.2935
 3964TIP3    H133307   2.403   5.116  17.032 -0.8608 -1.3746 -0.0171
 3964TIP3    H233308   2.464   5.035  16.920  0.0374  1.1496 -1.4497
 3965TIP3   OH233309   6.406   5.024   4.438 -0.0014 -0.2216 -0.4679
 3965TIP3    H133310   6.440   5.105   4.400 -0.4337 -0.9418 -2.4986
 3965TIP3    H233311   6.483   4.967   4.444  0.2108  0.1456  0.5101
 3966TIP3   OH233312   1.348   0.804   5.152  0.6223 -0.3192  0.4257
 3966TIP3    H133313   1.274   0.743   5.148 -0.7381  1.2436  0.6696
 3966TIP3    H233314   1.423   0.752   5.125 -0.6901 -1.7618 -0.6410
 3967TIP3   OH233315   3.856   6.049  11.302 -0.3053  0.4869  0.2422
 3967TIP3    H133316   3.765   6.020  11.301 -0.7826  1.7883  1.4460
 3967TIP3    H233317   3.895   6.003  11.377  0.2587 -0.6295 -0.7068
 3968TIP3   OH233318   5.771   5.889  11.895 -0.1083 -0.9351  0.4619
 3968TIP3    H133319   5.769   5.794  11.893  0.6574 -0.9530  0.2494
 3968TIP3    H233320   5.723   5.916  11.817 -0.0613 -1.1468  0.3604
 3969TIP3   OH233321   5.713   0.598  14.519  0.3416  0.7768 -0.1493
 3969TIP3    H133322   5.678   0.628  14.603  0.9215  1.3246 -0.0951
 3969TIP3    H233323   5.808   0.591  14.533  0.7669  3.0933 -1.3856
 3970TIP3   OH233324   4.234   4.396   3.425  0.6851 -0.3170  0.8459
 3970TIP3    H133325   4.328   4.378   3.432  0.8158 -0.1757 -0.3084
 3970TIP3    H233326   4.222   4.479   3.470  1.0986 -0.3701  1.0592
 3971TIP3   OH233327   0.723   1.922  11.385 -0.2846  0.2629 -0.0309
 3971TIP3    H133328   0.777   1.998  11.410 -0.8604  0.5060  0.5027
 3971TIP3    H233329   0.733   1.861  11.458 -0.2905  0.0672 -0.1925
 3972TIP3   OH233330   3.485   0.307  13.071 -0.5671 -0.2798  0.1369
 3972TIP3    H133331   3.500   0.393  13.111 -1.9819  0.4285 -0.7487
 3972TIP3    H233332   3.405   0.319  13.019 -0.8522 -2.1731  0.0730
 3973TIP3   OH233333   3.025   1.191   1.531  0.6081  0.0524 -0.7376
 3973TIP3    H133334   2.971   1.124   1.572  1.6710  0.5610  1.7140
 3973TIP3    H233335   3.114   1.155   1.535  1.1084  1.3105  0.0987
 3974TIP3   OH233336   4.378   2.292   5.126 -0.6774  0.2231  0.1310
 3974TIP3    H133337   4.447   2.296   5.192 -2.1315  0.7547  1.6765
 3974TIP3    H233338   4.418   2.245   5.052  1.2690  0.4044  1.0197
 3975TIP3   OH233339   0.899   4.099  13.737 -0.4071  0.5937 -0.1245
 3975TIP3    H133340   0.936   4.083  13.824 -0.8206  2.3170  0.4051
 3975TIP3    H233341   0.814   4.056  13.739 -0.5597  0.9229  0.4446
 3976TIP3   OH233342   0.544   2.969   4.103  0.5142 -0.2132  0.4740
 3976TIP3    H133343   0.634   2.945   4.079  0.2871  0.1505 -0.8287
 3976TIP3    H233344   0.544   3.065   4.102  0.4132 -0.1905  1.7004
 3977TIP3   OH233345   4.413   0.042  15.411  0.1410  0.0877 -0.2983
 3977TIP3    H133346   4.362   0.063  15.333 -1.6145 -0.0868  0.7472
 3977TIP3    H233347   4.394   0.115  15.471  1.7504  0.4037 -0.1412
 3978TIP3   OH233348   3.860   3.995  14.639  0.0461 -0.2561  0.2073
 3978TIP3    H133349   3.830   3.977  14.550 -2.8072  1.0381  0.7774
 3978TIP3    H233350   3.835   3.918  14.689 -1.6306  0.4314  0.4951
 3979TIP3   OH233351   5.165   0.649  11.951 -0.0512 -0.6931  0.0812
 3979TIP3    H133352   5.157   0.589  12.025 -0.0612 -1.3254 -0.4222
 3979TIP3    H233353   5.258   0.672  11.949  0.0113 -0.9433  0.0808
 3980TIP3   OH233354   5.507   3.928   2.147 -0.2855  0.4955 -0.3530
 3980TIP3    H133355   5.415   3.902   2.148 -0.0982 -0.4121  2.3012
 3980TIP3    H233356   5.546   3.876   2.077 -1.1903 -1.7777  0.7170
 3981TIP3   OH233357   4.355   2.091  11.386 -0.0713 -0.1762  0.7964
 3981TIP3    H133358   4.401   2.168  11.351 -0.6791  0.1458  0.7018
 3981TIP3    H233359   4.422   2.046  11.438  0.9813 -0.8713 -1.0420
 3982TIP3   OH233360   5.157   1.204   2.361 -0.1158  0.5855 -0.0684
 3982TIP3    H133361   5.165   1.113   2.332 -0.5839  0.4209  0.3127
 3982TIP3    H233362   5.187   1.256   2.286 -2.1696  0.2132 -1.2010
 3983TIP3   OH233363   0.180   4.389   2.657  0.2290  0.3588  0.4972
 3983TIP3    H133364   0.155   4.418   2.745  0.9727  0.8970  0.5409
 3983TIP3    H233365   0.098   4.358   2.618 -0.1409  0.2627  1.3203
 3984TIP3   OH233366   0.223   3.618  16.823  0.5739  0.2928 -0.1740
 3984TIP3    H133367   0.203   3.672  16.746  0.6421 -0.7413 -0.9481
 3984TIP3    H233368   0.201   3.529  16.795  2.4478 -0.3704  0.3340
 3985TIP3   OH233369   5.387   4.371   2.353 -0.0850  0.3147  0.5920
 3985TIP3    H133370   5.329   4.441   2.385  0.3011  0.2217  1.5319
 3985TIP3    H233371   5.347   4.342   2.272  0.0536  2.0444 -0.1511
 3986TIP3   OH233372   2.582   3.692   1.715  0.6007  0.1788 -0.0359
 3986TIP3    H133373   2.537   3.775   1.729  1.5599  0.6324  0.4104
 3986TIP3    H233374   2.657   3.695   1.773  0.7841 -0.9052 -0.1964
 3987TIP3   OH233375   6.609   4.793  11.400  0.1022  0.7767 -0.5414
 3987TIP3    H133376   6.702   4.770  11.402  0.3980  1.9437  1.4976
 3987TIP3    H233377   6.603   4.864  11.336  0.9579  1.8382  0.4998
 3988TIP3   OH233378   5.647   5.159   3.068  0.2443 -0.0935  0.2544
 3988TIP3    H133379   5.685   5.158   3.156  3.2657  0.6117 -0.9073
 3988TIP3    H233380   5.613   5.248   3.058  1.2519  0.2973  0.2120
 3989TIP3   OH233381   6.406   3.751   1.239 -0.4698  0.1302 -0.1387
 3989TIP3    H133382   6.375   3.841   1.234  3.3705  1.7899  2.0833
 3989TIP3    H233383   6.368   3.716   1.320  1.4866  1.4039  1.4112
 3990TIP3   OH233384   4.843   6.307   1.653 -0.1334 -0.6303  0.0233
 3990TIP3    H133385   4.914   6.353   1.698 -0.4632  0.7325 -0.7902
 3990TIP3    H233386   4.823   6.233   1.710  0.3887  0.2611  1.4223
 3991TIP3   OH233387   6.118   0.398   0.886 -0.4227 -0.3370 -0.0998
 3991TIP3    H133388   6.094   0.435   0.971  3.1213  0.0762  0.8759
 3991TIP3    H233389   6.116   0.303   0.901  2.1253 -0.2779  1.2142
 3992TIP3   OH233390   2.202   0.163   4.282  0.3151 -0.3370 -0.5184
 3992TIP3    H133391   2.272   0.138   4.343 -0.4156  0.5534  0.7445
 3992TIP3    H233392   2.240   0.234   4.229  0.3402  0.2576  0.2742
 3993TIP3   OH233393   5.134   0.255   4.685 -0.7851 -0.1038  0.7512
 3993TIP3    H133394   5.185   0.326   4.645 -2.0401  1.5677  1.9281
 3993TIP3    H233395   5.051   0.257   4.637 -1.2862  0.0847  1.6133
 3994TIP3   OH233396   2.102   1.966   4.688  0.1876 -0.2805 -0.2462
 3994TIP3    H133397   2.148   2.045   4.659 -0.8364  0.1245 -0.8385
 3994TIP3    H233398   2.171   1.904   4.710  1.1127 -0.7017 -3.7750
 3995TIP3   OH233399   6.228   0.321  15.485  0.5606 -0.1939  0.5043
 3995TIP3    H133400   6.244   0.273  15.404  0.7896 -0.5489  0.7583
 3995TIP3    H233401   6.136   0.346  15.480  0.1586 -1.5407  0.8359
 3996TIP3   OH233402   0.972   6.458   0.501  0.2936 -0.0845 -0.5602
 3996TIP3    H133403   1.032   6.490   0.569  0.4236 -0.8802 -0.2883
 3996TIP3    H233404   0.957   6.367   0.524  0.3660 -0.3739 -1.6321
 3997TIP3   OH233405   3.326   1.084  16.377  0.0668  0.0323 -0.6146
 3997TIP3    H133406   3.280   1.032  16.312  0.6169 -0.4552 -0.6173
 3997TIP3    H233407   3.305   1.042  16.460  0.6758 -0.3224 -0.6371
 3998TIP3   OH233408   5.057   1.889  11.284 -0.3758  0.5023  0.0943
 3998TIP3    H133409   5.143   1.855  11.261 -1.0913 -0.2296 -1.6874
 3998TIP3    H233410   5.048   1.872  11.378  1.9027  1.7819  0.6049
 3999TIP3   OH233411   1.104   2.523  10.625 -0.7278 -0.2236 -0.0226
 3999TIP3    H133412   1.016   2.521  10.586 -0.5272  1.4932 -0.6663
 3999TIP3    H233413   1.114   2.438  10.667 -2.5313 -0.6170 -0.3121
 4000TIP3   OH233414   5.418   0.782   6.130  0.2618  0.2363  0.2744
 4000TIP3    H133415   5.459   0.841   6.066  0.7310 -0.2019  0.1605
 4000TIP3    H233416   5.454   0.808   6.214  1.4743 -0.7048  0.0775
 4001TIP3   OH233417   0.532   1.878  10.515 -0.4380 -0.1638  0.9495
 4001TIP3    H133418   0.554   1.955  10.463 -0.2904 -0.4770  0.5433
 4001TIP3    H233419   0.472   1.828  10.460  1.2552 -1.5026  0.1895
 4002TIP3   OH233420   0.315   0.480  12.517  0.4968 -0.4595  0.2434
 4002TIP3    H133421   0.258   0.403  12.515  0.5841 -0.5119 -1.4681
 4002TIP3    H233422   0.395   0.452  12.473  1.9754 -0.4197  2.6843
 4003TIP3   OH233423   6.045   6.243   4.352 -0.3342 -0.3957 -0.5411
 4003TIP3    H133424   6.118   6.223   4.410 -1.2899 -1.4938  0.3224
 4003TIP3    H233425   6.016   6.330   4.380 -0.2546 -0.5621  0.0701
 4004TIP3   OH233426   0.556   5.475  13.775  0.3390 -0.2955 -0.2806
 4004TIP3    H133427   0.493   5.542  13.800 -0.3091  0.2798 -3.1978
 4004TIP3    H233428   0.641   5.519  13.783  0.0235  0.4252 -0.7648
 4005TIP3   OH233429   4.993   4.626  11.799  0.0444 -0.0871 -0.4269
 4005TIP3    H133430   4.947   4.709  11.811 -0.1619  0.1119 -2.2616
 4005TIP3    H233431   4.933   4.560  11.832  0.1170  0.4616  0.8462
 4006TIP3   OH233432   2.398   3.525  15.833  0.0525 -0.1440 -0.0091
 4006TIP3    H133433   2.303   3.509  15.836  0.0549 -0.0089  2.1781
 4006TIP3    H233434   2.437   3.438  15.843  0.1502 -0.1055 -0.0562
 4007TIP3   OH233435   2.531   0.078  11.989  0.0276  0.4701 -0.3424
 4007TIP3    H133436   2.470   0.041  11.925 -1.6687  2.9691 -0.3151
 4007TIP3    H233437   2.520   0.172  11.981  1.4533  0.9278  2.0486
 4008TIP3   OH233438   4.369   5.007   6.406 -0.0085 -0.0552 -0.2191
 4008TIP3    H133439   4.305   5.075   6.424 -0.8612  0.0302 -3.0145
 4008TIP3    H233440   4.451   5.054   6.392 -0.4875  0.4182 -1.6462
 4009TIP3   OH233441   3.781   2.006  14.902 -0.4455  0.1952 -0.2402
 4009TIP3    H133442   3.817   2.035  14.818 -0.0025  0.1312 -0.0741
 4009TIP3    H233443   3.693   2.044  14.904 -0.0379  1.1611 -0.2250
 4010TIP3   OH233444   5.869   2.518  11.712 -0.4396 -0.5125  0.3314
 4010TIP3    H133445   5.930   2.495  11.643  0.4218 -0.4165  1.0403
 4010TIP3    H233446   5.790   2.466  11.694  0.5876 -2.2336  0.5563
 4011TIP3   OH233447   1.459   1.348  12.774  0.3131 -0.2824  0.4912
 4011TIP3    H133448   1.523   1.284  12.804  0.4469 -0.2429  0.2896
 4011TIP3    H233449   1.441   1.402  12.852  1.0255  0.1252  0.3840
 4012TIP3   OH233450   1.136   6.426  13.402  0.4223  0.1531  0.2259
 4012TIP3    H133451   1.216   6.479  13.407 -0.2087  1.1570 -0.0380
 4012TIP3    H233452   1.138   6.388  13.314  0.7386 -0.0497  0.3181
 4013TIP3   OH233453   2.583   5.338   4.122  0.1945 -0.1467  0.1404
 4013TIP3    H133454   2.560   5.381   4.040 -1.5106 -0.2953  0.4966
 4013TIP3    H233455   2.666   5.295   4.104  1.1834  1.9698 -0.6946
 4014TIP3   OH233456   1.360   4.185  16.649  0.1449 -0.0164  0.0582
 4014TIP3    H133457   1.355   4.237  16.729  1.3391  0.3317 -0.0654
 4014TIP3    H233458   1.420   4.113  16.671 -3.5398 -3.0756  1.1163
 4015TIP3   OH233459   0.946   0.338   3.351  0.4374 -0.2239  0.1630
 4015TIP3    H133460   0.866   0.374   3.389  1.1320  0.1142  1.3577
 4015TIP3    H233461   1.015   0.398   3.378  1.2009 -0.8636 -0.3004
 4016TIP3   OH233462   0.903   3.689   5.929 -0.1784  0.2288 -0.5999
 4016TIP3    H133463   0.997   3.709   5.929 -0.1274  0.2191  1.3899
 4016TIP3    H233464   0.862   3.765   5.887  0.5426  1.4750  0.8586
 4017TIP3   OH233465   3.488   0.672   0.452 -0.4056 -0.0606  0.1741
 4017TIP3    H133466   3.414   0.631   0.497  1.2920 -0.0987  3.2712
 4017TIP3    H233467   3.451   0.751   0.412 -2.1572 -0.0808  1.5987
 4018TIP3   OH233468   5.478   6.505   2.474  0.0067  0.1876 -0.1769
 4018TIP3    H133469   5.395   6.472   2.510 -0.0820  0.6680  0.0689
 4018TIP3    H233470   5.490   6.590   2.516  1.4209 -0.5349  0.9891
 4019TIP3   OH233471   4.002   5.613   2.323  0.9352  0.2550  0.1087
 4019TIP3    H133472   3.925   5.670   2.332 -0.1046 -0.8548 -1.2619
 4019TIP3    H233473   3.993   5.575   2.236  2.3983 -0.8574  0.4099
 4020TIP3   OH233474   0.655   6.470  13.312  0.2218  0.1298  0.5049
 4020TIP3    H133475   0.586   6.536  13.307  1.0823  1.0446  0.4208
 4020TIP3    H233476   0.698   6.473  13.226  0.7559  0.0069  0.7600
 4021TIP3   OH233477   0.271   2.574  14.833  0.2270  0.0636 -0.1297
 4021TIP3    H133478   0.204   2.522  14.878 -1.0245  2.1894  0.5755
 4021TIP3    H233479   0.336   2.592  14.901  0.1703  0.2355 -0.1219
 4022TIP3   OH233480   5.877   3.673  13.325 -0.6856 -0.3079 -0.0336
 4022TIP3    H133481   5.854   3.585  13.354  0.3493 -0.3628  0.6794
 4022TIP3    H233482   5.886   3.723  13.406  0.4145  0.0228 -0.3498
 4023TIP3   OH233483   4.414   1.653   5.104  0.0103 -0.0071 -0.4902
 4023TIP3    H133484   4.497   1.614   5.132  1.2761 -0.0389 -3.8910
 4023TIP3    H233485   4.437   1.742   5.078 -1.3465  0.4608 -0.1678
 4024TIP3   OH233486   3.917   1.018  15.552 -0.1217 -0.1802 -0.3858
 4024TIP3    H133487   3.968   1.068  15.488  0.4688  0.7535  0.7646
 4024TIP3    H233488   3.983   0.968  15.601 -0.4298  0.0316  0.2568
 4025TIP3   OH233489   3.465   1.440   1.927  0.5926 -0.4142  0.1205
 4025TIP3    H133490   3.405   1.488   1.985  1.4351 -0.1608  0.7977
 4025TIP3    H233491   3.457   1.349   1.955  1.6588 -0.1809  1.2735
 4026TIP3   OH233492   2.562   3.211   5.280 -0.4012  0.1152 -0.4111
 4026TIP3    H133493   2.574   3.117   5.271 -2.6729 -0.1541 -1.5298
 4026TIP3    H233494   2.505   3.222   5.355  0.5073  0.6950  0.2190
 4027TIP3   OH233495   2.522   3.943  14.348  0.2125 -0.1598  0.0502
 4027TIP3    H133496   2.575   3.878  14.394  1.6539  0.9975  0.1044
 4027TIP3    H233497   2.536   3.925  14.255  1.0568  0.4120  0.0642
 4028TIP3   OH233498   6.586   5.646   5.163  0.2922 -0.2229 -0.4210
 4028TIP3    H133499   6.530   5.584   5.116  0.4873 -0.9014  0.2266
 4028TIP3    H233500   6.648   5.678   5.097 -1.5666  1.4649 -1.4706
 4029TIP3   OH233501   3.420   6.577  11.556 -0.5703  0.1697 -0.0074
 4029TIP3    H133502   3.474   6.638  11.607  0.5561 -1.0936  0.3944
 4029TIP3    H233503   3.336   6.575  11.601  0.6936 -1.6624  2.5292
 4030TIP3   OH233504   4.563   5.499  10.866  0.0755 -0.6059 -0.0728
 4030TIP3    H133505   4.468   5.492  10.875  0.1109  1.1411  2.7403
 4030TIP3    H233506   4.581   5.593  10.866  1.7278 -0.7431 -3.1836
 4031TIP3   OH233507   0.535   3.476  11.957  0.1416  0.1036  0.0288
 4031TIP3    H133508   0.550   3.382  11.970  2.1306  0.3829  0.0928
 4031TIP3    H233509   0.493   3.482  11.871 -3.1760 -1.0210  1.4230
 4032TIP3   OH233510   6.563   0.257  15.427 -0.4669  0.3726  0.1940
 4032TIP3    H133511   6.657   0.249  15.413 -0.4960  0.3055  0.0277
 4032TIP3    H233512   6.549   0.350  15.446 -0.6467  0.8680 -2.0877
 4033TIP3   OH233513   0.231   3.622   1.311  0.0358 -0.8448  0.2205
 4033TIP3    H133514   0.136   3.622   1.327 -0.1124  1.8792 -0.1810
 4033TIP3    H233515   0.268   3.666   1.388  0.7008  0.2260 -0.6872
 4034TIP3   OH233516   3.320   0.944  16.613 -0.1835 -0.1391 -0.0268
 4034TIP3    H133517   3.236   0.932  16.656 -0.5490  2.9476  0.3133
 4034TIP3    H233518   3.385   0.935  16.684 -0.4152  0.1116  0.2166
 4035TIP3   OH233519   4.060   6.735   0.849 -0.3595  0.3519  0.0244
 4035TIP3    H133520   4.139   6.695   0.811 -0.6496  1.6192 -2.0335
 4035TIP3    H233521   4.090   6.817   0.887 -0.7186  1.0126 -1.0864
 4036TIP3   OH233522   5.433   2.442  16.599 -0.0392  0.3050 -0.5076
 4036TIP3    H133523   5.356   2.424  16.545  0.3766 -0.7788 -0.7676
 4036TIP3    H233524   5.475   2.517  16.557 -2.0131  2.2474  0.7942
 4037TIP3   OH233525   2.369   4.160  14.449 -0.0669 -0.3278 -0.0441
 4037TIP3    H133526   2.413   4.075  14.444 -0.4273 -0.6012  1.1452
 4037TIP3    H233527   2.363   4.189  14.358  0.5736 -1.3070 -0.4196
 4038TIP3   OH233528   3.937   4.815   1.506 -0.5107  0.4608  0.0604
 4038TIP3    H133529   3.952   4.727   1.471 -0.8302  0.7169 -0.7345
 4038TIP3    H233530   3.848   4.811   1.542  0.3910 -0.2835  2.3867
 4039TIP3   OH233531   2.504   5.694  12.523  0.2386  0.0662 -0.6079
 4039TIP3    H133532   2.504   5.667  12.431  2.2437 -0.2388 -0.5443
 4039TIP3    H233533   2.457   5.778  12.522 -0.5675 -0.3566 -1.7424
 4040TIP3   OH233534   4.192   2.755  15.203 -0.2405  0.2423 -0.4036
 4040TIP3    H133535   4.229   2.826  15.254 -0.2453 -0.2994  0.3750
 4040TIP3    H233536   4.099   2.777  15.194 -0.4687 -0.1898  0.7646
 4041TIP3   OH233537   3.918   1.493   0.547  0.1977 -0.4612 -0.9688
 4041TIP3    H133538   3.977   1.566   0.564  0.0932  0.0318 -2.6202
 4041TIP3    H233539   3.844   1.532   0.499  0.3994 -1.7150 -2.3533
 4042TIP3   OH233540   0.336   3.725   1.551  0.0328  0.1430 -0.3027
 4042TIP3    H133541   0.353   3.819   1.555 -0.3535  0.1856  1.2566
 4042TIP3    H233542   0.390   3.688   1.622  0.6674 -0.9012 -1.2994
 4043TIP3   OH233543   5.371   0.260   2.948 -0.1802  0.3248  0.2602
 4043TIP3    H133544   5.354   0.318   2.873 -1.2469  0.6810  0.7617
 4043TIP3    H233545   5.354   0.314   3.025 -0.1981 -0.3645  0.7492
 4044TIP3   OH233546   5.888   4.266   4.086 -0.6085 -0.3485 -0.1005
 4044TIP3    H133547   5.924   4.208   4.153 -0.6319 -0.1725  0.0644
 4044TIP3    H233548   5.951   4.339   4.081 -0.5643 -0.3989 -0.3260
 4045TIP3   OH233549   0.451   3.128  15.152 -0.4417  0.7871  0.5474
 4045TIP3    H133550   0.499   3.109  15.233  1.6425  1.2265 -0.5138
 4045TIP3    H233551   0.487   3.067  15.088 -0.0630  2.2870 -0.7116
 4046TIP3   OH233552   6.110   1.042   6.272 -0.5502 -0.4192  0.0170
 4046TIP3    H133553   6.165   0.974   6.232  0.7703  0.3579  0.4605
 4046TIP3    H233554   6.059   0.996   6.338 -1.8577 -1.5060 -1.6684
 4047TIP3   OH233555   1.072   1.428   6.071 -0.7545 -0.0365 -0.6051
 4047TIP3    H133556   1.035   1.407   6.157 -2.9955 -0.0055 -1.4886
 4047TIP3    H233557   1.165   1.406   6.079 -1.0137 -0.6072  1.6240
 4048TIP3   OH233558   4.045   0.833  15.287  0.4343  0.1511  0.4056
 4048TIP3    H133559   4.064   0.798  15.200 -2.2073 -0.1279 -0.1435
 4048TIP3    H233560   3.986   0.907  15.271 -1.7332 -1.1060  1.9461
 4049TIP3   OH233561   3.307   1.067  14.823  0.6817  0.2058 -0.3296
 4049TIP3    H133562   3.314   0.991  14.881  0.5707 -0.1353 -0.7556
 4049TIP3    H233563   3.246   1.039  14.754 -1.2924  1.5044  0.7974
 4050TIP3   OH233564   5.422   0.554   3.709  0.1399 -0.1929  0.2249
 4050TIP3    H133565   5.406   0.479   3.652 -0.2164 -0.2890  0.4498
 4050TIP3    H233566   5.516   0.552   3.726  0.2458 -0.1744 -0.3404
 4051TIP3   OH233567   0.960   0.444  16.961 -0.0098 -0.2901 -0.0775
 4051TIP3    H133568   1.008   0.429  17.043  0.2802  0.5178 -0.0949
 4051TIP3    H233569   1.019   0.497  16.908 -0.2628 -0.6799 -0.7576
 4052TIP3   OH233570   6.191   3.946  15.482  0.1588  0.1627 -0.3099
 4052TIP3    H133571   6.282   3.965  15.506 -0.5147  0.4124  2.3468
 4052TIP3    H233572   6.197   3.864  15.432  1.8122 -0.1231  0.2748
 4053TIP3   OH233573   2.311   6.654   5.618 -0.3325 -0.4648  0.1165
 4053TIP3    H133574   2.338   6.563   5.605  0.8484 -0.0082 -0.7669
 4053TIP3    H233575   2.391   6.705   5.604 -0.4717  0.6013  2.5918
 4054TIP3   OH233576   3.163   2.252   3.304 -0.1643 -0.1397  0.2876
 4054TIP3    H133577   3.114   2.176   3.273 -2.4004  0.2706  2.5438
 4054TIP3    H233578   3.144   2.257   3.397  1.5736  2.0279  0.6052
 4055TIP3   OH233579   1.301   5.992   0.734 -0.3569  0.5094 -0.2197
 4055TIP3    H133580   1.285   5.904   0.700 -0.1484 -1.0155  3.1606
 4055TIP3    H233581   1.393   6.009   0.712 -0.1043 -0.5842 -0.0915
 4056TIP3   OH233582   0.351   0.390  16.982  0.4698 -0.2115 -0.7262
 4056TIP3    H133583   0.327   0.482  16.972  0.9365  0.3384  2.1848
 4056TIP3    H233584   0.446   0.389  16.969  0.6664  0.0123  0.5340
 4057TIP3   OH233585   0.076   1.299   4.649  0.1654  0.3037  0.4705
 4057TIP3    H133586   0.064   1.316   4.743  0.5496 -0.5921  0.6898
 4057TIP3    H233587   0.103   1.208   4.644 -0.7714  0.0533 -0.5865
 4058TIP3   OH233588   3.005   1.054  13.817  0.2445  0.5470 -0.1822
 4058TIP3    H133589   2.975   1.112  13.747  0.4586  0.2132 -0.5591
 4058TIP3    H233590   2.927   1.034  13.868 -0.1176 -0.0358 -0.9467
 4059TIP3   OH233591   0.367   3.170  14.493  0.3440 -0.1081 -0.2080
 4059TIP3    H133592   0.389   3.094  14.439  0.2054 -0.5741  0.3833
 4059TIP3    H233593   0.277   3.191  14.468 -0.1786 -1.1236  0.7556
 4060TIP3   OH233594   5.038   3.630  16.898 -0.1738  0.3601  0.5479
 4060TIP3    H133595   4.955   3.674  16.883 -0.4453 -0.2395  0.2450
 4060TIP3    H233596   5.096   3.661  16.828 -0.6950 -0.5764 -0.3261
 4061TIP3   OH233597   1.788   0.393   3.924  0.2402  0.1783 -0.0478
 4061TIP3    H133598   1.774   0.460   3.857  0.1465  0.0863 -0.1197
 4061TIP3    H233599   1.858   0.429   3.979 -1.0489  1.1801  1.0118
 4062TIP3   OH233600   6.127   1.615   3.371  0.7701  0.5663 -0.3645
 4062TIP3    H133601   6.107   1.615   3.465  2.2870 -0.9326  0.0024
 4062TIP3    H233602   6.206   1.669   3.364 -1.9741  4.9141 -1.5441
 4063TIP3   OH233603   1.828   4.154   6.523 -0.1241 -0.3873 -0.0359
 4063TIP3    H133604   1.858   4.090   6.459  0.4508  0.7305 -0.9205
 4063TIP3    H233605   1.898   4.220   6.526 -0.5900  0.0873  1.0154
 4064TIP3   OH233606   0.585   3.656   3.692 -0.1268 -0.0745 -0.2204
 4064TIP3    H133607   0.507   3.622   3.736 -1.6822  2.6964 -0.6015
 4064TIP3    H233608   0.566   3.645   3.599  0.0409  0.4000 -0.3108
 4065TIP3   OH233609   0.452   1.684   1.589  0.2978  0.3204  0.0782
 4065TIP3    H133610   0.489   1.692   1.677  0.4527  1.6262 -0.0788
 4065TIP3    H233611   0.460   1.591   1.568  1.0787  0.1343  1.0942
 4066TIP3   OH233612   0.620   6.629   1.312 -0.1239 -0.1707 -0.0310
 4066TIP3    H133613   0.624   6.701   1.249 -0.0269 -0.2128 -0.0718
 4066TIP3    H233614   0.711   6.609   1.333 -0.1084 -0.8701 -0.6932
 4067TIP3   OH233615   2.439   1.120  16.040  0.1789 -0.3715  0.1157
 4067TIP3    H133616   2.429   1.207  16.002  0.1986 -1.2206 -1.9456
 4067TIP3    H233617   2.534   1.110  16.053  0.1277  0.1273  0.9617
 4068TIP3   OH233618   0.937   3.300  13.957  0.3005 -0.1426  0.1636
 4068TIP3    H133619   0.968   3.262  14.040 -0.0812 -0.8036  0.0120
 4068TIP3    H233620   0.968   3.390  13.959  3.4083 -1.0779 -0.5734
 4069TIP3   OH233621   6.404   1.579  16.716  0.2368 -0.3123 -0.2267
 4069TIP3    H133622   6.330   1.598  16.773  0.7103  0.6830  0.0705
 4069TIP3    H233623   6.481   1.607  16.765  0.7296 -0.3417 -0.9581
 4070TIP3   OH233624   3.747   1.653  15.590  0.6119 -0.1148 -0.1689
 4070TIP3    H133625   3.697   1.586  15.637  0.3630  0.2780  0.1323
 4070TIP3    H233626   3.708   1.654  15.502 -1.5369  1.8066  0.7138
 4071TIP3   OH233627   4.516   5.777   2.343  0.4098  0.1428  0.8349
 4071TIP3    H133628   4.586   5.744   2.288 -0.4575 -0.3401 -0.0166
 4071TIP3    H233629   4.436   5.757   2.294 -0.2504  2.0864  1.0114
 4072TIP3   OH233630   4.250   0.646   1.289 -0.8154 -0.7859  0.0585
 4072TIP3    H133631   4.216   0.717   1.235 -0.6773 -0.6904  0.0949
 4072TIP3    H233632   4.276   0.579   1.226 -2.0169 -1.2894  0.0812
 4073TIP3   OH233633   6.321   6.007   6.294  0.0005 -0.0564  0.2381
 4073TIP3    H133634   6.227   5.986   6.302  0.0698 -0.7181 -0.5238
 4073TIP3    H233635   6.326   6.100   6.315 -1.1708  0.5622 -1.8916
 4074TIP3   OH233636   0.626   1.042  15.333  0.3710 -0.4246 -0.3737
 4074TIP3    H133637   0.661   0.953  15.330 -0.1683 -0.6343 -0.5735
 4074TIP3    H233638   0.535   1.033  15.306  0.6466  0.3670 -1.6718
 4075TIP3   OH233639   1.572   3.882  11.451 -0.4912 -0.1249  0.0589
 4075TIP3    H133640   1.584   3.866  11.358 -1.9953 -1.7681  0.0953
 4075TIP3    H233641   1.627   3.959  11.470  3.8378 -2.5956 -1.1230
 4076TIP3   OH233642   0.111   0.537  12.850  0.0865 -0.0821 -0.2404
 4076TIP3    H133643   0.087   0.617  12.897  0.8859  0.5948 -0.9563
 4076TIP3    H233644   0.085   0.554  12.760  2.0591  0.1962 -0.8047
 4077TIP3   OH233645   4.409   2.568   0.765  0.3864  0.0610 -0.1648
 4077TIP3    H133646   4.437   2.552   0.856  1.1913  0.3857 -0.3476
 4077TIP3    H233647   4.453   2.500   0.714 -0.0333 -0.0957 -0.3255
 4078TIP3   OH233648   1.158   6.475   0.740 -0.3831  0.2713 -0.3122
 4078TIP3    H133649   1.231   6.533   0.719  1.3340 -1.6791 -0.0821
 4078TIP3    H233650   1.199   6.390   0.755 -2.6390 -0.7113  0.7184
 4079TIP3   OH233651   5.221   4.942   2.508 -0.0591 -0.3155 -0.1250
 4079TIP3    H133652   5.270   4.865   2.537 -0.2490 -0.8166 -1.0854
 4079TIP3    H233653   5.277   5.016   2.532 -0.0162 -0.7245  1.0957
 4080TIP3   OH233654   2.138   1.116   4.780  0.1156 -0.3618  0.6078
 4080TIP3    H133655   2.116   1.204   4.810  2.1511 -0.3267  2.1790
 4080TIP3    H233656   2.233   1.117   4.769  0.0941 -2.1598 -0.0697
 4081TIP3   OH233657   2.416   1.730   1.956 -0.3036  0.0437 -0.1839
 4081TIP3    H133658   2.487   1.715   1.894 -0.6780  0.4568 -0.7156
 4081TIP3    H233659   2.360   1.652   1.949 -0.3130  0.0627 -0.3225
 4082TIP3   OH233660   4.300   1.384   3.956  0.2316  0.0278  0.3816
 4082TIP3    H133661   4.233   1.449   3.976  0.5968  0.1276  1.3866
 4082TIP3    H233662   4.367   1.432   3.907 -0.4618 -0.0945 -0.7029
 4083TIP3   OH233663   4.324   3.028  11.417  0.3460 -0.6821 -0.4636
 4083TIP3    H133664   4.357   2.938  11.421 -0.1479 -0.8618 -0.4325
 4083TIP3    H233665   4.403   3.081  11.414  0.6419 -1.1285 -0.7335
 4084TIP3   OH233666   5.436   1.315   2.969  0.3970 -0.0787 -0.3140
 4084TIP3    H133667   5.362   1.369   2.998  0.4918  1.1924 -2.1952
 4084TIP3    H233668   5.503   1.379   2.945  1.0553 -1.0882 -1.2415
 4085TIP3   OH233669   2.112   6.310  14.655  0.4616 -0.0702 -0.2071
 4085TIP3    H133670   2.169   6.305  14.578  2.3849 -1.9945  1.2107
 4085TIP3    H233671   2.085   6.219  14.671  0.0423  0.2966  1.3225
 4086TIP3   OH233672   3.321   1.301  14.949  0.1220 -0.6757  0.2702
 4086TIP3    H133673   3.317   1.218  14.902  0.3635 -1.5720  1.7808
 4086TIP3    H233674   3.241   1.303  15.002 -1.1516  1.2292 -1.5273
 4087TIP3   OH233675   4.514   4.268   0.196  0.0926 -0.0141  0.2075
 4087TIP3    H133676   4.424   4.291   0.220  0.2575 -0.1216  0.9536
 4087TIP3    H233677   4.547   4.344   0.148 -0.1154  0.3644  0.6682
 4088TIP3   OH233678   2.646   6.452   4.598  0.0018 -0.1793 -0.0442
 4088TIP3    H133679   2.635   6.415   4.510  1.3253  0.3341 -0.4572
 4088TIP3    H233680   2.727   6.412   4.630 -1.5798 -2.0476  1.8689
 4089TIP3   OH233681   5.703   2.116   2.178  0.4278  0.2418 -0.3010
 4089TIP3    H133682   5.759   2.188   2.149  0.8050 -0.1475 -0.5457
 4089TIP3    H233683   5.665   2.081   2.098 -0.0500  0.4074 -0.1476
 4090TIP3   OH233684   5.458   4.601   4.462 -0.1755  0.1012 -0.4907
 4090TIP3    H133685   5.510   4.669   4.421  0.5063  0.9956  1.7048
 4090TIP3    H233686   5.473   4.523   4.408  0.1410  1.3202 -2.2448
 4091TIP3   OH233687   1.285   4.172  14.998 -0.0855  0.4154  0.1771
 4091TIP3    H133688   1.270   4.265  15.014  0.3980  0.5156  0.0598
 4091TIP3    H233689   1.303   4.165  14.905  0.7692  0.3353  0.3314
 4092TIP3   OH233690   2.267   6.587  13.182  1.0260  0.0461 -0.3407
 4092TIP3    H133691   2.361   6.605  13.187  0.9212  0.3090  0.7972
 4092TIP3    H233692   2.234   6.650  13.118  1.1812  1.8409  1.2703
 4093TIP3   OH233693   6.640   0.293   1.429  0.0767  0.3961 -0.8826
 4093TIP3    H133694   6.676   0.218   1.477 -1.5325  0.3715  0.3873
 4093TIP3    H233695   6.707   0.361   1.437  0.7556 -0.3087 -0.4462
 4094TIP3   OH233696   2.250   0.975  13.421  0.0329  0.2267 -0.4230
 4094TIP3    H133697   2.268   0.900  13.364 -0.3548  0.0879 -0.3636
 4094TIP3    H233698   2.252   1.050  13.362  0.3628  0.1674 -0.4938
 4095TIP3   OH233699   5.882   4.959  16.245 -0.0813 -0.3400 -0.5610
 4095TIP3    H133700   5.841   4.975  16.160 -0.1056  0.0647 -0.4755
 4095TIP3    H233701   5.813   4.979  16.309  0.1629  0.0696 -0.4252
 4096TIP3   OH233702   2.950   5.786   1.882 -0.4057  0.0575  0.1949
 4096TIP3    H133703   2.942   5.843   1.806  0.3527 -1.2287 -0.8838
 4096TIP3    H233704   3.044   5.772   1.892 -0.5828 -1.2665  0.2088
 4097TIP3   OH233705   3.712   4.850   2.811 -0.1765 -0.0265  0.7665
 4097TIP3    H133706   3.708   4.849   2.715 -1.4313 -0.7247  0.8001
 4097TIP3    H233707   3.757   4.768   2.834  0.9703  0.5866  0.7670
 4098TIP3   OH233708   5.123   0.932   0.314 -0.1574 -0.3229 -0.1658
 4098TIP3    H133709   5.093   0.997   0.377  1.2347  0.3308 -0.1619
 4098TIP3    H233710   5.115   0.848   0.361 -0.7759 -0.0339  0.2595
 4099TIP3   OH233711   4.425   3.642   1.741  0.1254  0.4462  0.3619
 4099TIP3    H133712   4.458   3.703   1.676 -2.4105  2.6977  1.0231
 4099TIP3    H233713   4.457   3.675   1.824  0.3309 -0.2752  0.5794
 4100TIP3   OH233714   5.347   0.353  13.975  0.6198  0.0783  0.0438
 4100TIP3    H133715   5.335   0.389  14.063  0.4644 -0.8791  0.4281
 4100TIP3    H233716   5.298   0.271  13.976 -3.2382  2.0561 -2.3280
 4101TIP3   OH233717   4.105   4.907   6.287 -1.0929  0.0246 -0.0764
 4101TIP3    H133718   4.126   4.928   6.378  0.2513  1.4961 -0.6670
 4101TIP3    H233719   4.041   4.973   6.261 -1.5016 -0.4144 -0.1994
 4102TIP3   OH233720   1.585   1.704   3.578  0.1206 -0.4623 -0.3239
 4102TIP3    H133721   1.559   1.613   3.564  0.1150 -0.1677 -2.6795
 4102TIP3    H233722   1.505   1.754   3.561  0.6051  0.0827 -1.0471
 4103TIP3   OH233723   5.716   0.215   0.410  0.4145 -0.3355  0.3930
 4103TIP3    H133724   5.688   0.284   0.350  0.4501 -1.4255 -0.9285
 4103TIP3    H233725   5.634   0.182   0.447  0.1502 -1.3233 -0.9870
 4104TIP3   OH233726   5.827   1.333  13.711 -0.2521  0.1793  0.3415
 4104TIP3    H133727   5.868   1.394  13.651  1.5034 -1.1393  0.1333
 4104TIP3    H233728   5.899   1.296  13.762 -1.2148 -1.8104  0.3600
 4105TIP3   OH233729   4.675   2.926   3.097  0.5467  0.0153 -0.0305
 4105TIP3    H133730   4.581   2.916   3.113  0.4930  0.0780 -0.2926
 4105TIP3    H233731   4.700   3.000   3.152  0.6162 -0.5233  0.6719
 4106TIP3   OH233732   2.625   6.660  13.220 -0.4724 -0.1412  0.2410
 4106TIP3    H133733   2.639   6.608  13.141 -0.4664 -0.0071  0.1548
 4106TIP3    H233734   2.708   6.705  13.235 -0.4877 -0.1315  0.2988
 4107TIP3   OH233735   0.501   4.192   1.975  0.3843 -0.3991  0.1739
 4107TIP3    H133736   0.516   4.286   1.973  0.9047 -0.4747  0.2475
 4107TIP3    H233737   0.408   4.181   1.955  0.0994  0.1781  1.1380
 4108TIP3   OH233738   3.909   1.914   0.452 -0.1569  0.4138 -0.2807
 4108TIP3    H133739   3.894   2.008   0.463  0.8624  0.3975  1.6993
 4108TIP3    H233740   3.961   1.907   0.371  2.3113  1.8846  1.0667
 4109TIP3   OH233741   5.394   4.209  13.966 -0.0401 -0.2802 -0.0415
 4109TIP3    H133742   5.345   4.185  13.888  0.7657 -1.6714 -0.1535
 4109TIP3    H233743   5.359   4.153  14.035 -1.5847  1.7610  0.9431
 4110TIP3   OH233744   6.088   1.234   3.441 -0.1906 -0.0642  0.1440
 4110TIP3    H133745   6.063   1.251   3.351 -0.6023  0.6942  0.3868
 4110TIP3    H233746   6.009   1.252   3.492  0.1198 -0.1764  0.6803
 4111TIP3   OH233747   6.762   4.539  11.504  0.2750  0.0746 -0.2274
 4111TIP3    H133748   6.826   4.474  11.473  1.8495  0.8173  1.3024
 4111TIP3    H233749   6.798   4.623  11.477 -0.2818  0.4814  0.2683
 4112TIP3   OH233750   1.196   1.099   2.904 -0.2917  0.0781  0.3079
 4112TIP3    H133751   1.234   1.012   2.895 -1.3332 -0.2494 -1.7697
 4112TIP3    H233752   1.131   1.090   2.974 -0.1241 -0.7321  0.3715
 4113TIP3   OH233753   4.944   2.074   0.140  0.3577 -0.1938  0.0822
 4113TIP3    H133754   4.992   2.037   0.214  0.4977 -1.1809 -0.4941
 4113TIP3    H233755   5.011   2.116   0.086  0.5783 -1.4666 -0.6594
 4114TIP3   OH233756   0.257   2.775  10.949  0.0743  0.0322  0.3998
 4114TIP3    H133757   0.206   2.698  10.922 -1.0259  1.0443 -0.5126
 4114TIP3    H233758   0.300   2.805  10.869  1.1803 -0.1227  0.9275
 4115TIP3   OH233759   2.890   2.976  13.478  0.3705  0.2329  0.2188
 4115TIP3    H133760   2.933   2.923  13.411  0.6169 -0.9129  1.2514
 4115TIP3    H233761   2.797   2.970  13.457  0.4200 -0.3646  0.1331
 4116TIP3   OH233762   5.421   3.049  11.541  0.4513  0.2030 -0.1149
 4116TIP3    H133763   5.408   2.964  11.498  2.6158 -0.1326 -0.2000
 4116TIP3    H233764   5.391   3.035  11.630  3.5784 -1.6945  0.7869
 4117TIP3   OH233765   2.253   4.826   3.297  0.0019 -0.9804  0.2922
 4117TIP3    H133766   2.230   4.814   3.389  0.9075 -1.4738  0.4734
 4117TIP3    H233767   2.183   4.880   3.261 -0.8116 -1.4947  1.0638
 4118TIP3   OH233768   2.180   1.162   3.234 -0.1402  0.0390  1.0795
 4118TIP3    H133769   2.186   1.183   3.327 -1.2315 -0.2189  1.2288
 4118TIP3    H233770   2.256   1.107   3.217  0.1774  0.2467  1.7726
 4119TIP3   OH233771   4.335   4.244   5.404 -0.0565  0.3546  0.2344
 4119TIP3    H133772   4.292   4.327   5.383 -1.6536 -0.0662  1.6326
 4119TIP3    H233773   4.356   4.250   5.497  0.3337 -0.5820  0.2248
 4120TIP3   OH233774   2.456   1.102   3.644 -0.3047  0.7189  0.0121
 4120TIP3    H133775   2.527   1.056   3.599 -0.4954  1.1689 -0.7560
 4120TIP3    H233776   2.498   1.143   3.719  0.1425  0.5110 -0.1231
 4121TIP3   OH233777   3.743   4.223   3.306 -0.4115 -0.1540  0.4528
 4121TIP3    H133778   3.665   4.184   3.267  0.6900 -2.4417  0.4257
 4121TIP3    H233779   3.808   4.154   3.306  1.0158  1.0688  2.3500
 4122TIP3   OH233780   3.117   0.045  16.690 -0.0210 -0.1726  0.4287
 4122TIP3    H133781   3.161   0.083  16.615  0.9238  2.5841  2.2368
 4122TIP3    H233782   3.023   0.050  16.669  0.2562 -1.3121 -1.2978
 4123TIP3   OH233783   3.262   1.842  12.980  0.0339  0.2559 -0.2554
 4123TIP3    H133784   3.251   1.917  13.039 -0.5222  0.0406 -0.0855
 4123TIP3    H233785   3.357   1.825  12.981 -0.0261 -0.1317  1.0731
 4124TIP3   OH233786   5.335   5.290  14.487  0.0528  0.5119 -0.1152
 4124TIP3    H133787   5.284   5.307  14.409  0.2968 -0.2544 -0.4524
 4124TIP3    H233788   5.354   5.196  14.483  2.4018  0.9479 -0.5768
 4125TIP3   OH233789   1.157   1.875  13.862 -0.1909 -0.0752  0.7056
 4125TIP3    H133790   1.210   1.954  13.874 -0.8141  0.3332  0.7925
 4125TIP3    H233791   1.093   1.899  13.795 -0.0848 -0.6618  0.3879
 4126TIP3   OH233792   3.248   0.087   0.311 -0.1012  0.0411 -0.6759
 4126TIP3    H133793   3.322   0.067   0.367 -0.7862 -0.0912  0.2054
 4126TIP3    H233794   3.236   0.008   0.258  0.4452  0.1074 -0.9059
 4127TIP3   OH233795   0.490   2.054  10.718  0.5640  0.3777  0.0873
 4127TIP3    H133796   0.525   2.016  10.637  1.5786  2.8273 -0.7539
 4127TIP3    H233797   0.563   2.105  10.753  0.2092 -0.7880  2.7239
 4128TIP3   OH233798   3.333   6.582   4.840  0.3786  0.2155  0.2735
 4128TIP3    H133799   3.361   6.672   4.857 -2.2245  1.2844 -0.5656
 4128TIP3    H233800   3.310   6.547   4.926  0.4652  0.6853  0.4899
 4129TIP3   OH233801   1.779   0.729  16.587 -0.3685  0.4578 -0.7044
 4129TIP3    H133802   1.851   0.792  16.594  0.3050 -0.0874 -2.3368
 4129TIP3    H233803   1.821   0.644  16.596 -0.7898  0.1295 -1.7017
 4130TIP3   OH233804   3.385   0.637   5.635 -0.8521 -0.2083  0.0995
 4130TIP3    H133805   3.330   0.618   5.559 -0.0653 -0.2146 -0.4786
 4130TIP3    H233806   3.364   0.727   5.659 -0.8878 -0.1063 -0.3117
 4131TIP3   OH233807   5.689   3.270  15.941  0.5498  0.5495 -0.1894
 4131TIP3    H133808   5.640   3.298  15.865 -0.8004 -2.3240 -0.5244
 4131TIP3    H233809   5.643   3.308  16.016 -1.7132 -1.2438 -0.5640
 4132TIP3   OH233810   4.405   4.622  11.520  0.3156  0.1203  0.3141
 4132TIP3    H133811   4.324   4.602  11.567 -0.1950  0.8648 -0.2408
 4132TIP3    H233812   4.382   4.616  11.427  1.2909 -1.2195  0.1319
 4133TIP3   OH233813   2.779   4.228   1.580 -0.5012  0.6762 -0.3051
 4133TIP3    H133814   2.767   4.256   1.489 -0.9029  0.2190 -0.3936
 4133TIP3    H233815   2.838   4.294   1.617 -2.1974  2.2296 -0.2122
 4134TIP3   OH233816   3.846   5.081  15.477 -0.5668 -0.2535  0.5365
 4134TIP3    H133817   3.879   5.062  15.565  0.9577 -0.2798 -0.0131
 4134TIP3    H233818   3.802   5.000  15.451  2.8054 -1.9917 -0.3887
 4135TIP3   OH233819   1.566   4.707  11.761 -0.3086  0.0653 -0.1167
 4135TIP3    H133820   1.516   4.725  11.841 -0.1557 -1.1080  0.2556
 4135TIP3    H233821   1.641   4.766  11.766 -0.9422  0.8742 -0.0061
 4136TIP3   OH233822   1.574   0.277   3.216  0.0417 -0.8454  0.0286
 4136TIP3    H133823   1.538   0.223   3.145 -2.5951 -0.9940  1.3485
 4136TIP3    H233824   1.528   0.247   3.294  0.7833  1.2281  1.3354
 4137TIP3   OH233825   6.315   4.427   0.443  0.1167  0.2138 -0.3577
 4137TIP3    H133826   6.293   4.513   0.480 -0.4157  1.3164 -3.0575
 4137TIP3    H233827   6.411   4.425   0.443  0.1371  0.2587  0.8140
 4138TIP3   OH233828   6.742   3.921   4.395 -0.5038  0.4239  0.1459
 4138TIP3    H133829   6.694   3.952   4.471 -0.9787 -0.2681  0.1433
 4138TIP3    H233830   6.709   3.973   4.322 -1.9762 -0.6922 -0.0218
 4139TIP3   OH233831   4.877   4.647  12.898  0.4562 -0.5331 -0.3516
 4139TIP3    H133832   4.922   4.729  12.916  1.4001 -1.1454  0.1521
 4139TIP3    H233833   4.848   4.616  12.983  0.7149 -1.0597 -0.4512
 4140TIP3   OH233834   3.351   4.948   0.179  0.1627 -0.0527 -0.0058
 4140TIP3    H133835   3.347   4.907   0.093 -2.6155  1.5998 -0.7925
 4140TIP3    H233836   3.279   4.908   0.228 -0.1513  1.0984  0.5037
 4141TIP3   OH233837   5.644   2.728   4.047 -0.6298  0.0008 -0.1043
 4141TIP3    H133838   5.636   2.812   4.093 -0.2494  0.0060 -0.0485
 4141TIP3    H233839   5.648   2.752   3.955  1.6824  0.2191 -0.0075
 4142TIP3   OH233840   6.004   6.320  17.161 -0.4568  0.1143  0.6903
 4142TIP3    H133841   6.072   6.352  17.220  0.1036  0.5547 -0.1657
 4142TIP3    H233842   6.041   6.240  17.124 -0.2573  0.5225 -0.0154
 4143TIP3   OH233843   4.650   4.919  15.216 -0.5128 -0.1305 -0.6642
 4143TIP3    H133844   4.584   4.982  15.186 -0.4212 -0.0942 -0.7937
 4143TIP3    H233845   4.703   4.902  15.138 -0.1665  0.0969 -0.4802
 4144TIP3   OH233846   2.971   5.641   5.098  0.1502 -0.6558 -0.2610
 4144TIP3    H133847   2.992   5.734   5.105 -2.3286 -0.0888  0.9392
 4144TIP3    H233848   3.053   5.599   5.074  1.0966  1.9637 -2.0184
 4145TIP3   OH233849   3.923   3.069  15.020 -0.8095  0.2265 -0.2098
 4145TIP3    H133850   3.897   3.082  14.929 -1.2202 -0.7729 -0.2370
 4145TIP3    H233851   3.844   3.084  15.071 -0.4524  1.3663  0.0531
 4146TIP3   OH233852   2.693   1.211  15.866 -0.4589  0.7129 -0.2264
 4146TIP3    H133853   2.712   1.236  15.775 -0.0588 -2.1254 -1.0129
 4146TIP3    H233854   2.641   1.131  15.859  0.7312 -0.3581  2.0180
 4147TIP3   OH233855   0.264   6.754  13.121 -0.1653  0.1003  0.1776
 4147TIP3    H133856   0.202   6.826  13.114  1.2875  1.5670  1.4361
 4147TIP3    H233857   0.332   6.775  13.056 -0.2376 -0.7168 -0.1789
 4148TIP3   OH233858   6.252   2.208  12.085 -0.0728 -0.3312  0.5327
 4148TIP3    H133859   6.299   2.146  12.141  0.3516  0.5311  1.1494
 4148TIP3    H233860   6.197   2.258  12.145 -1.3552 -0.9364 -0.1135
 4149TIP3   OH233861   5.359   2.083  16.117 -0.3105  0.0147 -0.1174
 4149TIP3    H133862   5.373   2.096  16.211  0.9021  0.5998 -0.3629
 4149TIP3    H233863   5.435   2.031  16.089 -1.3100 -1.2704 -0.5548
 4150TIP3   OH233864   1.639   3.358  13.587 -0.3921  0.0587 -0.5205
 4150TIP3    H133865   1.647   3.419  13.660  0.2225 -1.7228  0.9740
 4150TIP3    H233866   1.730   3.339  13.561 -0.4962 -1.1606 -0.0929
 4151TIP3   OH233867   6.642   0.441   3.419 -0.6618  0.0226  0.0744
 4151TIP3    H133868   6.648   0.378   3.491 -1.9232  1.1277  1.2096
 4151TIP3    H233869   6.549   0.445   3.397 -0.4356  0.5271 -0.8699
 4152TIP3   OH233870   3.076   0.991  11.148  0.4902 -0.3688 -0.3040
 4152TIP3    H133871   3.111   0.910  11.185 -1.3139 -0.4682  1.3628
 4152TIP3    H233872   3.082   0.979  11.053  1.0251 -2.0905 -0.0781
 4153TIP3   OH233873   0.902   1.169   3.179 -0.4700 -0.1371 -0.1983
 4153TIP3    H133874   0.977   1.123   3.216  0.2652  1.1624 -0.0306
 4153TIP3    H233875   0.932   1.200   3.094 -0.9564  0.0372 -0.3106
 4154TIP3   OH233876   4.193   3.426  16.746 -0.5766  0.6004  0.1937
 4154TIP3    H133877   4.212   3.501  16.803  2.2420  1.3701 -1.5276
 4154TIP3    H233878   4.147   3.364  16.803  3.0411  0.7395  3.8068
 4155TIP3   OH233879   0.781   3.340   1.481  0.1268  0.4917  0.0781
 4155TIP3    H133880   0.790   3.399   1.556  1.4518  0.6285 -0.1675
 4155TIP3    H233881   0.862   3.351   1.431 -0.0058 -0.8378 -0.4841
 4156TIP3   OH233882   5.565   0.810  11.469 -0.0851  0.1745  0.3492
 4156TIP3    H133883   5.610   0.735  11.508  1.1316  0.4625 -0.4374
 4156TIP3    H233884   5.605   0.886  11.511 -0.0035  0.4312 -0.1897
 4157TIP3   OH233885   6.606   6.162  14.890 -0.4656  0.9332  0.2112
 4157TIP3    H133886   6.656   6.081  14.878  1.4382  2.0146  0.5172
 4157TIP3    H233887   6.520   6.143  14.851  0.3473 -0.8065 -0.8568
 4158TIP3   OH233888   5.029   2.341   6.903  0.4680  0.6927 -0.2098
 4158TIP3    H133889   4.961   2.321   6.967  0.8365 -1.8696 -0.5142
 4158TIP3    H233890   4.981   2.356   6.821  0.1864  0.7254 -0.0417
 4159TIP3   OH233891   0.074   3.735   6.130  0.2926  0.2479  0.1314
 4159TIP3    H133892   0.055   3.793   6.204  0.0461  1.2854 -0.7201
 4159TIP3    H233893   0.092   3.650   6.170  0.8497  0.9509  1.4219
 4160TIP3   OH233894   4.630   4.079  14.235  0.4041  0.5023 -0.5412
 4160TIP3    H133895   4.681   4.076  14.154 -0.4573 -1.0459 -1.0587
 4160TIP3    H233896   4.634   3.990  14.270 -1.5473  0.4338 -0.3724
 4161TIP3   OH233897   0.206   5.708  11.498 -0.0088 -0.3324 -0.3228
 4161TIP3    H133898   0.258   5.632  11.474  0.8845 -0.8034  2.7424
 4161TIP3    H233899   0.115   5.678  11.491  0.1527 -0.5248 -2.4394
 4162TIP3   OH233900   6.778   5.585  15.427 -0.5496 -0.5791 -0.4760
 4162TIP3    H133901   6.715   5.551  15.364  0.3550 -0.7072 -1.3410
 4162TIP3    H233902   6.743   5.560  15.513 -0.6155 -2.5174 -1.0187
 4163TIP3   OH233903   5.600   4.890  13.548  0.2210  0.3440 -0.0963
 4163TIP3    H133904   5.610   4.851  13.635  1.0732 -1.7075 -1.0512
 4163TIP3    H233905   5.517   4.855  13.516  1.5890 -1.8793 -1.4629
 4164TIP3   OH233906   4.281   1.144   4.078 -0.2134  0.9466  0.5088
 4164TIP3    H133907   4.217   1.178   4.141 -2.2061  1.8014 -1.8338
 4164TIP3    H233908   4.322   1.222   4.041  1.7513  0.4247  1.4237
 4165TIP3   OH233909   0.445   5.204  13.063 -0.4612  0.1081 -0.0386
 4165TIP3    H133910   0.391   5.126  13.074  0.1913 -0.5474 -1.2644
 4165TIP3    H233911   0.413   5.244  12.982 -0.5981  0.9621  0.4291
 4166TIP3   OH233912   0.485   2.575   2.963  0.1359  0.1671 -0.1933
 4166TIP3    H133913   0.461   2.504   3.022 -0.7872 -0.0685 -0.8362
 4166TIP3    H233914   0.574   2.554   2.936  0.6705  0.4065  1.2691
 4167TIP3   OH233915   0.349   1.407   5.908  0.4738  0.6237 -0.5874
 4167TIP3    H133916   0.360   1.369   5.996  3.1994  4.1562  0.8607
 4167TIP3    H233917   0.425   1.375   5.859  0.1850  0.4615 -0.9334
 4168TIP3   OH233918   5.037   0.206   2.986  0.1052  0.0099 -0.1158
 4168TIP3    H133919   5.104   0.168   2.929  1.4304 -2.2054  2.6245
 4168TIP3    H233920   5.084   0.272   3.038  0.3777 -1.6584  1.9213
 4169TIP3   OH233921   6.356   4.819  17.080 -0.3491 -0.4720  0.2510
 4169TIP3    H133922   6.438   4.775  17.099  0.9873  1.5928 -0.4006
 4169TIP3    H233923   6.368   4.857  16.993 -1.6120  0.6820  0.5362
 4170TIP3   OH233924   6.786   6.629   1.490  0.4272  0.4903 -1.0583
 4170TIP3    H133925   6.784   6.714   1.445 -1.8759  1.0038 -0.1109
 4170TIP3    H233926   6.817   6.650   1.578 -0.4411  0.4336 -0.7284
 4171TIP3   OH233927   4.336   2.358   4.474 -0.3985  0.0552  0.1181
 4171TIP3    H133928   4.276   2.290   4.445 -0.1280 -0.1869  0.1269
 4171TIP3    H233929   4.283   2.438   4.475 -0.3061  0.1741 -1.5210
 4172TIP3   OH233930   1.225   2.152  16.544  0.1776  0.4298 -0.4037
 4172TIP3    H133931   1.285   2.225  16.559 -1.1490  1.3648  0.6059
 4172TIP3    H233932   1.201   2.122  16.632 -0.4937 -0.2083 -0.7934
 4173TIP3   OH233933   1.703   3.128   3.353  0.4619 -0.8450 -0.8250
 4173TIP3    H133934   1.787   3.166   3.379  0.9175 -2.7698  0.6926
 4173TIP3    H233935   1.655   3.117   3.435 -0.6565 -1.2439 -1.5060
 4174TIP3   OH233936   0.589   1.937  11.843  0.2221  0.2263 -0.3369
 4174TIP3    H133937   0.605   1.874  11.913  2.0496  1.0347  0.0358
 4174TIP3    H233938   0.503   1.974  11.863  0.6131  0.2802  1.3839
 4175TIP3   OH233939   4.772   0.798   0.666 -0.3727  0.3344  0.1269
 4175TIP3    H133940   4.703   0.753   0.619  1.2033 -0.8674 -1.1394
 4175TIP3    H233941   4.729   0.874   0.705 -2.4194 -0.4803 -0.4304
 4176TIP3   OH233942   2.686   6.581  12.973  0.0708 -0.4523 -0.9195
 4176TIP3    H133943   2.667   6.510  12.911 -0.3909  0.2803 -1.6411
 4176TIP3    H233944   2.656   6.660  12.928 -0.6808  0.0513  0.4243
 4177TIP3   OH233945   1.488   5.896  16.081 -0.0719 -0.1323  0.9664
 4177TIP3    H133946   1.472   5.931  16.169 -1.6803 -1.9660  1.4797
 4177TIP3    H233947   1.417   5.833  16.068 -1.0324  1.4274 -2.4272
 4178TIP3   OH233948   3.744   5.587   5.329  0.2265  0.3516  0.2913
 4178TIP3    H133949   3.722   5.628   5.413  0.4220 -0.2738  0.6508
 4178TIP3    H233950   3.665   5.597   5.276  0.1682  0.9226  0.4804
 4179TIP3   OH233951   4.912   0.664  16.030 -0.3361  0.6700  0.1576
 4179TIP3    H133952   4.911   0.585  16.084 -1.4142  0.1125 -0.6392
 4179TIP3    H233953   4.821   0.693  16.029 -0.3733  0.5645 -1.4827
 4180TIP3   OH233954   1.007   5.389  15.222 -0.4102  0.2362 -0.0807
 4180TIP3    H133955   0.969   5.377  15.135 -0.1519  2.8843 -0.6366
 4180TIP3    H233956   1.101   5.376  15.209 -0.6429 -3.7133  0.7873
 4181TIP3   OH233957   2.488   4.395   4.106  0.7342 -0.7776  0.0977
 4181TIP3    H133958   2.580   4.411   4.126  0.9616 -2.7702  0.9066
 4181TIP3    H233959   2.442   4.468   4.147  1.9646  0.5934 -0.8505
 4182TIP3   OH233960   1.664   0.957   1.940  0.2932 -0.1686  0.3697
 4182TIP3    H133961   1.719   1.004   1.878  1.1141  1.5863  2.3153
 4182TIP3    H233962   1.680   0.865   1.922  2.8089  0.2949 -0.0537
 4183TIP3   OH233963   0.477   0.946   3.904  0.2707  0.5228 -0.3735
 4183TIP3    H133964   0.559   0.958   3.855 -0.3287 -0.4048 -1.6481
 4183TIP3    H233965   0.504   0.899   3.983  0.8414 -1.0552 -1.4345
 4184TIP3   OH233966   6.468   1.747   1.414  0.1514  0.4144  0.4041
 4184TIP3    H133967   6.402   1.779   1.352  0.0639  1.1365  0.8584
 4184TIP3    H233968   6.551   1.759   1.368 -0.0743 -1.4880 -0.5957
 4185TIP3   OH233969   0.404   4.322  15.530 -0.3914 -0.0710 -0.1221
 4185TIP3    H133970   0.495   4.292  15.537 -0.7512 -1.2155 -0.0964
 4185TIP3    H233971   0.411   4.410  15.493  0.6835 -0.4692 -0.9248
 4186TIP3   OH233972   1.099   6.377  12.735 -0.3121  0.1883 -0.1588
 4186TIP3    H133973   1.170   6.334  12.783  0.3618  0.1869 -1.1304
 4186TIP3    H233974   1.124   6.369  12.643 -0.4790  2.1246 -0.4079
 4187TIP3   OH233975   6.253   1.886  14.222  0.5709 -0.2539 -0.1960
 4187TIP3    H133976   6.176   1.926  14.263  0.6991 -0.3735  0.1701
 4187TIP3    H233977   6.263   1.932  14.139  0.3751  0.0731 -0.0394
 4188TIP3   OH233978   4.344   3.873  12.999 -0.1495  0.2578  0.2023
 4188TIP3    H133979   4.285   3.932  13.047 -0.0138  0.4234  0.1657
 4188TIP3    H233980   4.342   3.792  13.049  1.8472  1.1478  1.8890
 4189TIP3   OH233981   3.480   1.321  11.089 -0.1906 -0.0715 -0.6692
 4189TIP3    H133982   3.427   1.241  11.085 -0.7160  0.1972  0.4943
 4189TIP3    H233983   3.488   1.349  10.998 -0.8932 -0.8744 -0.9897
 4190TIP3   OH233984   3.076   0.583   4.154 -0.1090 -0.5661 -0.0181
 4190TIP3    H133985   3.040   0.554   4.070 -0.2944  0.2252 -0.2134
 4190TIP3    H233986   3.152   0.636   4.132 -0.7732  0.5318  0.2536
 4191TIP3   OH233987   1.990   5.929   1.736  0.2930 -0.0837  0.1739
 4191TIP3    H133988   1.956   5.956   1.650 -0.1222  0.9361  0.6475
 4191TIP3    H233989   2.009   5.836   1.725 -4.0892 -1.2237  0.2511
 4192TIP3   OH233990   3.315   0.143  16.507 -0.1848 -0.3170  0.3744
 4192TIP3    H133991   3.373   0.208  16.467  0.9923 -0.6410  1.4748
 4192TIP3    H233992   3.374   0.076  16.541 -1.3401 -1.6952 -0.2281
 4193TIP3   OH233993   2.869   3.376   3.955  0.6533 -0.2242  0.0297
 4193TIP3    H133994   2.855   3.323   3.877 -0.9696 -0.1631  0.2629
 4193TIP3    H233995   2.951   3.423   3.937  0.2881 -0.1583 -1.6645
 4194TIP3   OH233996   6.378   2.443  14.452  0.0197  0.1981  0.3360
 4194TIP3    H133997   6.306   2.412  14.398  1.8208 -0.3265 -1.8662
 4194TIP3    H233998   6.394   2.372  14.515  0.6197 -1.0676 -1.1943
 4195TIP3   OH233999   0.926   5.580  12.252 -0.5630  0.3118  0.0661
 4195TIP3    H134000   0.860   5.647  12.269  0.0190  0.5405  1.5414
 4195TIP3    H234001   0.887   5.524  12.185 -0.8359  2.4257 -1.6585
 4196TIP3   OH234002   0.026   3.149  13.669 -0.1973  0.2090  0.1580
 4196TIP3    H134003  -0.044   3.185  13.724 -0.7429  0.1581 -0.4806
 4196TIP3    H234004   0.082   3.101  13.730 -0.4244  0.6865  0.7629
 4197TIP3   OH234005   2.910   5.437  12.813  0.1791  0.1425 -0.1832
 4197TIP3    H134006   2.920   5.444  12.718  2.6831  0.8749  0.0700
 4197TIP3    H234007   2.927   5.345  12.832  0.0378  0.0686 -0.4053
 4198TIP3   OH234008   1.761   4.477  15.461 -0.0813  0.1670 -0.3701
 4198TIP3    H134009   1.681   4.481  15.514 -0.1873 -0.1347 -0.5044
 4198TIP3    H234010   1.821   4.422  15.513 -0.7337 -1.4652 -1.2603
 4199TIP3   OH234011   0.343   6.077  12.379 -0.4983  0.1564 -0.5765
 4199TIP3    H134012   0.285   6.153  12.386 -1.2256 -0.3888 -0.6709
 4199TIP3    H234013   0.298   6.017  12.319 -0.5903 -0.9432  0.5604
 4200TIP3   OH234014   5.633   5.111   4.851 -0.2706 -0.9349  0.0487
 4200TIP3    H134015   5.601   5.145   4.934  3.0182  4.2954 -0.3629
 4200TIP3    H234016   5.564   5.134   4.788 -1.1463 -1.5368  0.7612
 4201TIP3   OH234017   0.244   5.515  16.374 -0.5353 -0.0705 -0.5819
 4201TIP3    H134018   0.201   5.584  16.425  0.7504  0.0699  0.3385
 4201TIP3    H234019   0.200   5.434  16.401  1.8148 -0.3984  2.8546
 4202TIP3   OH234020   0.836   5.740  11.519  0.0071 -0.1716  0.2382
 4202TIP3    H134021   0.871   5.659  11.482  1.4990  0.2764  0.6100
 4202TIP3    H234022   0.837   5.801  11.445 -1.2445 -0.5025 -0.0760
 4203TIP3   OH234023   4.067   1.747   0.643 -0.0503  0.3018 -0.2713
 4203TIP3    H134024   4.154   1.787   0.637 -0.0567  0.1485 -1.6717
 4203TIP3    H234025   4.009   1.809   0.599 -0.7176  0.5130  0.8525
 4204TIP3   OH234026   6.225   6.097   4.770  0.1246 -0.1682 -0.1119
 4204TIP3    H134027   6.134   6.113   4.795  0.7107 -0.9302  2.9374
 4204TIP3    H234028   6.223   6.009   4.731 -0.6869  0.6643 -2.1066
 4205TIP3   OH234029   6.145   6.445   3.745  0.4636  0.2391  0.5867
 4205TIP3    H134030   6.225   6.394   3.740  0.6239  0.5483 -0.2748
 4205TIP3    H234031   6.120   6.443   3.837  0.9002 -0.7143  0.6965
 4206TIP3   OH234032   5.134   6.432  12.849 -0.0694  0.3245 -0.3318
 4206TIP3    H134033   5.089   6.475  12.776  0.9431  0.1697 -1.0751
 4206TIP3    H234034   5.089   6.464  12.927 -3.0734 -1.6424 -1.0794
 4207TIP3   OH234035   1.492   4.056   1.465 -0.6660  0.0910  0.3566
 4207TIP3    H134036   1.436   4.064   1.543  0.5289  1.0288  1.1676
 4207TIP3    H234037   1.455   3.982   1.416 -1.6438 -0.3188  1.6482
 4208TIP3   OH234038   5.503   0.261   1.154 -0.3853 -0.6317  0.1412
 4208TIP3    H134039   5.549   0.286   1.234 -0.8747 -1.2343  0.6243
 4208TIP3    H234040   5.413   0.247   1.182 -0.9694  0.8899 -0.8570
 4209TIP3   OH234041   0.188   6.287   0.851  0.3612  0.7334  0.5102
 4209TIP3    H134042   0.192   6.381   0.872 -0.3151  1.0207 -0.5598
 4209TIP3    H234043   0.113   6.279   0.792  0.4538 -0.4790  0.5331
 4210TIP3   OH234044   1.427   5.585   2.994 -0.7083  0.1725  0.1840
 4210TIP3    H134045   1.521   5.601   2.981 -0.2628 -2.4046 -0.2801
 4210TIP3    H234046   1.400   5.651   3.058  1.0587  1.9427 -0.7811
 4211TIP3   OH234047   0.046   4.240   5.939 -0.2924 -0.0682  0.2038
 4211TIP3    H134048   0.032   4.255   6.032  2.7903 -1.3014  1.0081
 4211TIP3    H234049   0.045   4.145   5.929 -0.2911  0.0311 -0.9562
 4212TIP3   OH234050   5.837   5.033  14.392 -0.1263  0.2638  0.5751
 4212TIP3    H134051   5.847   4.945  14.429 -0.4804 -0.5698 -1.1820
 4212TIP3    H234052   5.894   5.033  14.315  0.6410  1.9472  1.0984
 4213TIP3   OH234053   4.372   0.877   5.789 -0.0289 -0.6466 -0.0086
 4213TIP3    H134054   4.438   0.889   5.720 -0.8869  1.1923 -0.5765
 4213TIP3    H234055   4.290   0.863   5.741 -0.6044  0.4796  0.5994
 4214TIP3   OH234056   6.676   6.767  15.548  0.2563 -0.1441 -0.5048
 4214TIP3    H134057   6.586   6.796  15.556  0.0512 -1.0594  0.9023
 4214TIP3    H234058   6.728   6.848  15.545 -0.4709  0.3731  0.5803
 4215TIP3   OH234059   6.185   0.075  10.912  0.0958 -0.5803 -0.0733
 4215TIP3    H134060   6.101   0.035  10.892  0.5904 -1.2597 -0.8249
 4215TIP3    H234061   6.208   0.038  10.998 -0.0394 -0.9449 -0.1901
 4216TIP3   OH234062   2.723   4.922   1.309  0.1648 -0.1672  0.6904
 4216TIP3    H134063   2.748   5.009   1.279  0.3303 -1.1178 -2.2819
 4216TIP3    H234064   2.735   4.924   1.404  1.7490  2.5078  0.5189
 4217TIP3   OH234065   1.313   3.569  13.674  0.5487 -0.4697 -0.1549
 4217TIP3    H134066   1.342   3.552  13.763  1.0137 -1.4449 -0.4809
 4217TIP3    H234067   1.336   3.490  13.626  2.1570  0.7688 -1.5887
 4218TIP3   OH234068   4.788   3.139  15.978 -0.5202 -0.6367  0.0670
 4218TIP3    H134069   4.773   3.225  16.017  2.5202  0.1743 -0.2865
 4218TIP3    H234070   4.708   3.121  15.929 -1.1772  2.1074 -0.0481
 4219TIP3   OH234071   5.459   6.021   0.088  0.0303  0.2266  0.1324
 4219TIP3    H134072   5.467   6.027   0.183 -1.6292 -0.4986  0.3426
 4219TIP3    H234073   5.543   6.054   0.055 -0.0862  2.3829  1.7630
 4220TIP3   OH234074   2.458   1.170  14.466  0.4324  0.2002 -0.7796
 4220TIP3    H134075   2.480   1.254  14.426  0.9571  0.6972  0.4841
 4220TIP3    H234076   2.363   1.172  14.476  0.6215  1.9732  1.8584
 4221TIP3   OH234077   6.657   3.793  16.444  0.2185  0.0362  0.5254
 4221TIP3    H134078   6.615   3.756  16.366  2.0815  0.7028 -0.8562
 4221TIP3    H234079   6.586   3.836  16.491 -0.9579 -0.3747 -0.8047
 4222TIP3   OH234080   0.361   2.249   4.965  0.2733  0.6216 -0.3437
 4222TIP3    H134081   0.334   2.327   4.915  0.9210  1.0282 -0.0734
 4222TIP3    H234082   0.302   2.180   4.935 -0.2323  1.1866 -0.6811
 4223TIP3   OH234083   3.709   2.961   4.587 -0.6343 -0.4973 -0.0990
 4223TIP3    H134084   3.705   2.964   4.682 -2.6703  0.0704 -0.1535
 4223TIP3    H234085   3.790   3.007   4.564  0.2140 -1.2172  1.3469
 4224TIP3   OH234086   6.529   1.890  13.543  0.1296  0.2238 -0.0093
 4224TIP3    H134087   6.540   1.982  13.519  1.3418  0.7814  2.4302
 4224TIP3    H234088   6.602   1.845  13.500  0.0720  0.5423 -0.4504
 4225TIP3   OH234089   3.483   1.982   2.359 -0.1455  0.6098 -0.0595
 4225TIP3    H134090   3.416   1.943   2.303  0.5222  1.0126 -1.1839
 4225TIP3    H234091   3.558   1.997   2.300  0.9931  0.0283  1.1850
 4226TIP3   OH234092   1.098   5.163  13.137  0.7450 -0.2046  0.1986
 4226TIP3    H134093   1.030   5.108  13.176  0.9680 -0.9320 -0.4225
 4226TIP3    H234094   1.056   5.203  13.061 -0.5648  3.3874  2.5855
 4227TIP3   OH234095   4.947   0.815  16.907  0.1547  0.1855 -0.1613
 4227TIP3    H134096   4.971   0.793  16.817  2.7432 -1.6952  0.8674
 4227TIP3    H234097   4.863   0.773  16.921  0.5347 -0.9749 -1.2026
 4228TIP3   OH234098   1.681   1.488   2.170 -0.7363 -0.1568 -0.2322
 4228TIP3    H134099   1.740   1.460   2.240 -3.4093 -1.4373  1.6411
 4228TIP3    H234100   1.698   1.582   2.161  1.4736 -0.4455  0.2501
 4229TIP3   OH234101   2.096   2.159  13.077  0.3631  0.6804 -0.5771
 4229TIP3    H134102   2.160   2.092  13.100 -0.6145 -0.6090 -1.5107
 4229TIP3    H234103   2.073   2.200  13.161 -0.1480 -1.1913  0.2464
 4230TIP3   OH234104   2.007   0.760   5.864 -0.1117 -0.1266  0.1710
 4230TIP3    H134105   2.079   0.823   5.866 -1.0219  0.9533 -0.1749
 4230TIP3    H234106   1.964   0.776   5.780 -1.1253 -0.3295  0.6357
 4231TIP3   OH234107   0.129   1.644   5.023 -0.0005  0.2289 -0.5442
 4231TIP3    H134108   0.162   1.724   4.981 -1.1964  0.6115 -0.7915
 4231TIP3    H234109   0.172   1.643   5.108 -1.2208  2.0849  0.1803
 4232TIP3   OH234110   2.864   6.285   4.698  0.0336  0.2859 -0.0843
 4232TIP3    H134111   2.957   6.300   4.681  0.1735 -0.6289 -0.2008
 4232TIP3    H234112   2.859   6.193   4.723 -0.4935  0.9456  2.5478
 4233TIP3   OH234113   4.017   5.985   3.957  0.7349  0.0001  0.8532
 4233TIP3    H134114   4.032   5.909   3.900  1.1241  0.7018 -0.0012
 4233TIP3    H234115   3.923   5.982   3.976  0.4893  0.0394 -0.2706
 4234TIP3   OH234116   3.331   1.504   5.518  0.4455  0.2310 -0.8274
 4234TIP3    H134117   3.390   1.521   5.592  1.1028 -1.8214 -0.8041
 4234TIP3    H234118   3.376   1.436   5.467 -1.0078  0.0344 -1.9067
 4235TIP3   OH234119   2.107   5.035   4.666 -0.0811  0.2219 -0.1091
 4235TIP3    H134120   2.116   5.122   4.627  1.0354 -1.2969 -3.6569
 4235TIP3    H234121   2.015   5.011   4.652  0.3799 -0.4517 -2.4708
 4236TIP3   OH234122   5.081   6.290  14.143  0.0856 -0.4529  0.1107
 4236TIP3    H134123   5.119   6.334  14.067  0.8956  0.8698  1.2304
 4236TIP3    H234124   5.154   6.241  14.181  0.0930  0.1779  0.9273
 4237TIP3   OH234125   6.256   1.359  10.839  0.1487 -0.2029 -0.4928
 4237TIP3    H134126   6.165   1.337  10.817  0.4948 -2.8102  0.2875
 4237TIP3    H234127   6.257   1.361  10.934  0.9583 -0.4989 -0.4896
 4238TIP3   OH234128   5.704   0.709  13.384  0.7061  0.3418 -0.4969
 4238TIP3    H134129   5.677   0.774  13.320  0.8098  0.9554  0.0654
 4238TIP3    H234130   5.776   0.751  13.432 -0.2716  0.4617  0.9437
 4239TIP3   OH234131   6.733   5.548   4.693 -0.2396  0.0804  0.2296
 4239TIP3    H134132   6.729   5.467   4.642 -0.1614 -0.2184  0.6937
 4239TIP3    H234133   6.642   5.571   4.710 -0.3006  0.6304 -0.7329
 4240TIP3   OH234134   2.601   4.583  13.346 -0.2512 -0.2994  0.3643
 4240TIP3    H134135   2.611   4.668  13.389  0.2835 -0.0873 -0.1675
 4240TIP3    H234136   2.515   4.552  13.375 -0.0623  0.0084  1.2715
 4241TIP3   OH234137   3.999   2.562  13.045  0.3094  0.2203 -0.1957
 4241TIP3    H134138   3.935   2.570  13.115  0.7825  3.0630  0.0199
 4241TIP3    H234139   4.013   2.468  13.036 -1.7149 -0.3365  1.7044
 4242TIP3   OH234140   0.026   5.328   0.121  0.0740 -0.2835 -0.3192
 4242TIP3    H134141  -0.036   5.297   0.186 -0.0654 -0.7876 -0.6830
 4242TIP3    H234142  -0.006   5.291   0.038  0.6587 -0.2623 -0.5587
 4243TIP3   OH234143   2.838   6.320  15.322 -0.1219  0.5977 -0.8385
 4243TIP3    H134144   2.803   6.365  15.245  1.8447 -1.1715 -2.8845
 4243TIP3    H234145   2.931   6.342  15.322  0.4488 -1.6726 -0.6191
 4244TIP3   OH234146   0.758   4.547   5.587 -0.2826  0.3298  0.5796
 4244TIP3    H134147   0.702   4.611   5.631  0.1530  1.4035 -0.3893
 4244TIP3    H234148   0.754   4.469   5.643 -2.3807  0.5214  0.7599
 4245TIP3   OH234149   4.126   0.366   4.350  0.2681 -0.0137  0.2293
 4245TIP3    H134150   4.105   0.458   4.335  0.7091  0.1202  0.3978
 4245TIP3    H234151   4.159   0.364   4.440 -0.3062 -0.4378  0.4340
 4246TIP3   OH234152   0.017   0.678  16.759 -0.3166 -0.1942 -0.0823
 4246TIP3    H134153   0.023   0.650  16.667  0.0349 -0.2422 -0.0455
 4246TIP3    H234154  -0.072   0.655  16.785 -1.1880  1.8216 -1.0706
 4247TIP3   OH234155   2.304   2.848  13.350  0.0921  0.3963 -0.2284
 4247TIP3    H134156   2.247   2.909  13.398  0.5979  1.6616 -1.1676
 4247TIP3    H234157   2.246   2.806  13.287 -0.0982  0.5682 -0.1711
 4248TIP3   OH234158   4.977   6.478  12.627  0.4734  0.2754  0.5659
 4248TIP3    H134159   4.969   6.385  12.646  1.9413  0.3585  1.7112
 4248TIP3    H234160   4.887   6.511  12.632  0.0594 -0.8892  1.1096
 4249TIP3   OH234161   4.013   2.154   6.216 -1.4958 -0.7468 -0.7842
 4249TIP3    H134162   3.973   2.139   6.130 -0.9261  0.9120 -1.3843
 4249TIP3    H234163   3.946   2.201   6.265 -1.6838 -1.3627 -0.4551
 4250TIP3   OH234164   5.527   5.641  13.268  0.2613 -0.0267 -0.3591
 4250TIP3    H134165   5.462   5.712  13.259  1.4208  0.9946 -1.0176
 4250TIP3    H234166   5.482   5.563  13.235 -0.5905  0.6813 -0.9284
 4251TIP3   OH234167   1.914   3.874   4.777 -0.3539  0.1982 -0.0677
 4251TIP3    H134168   1.842   3.908   4.831 -0.7312 -1.0288  0.2203
 4251TIP3    H234169   1.993   3.903   4.822 -0.6123  2.1231 -0.7284
 4252TIP3   OH234170   3.344   3.671   5.787 -0.0404  0.3967  0.0259
 4252TIP3    H134171   3.305   3.747   5.743  0.6898 -0.1399 -1.6236
 4252TIP3    H234172   3.423   3.706   5.829 -0.0799  0.6860 -0.1377
 4253TIP3   OH234173   2.592   3.423  12.375  0.1186  0.2407  0.1459
 4253TIP3    H134174   2.511   3.474  12.365 -0.2200  0.1942  2.2400
 4253TIP3    H234175   2.629   3.453  12.458  1.8465 -0.3455 -0.3731
 4254TIP3   OH234176   4.364   0.557  17.066 -0.1756 -0.5952  0.0251
 4254TIP3    H134177   4.314   0.482  17.096  0.9337 -1.1768  0.4633
 4254TIP3    H234178   4.393   0.534  16.978 -2.2991  0.5592 -1.0409
 4255TIP3   OH234179   4.093   6.411   4.713 -0.1141 -0.0442  0.3720
 4255TIP3    H134180   4.150   6.488   4.703  1.4246 -1.1172  0.4025
 4255TIP3    H234181   4.117   6.355   4.639  1.2971 -1.9578  2.1609
 4256TIP3   OH234182   6.642   4.662  13.405  0.1084  0.1588 -0.9897
 4256TIP3    H134183   6.614   4.703  13.488 -0.1225 -2.8611  0.5488
 4256TIP3    H234184   6.714   4.718  13.375 -0.8965  2.3097  0.3271
 4257TIP3   OH234185   3.564   2.498   5.792 -0.8482 -0.0406 -1.2506
 4257TIP3    H134186   3.526   2.518   5.878  1.9796 -1.8668  0.5993
 4257TIP3    H234187   3.519   2.417   5.765 -0.8544 -0.1768 -0.8421
 4258TIP3   OH234188   3.414   0.080  14.537 -0.0037 -0.2463  0.6400
 4258TIP3    H134189   3.462   0.075  14.454 -0.4872 -0.1670  0.3466
 4258TIP3    H234190   3.441   0.001  14.585  3.1888  1.5222  2.0505
 4259TIP3   OH234191   2.528   0.865   3.421 -0.1061 -0.1417 -0.1977
 4259TIP3    H134192   2.546   0.851   3.514 -0.1140 -0.1407 -0.1959
 4259TIP3    H234193   2.614   0.877   3.381 -0.1482  0.5921 -0.0725
 4260TIP3   OH234194   2.614   1.051   3.121  0.0818 -0.0546  0.0461
 4260TIP3    H134195   2.584   1.120   3.062  1.2956 -0.6735 -1.3933
 4260TIP3    H234196   2.703   1.078   3.146  0.9210 -1.4303 -1.2325
 4261TIP3   OH234197   5.127   4.563   5.615 -0.1789 -0.0018 -0.2433
 4261TIP3    H134198   5.120   4.488   5.556  0.5561 -0.8988  0.7646
 4261TIP3    H234199   5.104   4.527   5.701 -1.1500  1.2546  0.0606
 4262TIP3   OH234200   3.884   3.561  16.811 -0.0065  0.3333 -0.4615
 4262TIP3    H134201   3.965   3.582  16.858  1.6487 -1.3620 -2.3667
 4262TIP3    H234202   3.849   3.647  16.786  2.0629  1.1191 -0.9129
 4263TIP3   OH234203   4.633   6.329   6.071  0.5468  0.2748 -0.6754
 4263TIP3    H134204   4.712   6.381   6.051  1.6226 -1.4832 -1.2162
 4263TIP3    H234205   4.594   6.312   5.986  0.2880  0.0750 -0.5163
 4264TIP3   OH234206   3.963   5.091  11.439 -0.0217  0.1319 -0.2743
 4264TIP3    H134207   3.996   5.011  11.480 -0.8837  0.6469  1.5819
 4264TIP3    H234208   4.000   5.162  11.493 -1.4913  0.8312 -0.1270
 4265TIP3   OH234209   3.433   2.447   5.149  0.3866  0.3264  0.2698
 4265TIP3    H134210   3.474   2.444   5.235 -0.7499  0.1588  0.8250
 4265TIP3    H234211   3.496   2.405   5.091  0.7853 -0.3628  1.1814
 4266TIP3   OH234212   0.718   2.019  12.970 -0.1090 -0.2316 -0.5949
 4266TIP3    H134213   0.740   2.093  12.914  0.7457 -0.4170 -0.5130
 4266TIP3    H234214   0.793   2.009  13.028 -1.0882  0.1390  0.8006
 4267TIP3   OH234215   3.077   0.300  14.991 -0.1583 -0.0465  0.3981
 4267TIP3    H134216   3.035   0.221  15.026  1.3966 -0.8784  0.4481
 4267TIP3    H234217   3.138   0.327  15.059  0.7806  0.0218 -0.4549
 4268TIP3   OH234218   0.250   3.030   6.334  0.0576  0.1082 -0.2717
 4268TIP3    H134219   0.327   2.980   6.308 -0.5802 -0.4626 -1.1447
 4268TIP3    H234220   0.284   3.109   6.375  1.1070  0.2933 -1.4530
 4269TIP3   OH234221   0.409   3.395  11.340 -1.0461  0.0023 -0.6309
 4269TIP3    H134222   0.381   3.304  11.333  1.7171 -0.8609 -2.1780
 4269TIP3    H234223   0.505   3.390  11.346 -0.7911  2.8110 -0.8487
 4270TIP3   OH234224   6.740   0.726  16.109 -0.0840 -0.3343  0.3079
 4270TIP3    H134225   6.827   0.752  16.079 -0.4385 -0.3414 -0.7633
 4270TIP3    H234226   6.742   0.631  16.110 -0.3949 -0.3571 -0.7026
 4271TIP3   OH234227   5.845   2.939  11.638 -0.6253  0.5246  0.5290
 4271TIP3    H134228   5.818   3.026  11.611  0.9373  1.0496  0.5645
 4271TIP3    H234229   5.926   2.922  11.590 -0.0810 -0.2691  1.6574
 4272TIP3   OH234230   5.029   1.291  12.191 -0.0147  0.5423 -0.4368
 4272TIP3    H134231   4.977   1.323  12.264  0.6608  0.1102  0.2508
 4272TIP3    H234232   5.109   1.257  12.232 -0.1451 -0.8181 -1.2608
 4273TIP3   OH234233   1.903   4.132  12.395 -0.1415 -0.2205  0.6410
 4273TIP3    H134234   1.955   4.056  12.369 -0.4066  0.3123 -1.5794
 4273TIP3    H234235   1.870   4.109  12.482  2.4861 -1.2328  1.4851
 4274TIP3   OH234236   4.831   4.016   6.722 -0.0705 -0.3165  0.3365
 4274TIP3    H134237   4.882   3.937   6.700 -1.1971 -0.9787  0.0517
 4274TIP3    H234238   4.771   3.987   6.790 -0.6423  0.2438  0.0721
 4275TIP3   OH234239   0.938   0.820  10.320 -0.3324  0.2335  0.2202
 4275TIP3    H134240   1.010   0.778  10.274  0.5406  0.8100  1.0215
 4275TIP3    H234241   0.945   0.789  10.410  0.2691  1.9212  0.8105
 4276TIP3   OH234242   2.650   5.221  14.113  0.0729 -0.3691 -0.9139
 4276TIP3    H134243   2.740   5.233  14.082 -0.3858  0.3442 -2.0253
 4276TIP3    H234244   2.654   5.142  14.166  1.4460 -0.1088 -0.5821
 4277TIP3   OH234245   2.318   5.248   3.809 -0.3393 -0.0395 -0.8762
 4277TIP3    H134246   2.379   5.272   3.878 -1.6218  1.1263 -0.0991
 4277TIP3    H234247   2.365   5.269   3.728  0.6875 -0.1730 -0.3295
 4278TIP3   OH234248   4.165   0.732   3.358 -0.0984 -0.1786  0.1161
 4278TIP3    H134249   4.153   0.731   3.453  0.8753  2.1682  0.3158
 4278TIP3    H234250   4.241   0.674   3.344  0.5571  0.4569  0.9243
 4279TIP3   OH234251   0.401   3.135  15.816  0.0543 -0.0259  0.5135
 4279TIP3    H134252   0.405   3.180  15.901  0.8127  3.0391 -0.9889
 4279TIP3    H234253   0.308   3.127  15.798 -0.1215 -0.9498  1.7034
 4280TIP3   OH234254   1.759   4.547   4.883 -0.0879  0.0944 -0.1169
 4280TIP3    H134255   1.670   4.525   4.910  0.5818  0.1163  2.3475
 4280TIP3    H234256   1.775   4.492   4.806 -1.5194 -1.4280  0.6223
 4281TIP3   OH234257   0.268   3.058   5.475  0.0127 -0.2278  0.3856
 4281TIP3    H134258   0.242   2.991   5.413 -0.3720 -1.2476  1.6006
 4281TIP3    H234259   0.271   3.139   5.424 -2.1907 -0.6627 -0.5619
 4282TIP3   OH234260   4.453   0.127   4.446  0.1783 -0.0728  0.2220
 4282TIP3    H134261   4.442   0.212   4.488 -2.1651 -0.9665  1.6398
 4282TIP3    H234262   4.544   0.125   4.418  0.3702  2.7768  0.3700
 4283TIP3   OH234263   2.767   5.748  12.627  0.0016 -0.0745 -0.1583
 4283TIP3    H134264   2.672   5.740  12.613 -0.1036 -0.8862  0.8212
 4283TIP3    H234265   2.788   5.838  12.605 -0.6804 -0.3574 -2.1164
 4284TIP3   OH234266   0.174   5.124   3.264  0.4320 -0.1140 -0.5591
 4284TIP3    H134267   0.181   5.039   3.307  1.5927 -0.4010 -1.2650
 4284TIP3    H234268   0.184   5.105   3.171 -1.8459  0.5213 -0.9888
 4285TIP3   OH234269   3.773   3.375  14.674  0.4698 -0.1161 -0.3940
 4285TIP3    H134270   3.812   3.443  14.730 -0.7609  0.1679  0.1419
 4285TIP3    H234271   3.801   3.398  14.586  0.9079  0.5033 -0.1009
 4286TIP3   OH234272   5.777   0.874   1.076 -0.1592  0.1051  0.4283
 4286TIP3    H134273   5.865   0.845   1.102  0.7847  2.4402  0.1007
 4286TIP3    H234274   5.782   0.969   1.079 -2.2142  0.3277 -1.2038
 4287TIP3   OH234275   2.487   5.764   2.881 -0.9778  0.2016 -0.2347
 4287TIP3    H134276   2.514   5.679   2.915 -3.2215 -1.3798 -2.0300
 4287TIP3    H234277   2.553   5.826   2.912  0.8248 -2.2147  1.0065
 4288TIP3   OH234278   0.434   6.529   1.116 -0.8469 -0.1779 -0.3533
 4288TIP3    H134279   0.473   6.454   1.071 -0.7374 -0.2836 -0.0816
 4288TIP3    H234280   0.497   6.552   1.184 -0.8939  0.1430 -0.4169
 4289TIP3   OH234281   0.920   4.876  14.514 -0.7357  0.5519  0.0747
 4289TIP3    H134282   0.945   4.902  14.426  0.7918 -0.1392  0.2672
 4289TIP3    H234283   0.879   4.790  14.503 -0.5445  0.4653  0.0242
 4290TIP3   OH234284   2.017   0.454  16.309  0.0829  0.5604  0.7267
 4290TIP3    H134285   1.930   0.489  16.327  0.0817 -0.5572  3.3443
 4290TIP3    H234286   2.074   0.531  16.308 -0.9561  1.4648 -2.2404
 4291TIP3   OH234287   4.010   3.751   5.016  0.1826 -0.4499 -0.7892
 4291TIP3    H134288   4.094   3.721   5.050  0.3966  0.3713 -0.5588
 4291TIP3    H234289   3.954   3.760   5.093 -0.1650 -1.1273 -0.9572
 4292TIP3   OH234290   0.250   4.907   1.287  0.1982 -1.0196 -0.2610
 4292TIP3    H134291   0.328   4.958   1.266 -0.9760  0.3427 -1.5294
 4292TIP3    H234292   0.283   4.831   1.335  2.2791 -0.4370 -0.6843
 4293TIP3   OH234293   2.469   2.497   2.738  0.4095  0.0951  0.1153
 4293TIP3    H134294   2.445   2.535   2.654  1.1247 -0.7778 -0.5141
 4293TIP3    H234295   2.406   2.426   2.751  0.5876 -0.0768  0.0650
 4294TIP3   OH234296   2.593   3.816  16.117 -0.1640  0.0417 -0.4246
 4294TIP3    H134297   2.681   3.839  16.087 -0.7833  0.9884 -1.6020
 4294TIP3    H234298   2.544   3.898  16.116 -1.5436 -0.7430 -1.5067
 4295TIP3   OH234299   0.794   4.124  14.736 -0.9891 -0.5586  0.3467
 4295TIP3    H134300   0.766   4.040  14.772  0.7886 -0.8422  1.1837
 4295TIP3    H234301   0.889   4.119  14.734 -0.8639  1.2057 -0.1824
 4296TIP3   OH234302   4.519   0.829   4.473 -0.2371  0.1201  0.0123
 4296TIP3    H134303   4.462   0.818   4.549 -1.0067 -1.9181 -0.7881
 4296TIP3    H234304   4.553   0.742   4.455  0.7114  0.7348 -1.3884
 4297TIP3   OH234305   2.213   3.662  16.678  0.2628  0.6026  0.0211
 4297TIP3    H134306   2.247   3.584  16.635  0.2393  1.9441 -2.6071
 4297TIP3    H234307   2.248   3.657  16.767 -1.8300 -3.6718  0.8990
 4298TIP3   OH234308   2.716   2.353   5.426 -0.0861  0.8753  0.0272
 4298TIP3    H134309   2.740   2.427   5.371 -0.9359  0.7448 -0.5408
 4298TIP3    H234310   2.772   2.281   5.395  1.2309  1.4152  1.0340
 4299TIP3   OH234311   0.261   1.503   4.652  0.5250 -0.1918  0.2438
 4299TIP3    H134312   0.310   1.446   4.592  1.0031  0.8148 -0.3464
 4299TIP3    H234313   0.184   1.451   4.677  0.4209 -0.7185 -1.0821
 4300TIP3   OH234314   1.170   2.581  15.238  0.3086 -0.2665  0.4735
 4300TIP3    H134315   1.243   2.576  15.175 -0.8791  0.5148 -1.0362
 4300TIP3    H234316   1.124   2.498  15.226  1.3061 -1.0628  1.9323
 4301TIP3   OH234317   3.468   3.320   0.766  0.6909  0.2808  0.3260
 4301TIP3    H134318   3.468   3.401   0.716 -0.5971 -0.2032 -0.5227
 4301TIP3    H234319   3.553   3.280   0.747  0.3016  0.1914 -1.3771
 4302TIP3   OH234320   1.199   2.088  14.586  0.3410 -0.3681  0.0142
 4302TIP3    H134321   1.114   2.128  14.568  0.8101 -0.0004 -1.5935
 4302TIP3    H234322   1.222   2.043  14.504  2.9472  1.9287 -0.6842
 4303TIP3   OH234323   1.164   0.578   5.912  0.1850 -0.0241 -0.3445
 4303TIP3    H134324   1.197   0.601   5.825 -0.2574 -1.1566 -0.8232
 4303TIP3    H234325   1.194   0.650   5.968 -0.4281  1.2765 -1.6212
 4304TIP3   OH234326   3.064   6.399   5.711  0.2396  1.0662 -0.6111
 4304TIP3    H134327   3.070   6.471   5.774 -0.7968 -0.1084  0.8972
 4304TIP3    H234328   2.983   6.354   5.734  2.3976 -2.5836  0.7669
 4305TIP3   OH234329   5.037   2.199   3.545 -0.3209  0.2796 -0.5470
 4305TIP3    H134330   5.049   2.288   3.577  3.7952  0.2414 -1.4374
 4305TIP3    H234331   5.051   2.206   3.450 -0.1971 -1.2492 -0.6598
 4306TIP3   OH234332   0.858   2.233   6.415 -0.0555  0.3570 -0.5601
 4306TIP3    H134333   0.818   2.276   6.339 -0.3621 -0.2724 -0.7621
 4306TIP3    H234334   0.893   2.305   6.467 -2.0884  1.0156 -0.0044
 4307TIP3   OH234335   5.353   1.503   6.696 -0.6909 -0.4207 -0.4545
 4307TIP3    H134336   5.313   1.565   6.635 -2.0552 -0.5322  0.2748
 4307TIP3    H234337   5.290   1.431   6.702 -0.3021 -0.6983  0.6032
 4308TIP3   OH234338   5.204   6.571  14.604  0.8165  0.1853  0.4486
 4308TIP3    H134339   5.271   6.541  14.542 -0.0121 -1.4365  0.3023
 4308TIP3    H234340   5.229   6.532  14.687  0.3830  0.0613  0.5234
 4309TIP3   OH234341   6.761   0.462   0.549  0.6628 -0.0947 -0.2641
 4309TIP3    H134342   6.756   0.407   0.627  3.1541 -0.3685 -0.2084
 4309TIP3    H234343   6.753   0.401   0.476 -1.0802  0.0902 -0.2670
 4310TIP3   OH234344   4.709   6.244   3.303 -0.0074 -0.7312 -0.2007
 4310TIP3    H134345   4.715   6.334   3.272  1.2011 -1.0021 -0.8270
 4310TIP3    H234346   4.615   6.224   3.302 -0.1818  0.0749 -1.3608
 4311TIP3   OH234347   3.209   5.226  12.059  0.0485  0.6203  1.0839
 4311TIP3    H134348   3.205   5.315  12.025  2.3992 -0.8602 -3.9553
 4311TIP3    H234349   3.300   5.214  12.085  0.1441 -0.7428  0.2118
 4312TIP3   OH234350   2.159   4.158  15.030 -0.3769  0.6588 -0.1638
 4312TIP3    H134351   2.175   4.246  15.063  1.0018 -0.1342  1.4410
 4312TIP3    H234352   2.087   4.125  15.083  0.3620  0.1734  0.5627
 4313TIP3   OH234353   4.061   2.935  13.189 -0.0643  0.0727  0.2883
 4313TIP3    H134354   4.106   2.853  13.171 -1.8953 -0.8154 -0.4092
 4313TIP3    H234355   4.126   2.988  13.236  0.7062 -2.2606  2.0244
 4314TIP3   OH234356   3.717   1.803   0.687  0.8375 -0.7308  0.1804
 4314TIP3    H134357   3.750   1.742   0.622  1.1227 -0.8518  0.4387
 4314TIP3    H234358   3.682   1.876   0.636  0.1104 -1.2924 -0.1486
 4315TIP3   OH234359   6.338   5.435   6.228  0.0972  0.2171 -0.0074
 4315TIP3    H134360   6.389   5.401   6.155 -0.0237  0.9280 -0.4295
 4315TIP3    H234361   6.349   5.369   6.297  1.3620  0.2320 -0.1727
 4316TIP3   OH234362   5.300   2.334  13.321  0.3964  0.5611  0.0296
 4316TIP3    H134363   5.263   2.383  13.248  1.5123  1.9662  0.3483
 4316TIP3    H234364   5.253   2.367  13.398 -0.2948 -0.4026  0.0225
 4317TIP3   OH234365   3.634   1.447  14.352  0.5973 -0.5742 -0.1431
 4317TIP3    H134366   3.649   1.447  14.447  1.3027  0.2944 -0.2409
 4317TIP3    H234367   3.721   1.462  14.315 -0.0305  1.7165 -0.8416
 4318TIP3   OH234368   3.128   6.322  14.026  0.3586  0.5473 -0.4479
 4318TIP3    H134369   3.088   6.342  13.942 -0.2805 -0.4659 -0.4088
 4318TIP3    H234370   3.068   6.359  14.091 -0.5899 -1.0123 -0.3879
 4319TIP3   OH234371   4.357   6.255  13.863 -0.2509  0.5825 -0.0583
 4319TIP3    H134372   4.351   6.350  13.872  1.5276  0.8604 -1.3932
 4319TIP3    H234373   4.311   6.235  13.781  0.6252  0.4761 -0.5278
 4320TIP3   OH234374   1.914   4.887  16.866  0.3395 -0.4276 -0.0559
 4320TIP3    H134375   1.870   4.831  16.930  1.5772 -0.0863  1.1509
 4320TIP3    H234376   1.949   4.827  16.801  1.1014 -1.0304  0.8816
 4321TIP3   OH234377   4.274   0.703   0.696  0.0358  0.3602  0.3871
 4321TIP3    H134378   4.186   0.685   0.665 -0.2173  3.3478 -1.0055
 4321TIP3    H234379   4.274   0.797   0.714  2.3862  0.0852  2.3435
 4322TIP3   OH234380   2.299   3.029   1.546  0.1529 -0.6668 -0.7624
 4322TIP3    H134381   2.206   3.009   1.537 -0.3769  0.7892  0.9861
 4322TIP3    H234382   2.304   3.123   1.533  1.0187 -0.3685  1.3678
 4323TIP3   OH234383   2.736   0.258  17.014  0.0587  0.2652 -0.4627
 4323TIP3    H134384   2.686   0.200  16.957 -1.6560  0.6045  0.6006
 4323TIP3    H234385   2.774   0.201  17.080 -0.2199  0.1566 -0.3941
 4324TIP3   OH234386   2.399   0.224   6.639 -0.0055 -0.0246 -0.6668
 4324TIP3    H134387   2.411   0.140   6.683 -0.6735 -0.1841 -0.7847
 4324TIP3    H234388   2.487   0.249   6.611  0.4653  0.1620  0.8920
 4325TIP3   OH234389   4.350   1.926  15.866  0.4903 -0.4297 -0.2370
 4325TIP3    H134390   4.299   1.999  15.903  0.4382 -0.1485 -0.8435
 4325TIP3    H234391   4.441   1.952  15.878  0.5151  1.1937 -3.1266
 4326TIP3   OH234392   6.268   1.320  14.368  0.1748  0.1646  0.4122
 4326TIP3    H134393   6.247   1.348  14.279 -1.0395  3.6295  1.6231
 4326TIP3    H234394   6.350   1.366  14.388  0.6997 -0.9786  0.9676
 4327TIP3   OH234395   1.072   3.817  10.797  0.0164  0.4157 -0.3622
 4327TIP3    H134396   1.139   3.844  10.734 -1.8384  2.3531 -1.6692
 4327TIP3    H234397   1.103   3.733  10.831  3.0976  1.2240 -0.8273
 4328TIP3   OH234398   5.675   5.179   5.595 -0.0107  0.2024  0.2733
 4328TIP3    H134399   5.765   5.210   5.596 -0.3069  1.1214  0.1195
 4328TIP3    H234400   5.648   5.188   5.503  0.1383 -1.3094  0.0580
 4329TIP3   OH234401   4.488   6.325   3.090 -0.0120 -0.0273  0.5947
 4329TIP3    H134402   4.404   6.355   3.053 -0.9640 -2.1175  0.8993
 4329TIP3    H234403   4.535   6.406   3.112 -2.0472  1.2149  0.6425
 4330TIP3   OH234404   5.516   4.710  12.830  0.0748 -0.1265 -0.1819
 4330TIP3    H134405   5.430   4.734  12.864 -0.0950 -1.0907  0.0998
 4330TIP3    H234406   5.578   4.746  12.893 -0.0764  1.1148 -0.7126
 4331TIP3   OH234407   5.424   4.862   2.294  1.1591 -0.4776 -0.6808
 4331TIP3    H134408   5.464   4.908   2.221  3.2485 -0.5894  0.2836
 4331TIP3    H234409   5.385   4.931   2.348  0.2302 -0.3297 -1.5258
 4332TIP3   OH234410   6.313   0.425   2.790  0.7808  0.3276  0.0719
 4332TIP3    H134411   6.389   0.420   2.848  1.3469 -0.2492 -0.6832
 4332TIP3    H234412   6.304   0.336   2.755 -1.1080  0.0396  1.1831
 4333TIP3   OH234413   4.858   0.132   5.962 -0.4104 -0.5272 -0.6140
 4333TIP3    H134414   4.836   0.060   6.021 -0.3270  0.3655  0.5425
 4333TIP3    H234415   4.919   0.187   6.012  0.4082 -0.2296 -1.8811
 4334TIP3   OH234416   4.811   3.740  11.749 -0.0506  0.4547 -0.1963
 4334TIP3    H134417   4.857   3.739  11.833 -0.5113 -2.0740  0.1030
 4334TIP3    H234418   4.875   3.707  11.687 -0.2974  0.5102 -0.4819
 4335TIP3   OH234419   3.967   6.514  12.120  0.5324 -0.7015 -0.5968
 4335TIP3    H134420   3.880   6.522  12.079 -0.3525  0.7508  1.4401
 4335TIP3    H234421   4.011   6.446  12.068 -1.8208 -1.5221 -1.6672
 4336TIP3   OH234422   5.817   2.452   0.235  0.0285  0.3173  0.0130
 4336TIP3    H134423   5.775   2.525   0.279 -0.2922 -0.9963  1.9992
 4336TIP3    H234424   5.745   2.395   0.208  0.2892  0.5558 -1.2916
 4337TIP3   OH234425   6.717   5.081   5.592 -0.2249  0.1676  0.1347
 4337TIP3    H134426   6.641   5.088   5.535 -1.5667  0.2197  1.8378
 4337TIP3    H234427   6.691   5.125   5.673  1.9830  1.0484  0.4661
 4338TIP3   OH234428   1.143   5.638  15.054 -0.5448 -0.3427  0.0108
 4338TIP3    H134429   1.175   5.573  15.117  1.5221 -0.9917 -1.6026
 4338TIP3    H234430   1.218   5.695  15.038 -1.0483 -0.1154 -1.7445
 4339TIP3   OH234431   3.855   2.392  12.478 -0.1634  0.2562 -0.3285
 4339TIP3    H134432   3.886   2.361  12.563 -0.3413 -2.2808 -1.0924
 4339TIP3    H234433   3.776   2.443  12.499 -0.0800 -0.1292  1.0485
 4340TIP3   OH234434   2.873   4.987   4.625 -0.0152 -0.0697  0.5361
 4340TIP3    H134435   2.964   4.991   4.653  0.2034 -3.0550  0.5175
 4340TIP3    H234436   2.823   5.012   4.703  0.7664  0.4970  0.8699
 4341TIP3   OH234437   3.525   4.752  16.067  0.6654 -0.0711  0.3963
 4341TIP3    H134438   3.501   4.826  16.123 -1.7763  0.8833 -1.7010
 4341TIP3    H234439   3.532   4.790  15.979 -0.8454 -2.3101 -0.7942
 4342TIP3   OH234440   2.411   0.666  15.677  0.1278 -0.0342  0.0274
 4342TIP3    H134441   2.398   0.620  15.760 -2.1038  0.7297  0.1778
 4342TIP3    H234442   2.325   0.662  15.635  1.4801 -1.4850 -2.8640
 4343TIP3   OH234443   2.677   0.055  12.870 -0.2731 -0.3039 -0.1949
 4343TIP3    H134444   2.676   0.036  12.777  1.9228 -0.6896 -0.1905
 4343TIP3    H234445   2.586   0.049  12.897 -0.8679 -0.7896 -2.1847
 4344TIP3   OH234446   5.954   1.081   1.724  0.1579 -0.0601 -0.5289
 4344TIP3    H134447   6.033   1.067   1.672 -0.6725 -1.0268 -1.5782
 4344TIP3    H234448   5.910   0.996   1.725  0.4449 -0.2937  2.3410
 4345TIP3   OH234449   4.516   5.412   3.366  0.2331 -0.3286  0.1012
 4345TIP3    H134450   4.571   5.473   3.317 -0.7864  1.8735  1.5693
 4345TIP3    H234451   4.487   5.348   3.301 -0.5472  2.0671 -2.0541
 4346TIP3   OH234452   5.604   2.811   5.153  0.1560  0.6260  0.3350
 4346TIP3    H134453   5.520   2.783   5.117  0.6083  0.1858 -0.3894
 4346TIP3    H234454   5.666   2.801   5.081  1.0246 -0.0241  1.1448
 4347TIP3   OH234455   4.730   3.682   3.728 -0.2083 -0.2245 -0.1097
 4347TIP3    H134456   4.709   3.692   3.820 -2.3611 -1.3293 -0.4258
 4347TIP3    H234457   4.748   3.589   3.717  1.1630  0.0715 -0.6210
 4348TIP3   OH234458   5.718   1.343  16.578 -0.1057 -0.0474  0.3107
 4348TIP3    H134459   5.746   1.339  16.487  0.9115  0.8878  0.5514
 4348TIP3    H234460   5.761   1.268  16.620  0.3357  0.1588  0.2373
 4349TIP3   OH234461   6.463   0.050  12.450  0.2323 -0.2376 -0.0214
 4349TIP3    H134462   6.377   0.073  12.416  0.8721  1.1742 -0.7823
 4349TIP3    H234463   6.501   0.134  12.476  2.1788 -0.5619 -1.6460
 4350TIP3   OH234464   4.686   1.141  13.456  0.0977 -0.1290  0.0164
 4350TIP3    H134465   4.736   1.141  13.375  1.9566  1.9480  1.0661
 4350TIP3    H234466   4.724   1.070  13.508 -2.1515 -2.5480 -1.3964
 4351TIP3   OH234467   1.219   0.063   3.003  0.0836  0.0217  0.0529
 4351TIP3    H134468   1.187   0.106   3.083 -0.0180 -0.7763  0.4522
 4351TIP3    H234469   1.310   0.092   2.996 -0.4889  1.7878 -0.7356
 4352TIP3   OH234470   5.376   2.800  11.391 -0.1849 -0.2880  0.2425
 4352TIP3    H134471   5.456   2.757  11.361 -1.1141 -1.3687 -0.7861
 4352TIP3    H234472   5.363   2.872  11.329  0.8957  0.9862  1.4429
 4353TIP3   OH234473   5.568   6.513  13.309 -0.7784 -0.7805  0.4527
 4353TIP3    H134474   5.633   6.537  13.242 -1.6506 -2.7825 -1.2128
 4353TIP3    H234475   5.509   6.588  13.313 -0.1091 -0.1959 -0.2359
 4354TIP3   OH234476   2.464   6.300   0.555 -0.3692  0.6638  0.1234
 4354TIP3    H134477   2.494   6.344   0.635 -1.5365 -0.4351  1.2300
 4354TIP3    H234478   2.506   6.214   0.558 -0.6404  0.5124 -0.2948
 4355TIP3   OH234479   3.680   3.331  13.511 -0.0456  0.0300 -0.7044
 4355TIP3    H134480   3.658   3.405  13.567  0.2677 -0.2327 -0.2294
 4355TIP3    H234481   3.620   3.261  13.538 -0.2293  0.0521 -1.0392
 4356TIP3   OH234482   4.187   3.466   2.588  0.2135  0.5066  0.3647
 4356TIP3    H134483   4.115   3.499   2.642 -0.1939 -1.2144  0.9344
 4356TIP3    H234484   4.257   3.446   2.650 -0.0065 -0.8349  0.2009
 4357TIP3   OH234485   6.520   0.159  11.045  0.4102 -0.2425 -0.1691
 4357TIP3    H134486   6.501   0.252  11.051  0.7966 -0.1420 -0.4807
 4357TIP3    H234487   6.467   0.119  11.114 -0.8641  0.0421 -0.9633
 4358TIP3   OH234488   2.916   5.079   0.249  0.2044 -0.7483  0.2159
 4358TIP3    H134489   2.850   5.023   0.289 -2.2409  0.9573 -1.1254
 4358TIP3    H234490   2.919   5.157   0.305  2.2633 -1.3887  1.0913
 4359TIP3   OH234491   4.551   0.438   2.525  0.1399  0.5147  0.0256
 4359TIP3    H134492   4.578   0.529   2.530 -1.1267  0.9969 -1.1884
 4359TIP3    H234493   4.542   0.420   2.431 -1.8772 -0.1281  0.2769
 4360TIP3   OH234494   0.362   5.630   3.712  0.2908 -0.0909 -0.1803
 4360TIP3    H134495   0.283   5.669   3.750  1.5425 -0.2619  2.7747
 4360TIP3    H234496   0.404   5.702   3.665 -1.5035  0.0232 -1.7298
 4361TIP3   OH234497   4.337   6.222   4.127 -0.3668  0.0980 -0.8808
 4361TIP3    H134498   4.374   6.153   4.183 -0.8823 -0.2521 -0.9618
 4361TIP3    H234499   4.319   6.295   4.186 -0.5385 -0.1244 -0.6545
 4362TIP3   OH234500   0.904   1.066   4.982  0.0130 -0.0072 -0.5709
 4362TIP3    H134501   0.841   1.106   4.922 -0.5874  0.3358  0.2618
 4362TIP3    H234502   0.914   1.130   5.053  4.5290  1.9843 -2.5841
 4363TIP3   OH234503   0.942   4.128   5.781  0.3404  0.6427  0.5386
 4363TIP3    H134504   1.021   4.137   5.834  0.6281  1.2638  0.0173
 4363TIP3    H234505   0.944   4.203   5.721 -0.2314  0.2306 -0.0174
 4364TIP3   OH234506   6.182   5.874  12.134 -0.3709  0.3869 -0.3944
 4364TIP3    H134507   6.228   5.803  12.179  0.0520 -0.4652 -2.0949
 4364TIP3    H234508   6.252   5.930  12.100 -0.5488 -0.5350 -2.3979
 4365TIP3   OH234509   3.491   5.264   2.387 -0.1171  0.0879 -0.3457
 4365TIP3    H134510   3.578   5.259   2.348  0.2211  1.0845  0.2439
 4365TIP3    H234511   3.439   5.311   2.321  0.0105  0.2305 -0.3477
 4366TIP3   OH234512   3.242   2.281   1.746 -0.0692 -0.2228  0.4450
 4366TIP3    H134513   3.167   2.309   1.799 -0.1225  1.5471 -0.4845
 4366TIP3    H234514   3.308   2.254   1.810 -0.7396  0.2259  1.3528
 4367TIP3   OH234515   0.721   4.231  16.956  0.4628  0.3271  0.5284
 4367TIP3    H134516   0.698   4.319  16.926  2.3980  0.4155 -0.8540
 4367TIP3    H234517   0.658   4.174  16.913 -0.1677  0.9337  0.6218
 4368TIP3   OH234518   2.162   3.224  16.711  0.4194 -0.6676  0.4659
 4368TIP3    H134519   2.253   3.252  16.720  0.0015  0.8863  0.3027
 4368TIP3    H234520   2.127   3.225  16.800  0.6573 -1.6346  0.5723
 4369TIP3   OH234521   5.289   5.150  11.125 -0.1980 -0.4777  0.0345
 4369TIP3    H134522   5.383   5.158  11.109 -0.5619 -0.3040 -2.5364
 4369TIP3    H234523   5.249   5.213  11.064 -2.0153 -1.0870  0.5261
 4370TIP3   OH234524   1.416   2.440  16.694  0.5693  0.1106 -0.5582
 4370TIP3    H134525   1.474   2.515  16.711 -0.4781  1.2263 -1.6431
 4370TIP3    H234526   1.453   2.398  16.617  0.4018  0.3215 -0.7540
 4371TIP3   OH234527   1.550   2.695  15.663  0.6568 -0.7308  0.4356
 4371TIP3    H134528   1.602   2.773  15.647  1.0967 -1.3777 -1.7100
 4371TIP3    H234529   1.476   2.703  15.603  0.4400 -1.7018  0.5446
 4372TIP3   OH234530   2.797   1.107   2.466  0.5296 -0.0382  0.6919
 4372TIP3    H134531   2.837   1.023   2.490  0.1219 -0.2883  0.5014
 4372TIP3    H234532   2.871   1.165   2.448  0.8096 -0.8386 -0.8423
 4373TIP3   OH234533   5.617   5.876   0.486 -0.1005 -0.1761  0.5791
 4373TIP3    H134534   5.662   5.855   0.404 -1.1904 -0.5345  0.0398
 4373TIP3    H234535   5.659   5.820   0.551 -1.1202 -2.1076 -0.3185
 4374TIP3   OH234536   6.330   1.746  13.354  0.0339 -0.1455 -0.3730
 4374TIP3    H134537   6.345   1.807  13.282  0.0045 -2.2556 -2.2757
 4374TIP3    H234538   6.400   1.764  13.416  0.4519  1.2887 -1.2191
 4375TIP3   OH234539   1.442   6.221   2.035 -0.2633 -0.3673 -0.2996
 4375TIP3    H134540   1.438   6.130   2.067  1.8953 -0.2994  0.2840
 4375TIP3    H234541   1.532   6.232   2.005 -0.1446  1.9390  0.7272
 4376TIP3   OH234542   6.197   0.249  12.482 -1.0276  0.8172 -0.0880
 4376TIP3    H134543   6.190   0.330  12.531 -0.1846  1.6857 -1.3468
 4376TIP3    H234544   6.137   0.261  12.408 -1.3816  0.0281  0.0650
 4377TIP3   OH234545   1.515   1.971   1.941 -0.1008 -0.6924 -0.4262
 4377TIP3    H134546   1.524   1.911   2.014  0.2045  0.1174  0.2223
 4377TIP3    H234547   1.487   1.916   1.868  0.6264 -1.6878  0.0180
 4378TIP3   OH234548   5.528   0.516  13.002 -0.1511  0.4826  0.3901
 4378TIP3    H134549   5.541   0.541  12.911 -2.9432 -0.2227 -0.2866
 4378TIP3    H234550   5.471   0.584  13.038 -2.3430 -1.2513  0.4163
 4379TIP3   OH234551   2.807   4.012   5.067 -0.8607  0.4525  0.3876
 4379TIP3    H134552   2.877   4.078   5.069  0.2451 -0.6703  0.0904
 4379TIP3    H234553   2.762   4.027   4.984 -1.3654  1.5661  0.8498
 4380TIP3   OH234554   5.240   4.286  14.634 -0.2156  0.3304 -0.6899
 4380TIP3    H134555   5.165   4.318  14.584 -0.9194 -2.1739 -1.4021
 4380TIP3    H234556   5.201   4.237  14.707  0.7598  0.6234  0.0492
 4381TIP3   OH234557   2.839   0.273  12.992  0.3923  0.3321  0.2995
 4381TIP3    H134558   2.855   0.353  12.941 -0.0951  0.8294  0.9222
 4381TIP3    H234559   2.779   0.222  12.938  1.2900  0.0258 -0.4499
 4382TIP3   OH234560   0.247   6.328  14.388 -0.0578  0.0286  0.0363
 4382TIP3    H134561   0.299   6.346  14.309 -0.6479 -0.6510 -0.5158
 4382TIP3    H234562   0.295   6.258  14.433 -0.8788 -1.1417 -0.8685
 4383TIP3   OH234563   0.393   2.772  16.111  0.0204 -0.4338  0.2620
 4383TIP3    H134564   0.446   2.832  16.164 -0.0481  1.3614 -1.5585
 4383TIP3    H234565   0.456   2.732  16.051 -0.3615  0.2362 -0.6108
 4384TIP3   OH234566   6.259   5.420   4.386 -0.1282 -0.4012 -0.0194
 4384TIP3    H134567   6.304   5.421   4.471 -1.7110 -1.1728  0.8716
 4384TIP3    H234568   6.329   5.406   4.322  0.8388 -2.1340  1.3383
 4385TIP3   OH234569   0.601   3.367   2.403 -0.7169 -0.6774 -0.3978
 4385TIP3    H134570   0.645   3.284   2.420  1.7819  0.8363  1.1464
 4385TIP3    H234571   0.671   3.432   2.402 -2.7299  1.6497  0.2149
 4386TIP3   OH234572   3.189   2.660   3.806 -0.0048  0.1613  0.0004
 4386TIP3    H134573   3.213   2.752   3.811 -0.3526  0.2848 -0.5175
 4386TIP3    H234574   3.093   2.659   3.817  0.1336 -0.2769  1.5057
 4387TIP3   OH234575   1.935   0.217   3.745 -0.0058 -0.1895 -0.0369
 4387TIP3    H134576   1.920   0.259   3.829 -0.6085  0.2699 -0.3651
 4387TIP3    H234577   1.945   0.124   3.765  2.0151  0.1534  0.7805
 4388TIP3   OH234578   1.593   2.895  11.744  0.2753 -0.4987 -0.0030
 4388TIP3    H134579   1.524   2.846  11.790 -1.6200  0.4446 -1.6559
 4388TIP3    H234580   1.628   2.955  11.810 -0.4938 -1.0053  0.8893
 4389TIP3   OH234581   2.310   1.193  17.215 -0.1414  0.6877 -0.1219
 4389TIP3    H134582   2.271   1.168  17.299 -0.9684 -2.0266 -1.2035
 4389TIP3    H234583   2.351   1.277  17.232 -0.3970  0.3054  2.9612
 4390TIP3   OH234584   0.966   2.592  11.054 -0.0024  0.6833 -0.0470
 4390TIP3    H134585   1.014   2.517  11.090  0.0043 -0.1271 -1.6554
 4390TIP3    H234586   1.004   2.668  11.098 -1.2735 -0.3036  3.0310
 4391TIP3   OH234587   4.181   3.665  16.903 -0.5307 -0.0152 -0.2434
 4391TIP3    H134588   4.166   3.646  16.996 -1.0211  1.3885 -0.0125
 4391TIP3    H234589   4.137   3.749  16.888 -1.3427 -0.7069 -2.0054
 4392TIP3   OH234590   0.265   6.618  12.715  0.1771 -0.1213 -0.5404
 4392TIP3    H134591   0.191   6.652  12.666 -0.0667  0.1454  0.0116
 4392TIP3    H234592   0.227   6.556  12.778  0.2674  0.9956  0.6440
 4393TIP3   OH234593   4.983   2.216  16.866  0.5471 -0.3774 -0.1257
 4393TIP3    H134594   4.978   2.309  16.843  2.4010 -0.2056  0.0750
 4393TIP3    H234595   5.076   2.196  16.870  0.3374 -3.1855 -3.8114
 4394TIP3   OH234596   2.835   0.978   5.496 -0.3308  0.6931  0.1728
 4394TIP3    H134597   2.801   1.026   5.421 -0.7059 -1.3931 -1.0619
 4394TIP3    H234598   2.757   0.957   5.548 -0.9741 -2.8701 -1.9366
 4395TIP3   OH234599   6.491   2.882  14.576  0.8199  0.4148  1.0642
 4395TIP3    H134600   6.477   2.884  14.671  1.4627 -1.9586  1.2860
 4395TIP3    H234601   6.429   2.818  14.544  1.4214  0.3221  0.0481
 4396TIP3   OH234602   3.495   3.610   5.505  0.2223 -0.0663  0.1822
 4396TIP3    H134603   3.450   3.540   5.553  0.7620 -0.1867  0.5210
 4396TIP3    H234604   3.427   3.675   5.489 -0.5001 -1.0548 -0.9233
 4397TIP3   OH234605   3.196   6.492   0.630  0.0891 -0.0949 -0.0753
 4397TIP3    H134606   3.276   6.493   0.684  0.5296  1.4157 -0.7067
 4397TIP3    H234607   3.201   6.572   0.578 -1.3031 -0.5382 -0.9476
 4398TIP3   OH234608   1.002   6.161   3.433  0.6229 -0.0446  0.7761
 4398TIP3    H134609   0.911   6.136   3.423  0.6864 -0.0187  0.1263
 4398TIP3    H234610   1.039   6.093   3.490  0.1427  0.0878  1.2493
 4399TIP3   OH234611   3.254   2.681  15.245  0.4023 -0.4953 -0.3830
 4399TIP3    H134612   3.217   2.754  15.295  1.3585 -0.8405  0.8660
 4399TIP3    H234613   3.338   2.663  15.287  0.5722 -1.7545 -1.2118
 4400TIP3   OH234614   2.156   0.044  16.220 -0.8759 -0.2502 -0.3275
 4400TIP3    H134615   2.073   0.004  16.193 -0.1608 -0.9873 -1.5142
 4400TIP3    H234616   2.165   0.121  16.163 -1.0415  0.1967  0.2393
 4401TIP3   OH234617   4.323   2.959   3.379  0.7878 -0.4985  0.2511
 4401TIP3    H134618   4.343   3.039   3.329  0.3751  0.4830  1.6034
 4401TIP3    H234619   4.359   2.888   3.325  3.0941  0.7382 -0.0071
 4402TIP3   OH234620   6.441   2.887  13.375  0.0409 -0.1214  0.2993
 4402TIP3    H134621   6.419   2.889  13.282  0.8113 -0.1897  0.1059
 4402TIP3    H234622   6.372   2.834  13.416 -0.1846 -0.2613 -0.2636
 4403TIP3   OH234623   2.448   4.345   0.759  0.1275  0.3074 -0.1316
 4403TIP3    H134624   2.511   4.417   0.766 -1.3091  1.5597  0.3479
 4403TIP3    H234625   2.449   4.321   0.666  1.8798 -0.2578 -0.0017
 4404TIP3   OH234626   5.652   5.063  16.116 -0.0193  0.1725  0.6726
 4404TIP3    H134627   5.560   5.056  16.140 -0.4307  0.2654 -0.7556
 4404TIP3    H234628   5.661   5.151  16.080  0.3362 -0.2252 -0.2655
 4405TIP3   OH234629   4.675   0.294  11.546  0.4913 -0.7156  0.3196
 4405TIP3    H134630   4.762   0.304  11.508 -0.4158 -0.2476 -1.7986
 4405TIP3    H234631   4.649   0.204  11.524  0.5556 -0.9735  1.2498
 4406TIP3   OH234632   5.826   5.665  17.136  0.4222 -0.7447  0.2092
 4406TIP3    H134633   5.878   5.647  17.214  1.0740 -2.3572 -0.5490
 4406TIP3    H234634   5.770   5.589  17.127 -1.4987  0.5716  0.5056
 4407TIP3   OH234635   4.802   3.041  13.905  0.3889  0.3975 -0.1972
 4407TIP3    H134636   4.706   3.049  13.906  0.4704  1.4794  0.7318
 4407TIP3    H234637   4.817   2.947  13.894 -0.7946  0.1124  0.3878
 4408TIP3   OH234638   3.539   2.704   1.669 -0.1298 -0.7903  0.0950
 4408TIP3    H134639   3.565   2.674   1.582  0.9079 -0.8680  0.4149
 4408TIP3    H234640   3.561   2.797   1.670 -1.9876 -0.3083 -0.3902
 4409TIP3   OH234641   1.760   6.030  11.939 -0.7557 -0.2088 -0.4575
 4409TIP3    H134642   1.747   5.957  11.999 -3.7160 -0.6414 -1.4804
 4409TIP3    H234643   1.823   6.086  11.984  1.0454 -2.9460  0.6959
 4410TIP3   OH234644   3.337   2.448   0.657  0.1026  0.0121  0.0468
 4410TIP3    H134645   3.289   2.526   0.629 -0.5066 -0.2437  0.3638
 4410TIP3    H234646   3.372   2.411   0.576  0.1689  0.4629 -0.1336
 4411TIP3   OH234647   3.710   5.796  13.613 -0.1023  0.2195  0.4303
 4411TIP3    H134648   3.796   5.760  13.588 -0.1434  0.9273 -0.7975
 4411TIP3    H234649   3.665   5.723  13.654  0.6660 -0.4992  0.0284
 4412TIP3   OH234650   4.029   3.357  15.929 -0.0412 -0.8458 -0.5322
 4412TIP3    H134651   3.941   3.337  15.896 -0.1384 -0.6614 -0.3838
 4412TIP3    H234652   4.058   3.430  15.875 -0.8494  0.5539  0.8482
 4413TIP3   OH234653   6.493   2.262   0.936 -0.4699 -0.4981  0.2219
 4413TIP3    H134654   6.488   2.235   1.028  0.8127 -0.0556  0.4390
 4413TIP3    H234655   6.571   2.219   0.903  0.1042  0.7872 -0.1565
 4414TIP3   OH234656   2.158   0.220  11.809 -0.1152 -0.3777 -0.5970
 4414TIP3    H134657   2.224   0.280  11.774 -0.9130  0.6491 -0.3633
 4414TIP3    H234658   2.193   0.133  11.790  1.4391  0.1360 -0.2379
 4415TIP3   OH234659   6.363   6.040  13.486  0.1488  0.4419 -0.0659
 4415TIP3    H134660   6.446   6.033  13.534  0.0544  0.3552  0.0847
 4415TIP3    H234661   6.332   5.950  13.477 -0.5167  0.5548  0.9099
 4416TIP3   OH234662   0.497   4.189  13.289 -0.2101  0.4210  0.2281
 4416TIP3    H134663   0.462   4.100  13.292  0.8403 -0.0374 -0.7358
 4416TIP3    H234664   0.483   4.217  13.198 -0.8929  1.4103  0.6131
 4417TIP3   OH234665   5.377   5.521  11.215  0.3054  0.1899  0.1858
 4417TIP3    H134666   5.439   5.536  11.286  0.2211  1.1980  0.0542
 4417TIP3    H234667   5.340   5.434  11.233  1.0468 -0.0090  0.7853
 4418TIP3   OH234668   4.747   2.148   3.609  0.0916 -0.3629  0.0844
 4418TIP3    H134669   4.827   2.198   3.595 -1.1201  1.5282 -0.5877
 4418TIP3    H234670   4.748   2.080   3.541  0.6166  0.3524 -0.6449
 4419TIP3   OH234671   5.126   5.765  13.839  0.0869  0.4895  0.5196
 4419TIP3    H134672   5.177   5.690  13.870  0.2003  0.0158 -0.7511
 4419TIP3    H234673   5.183   5.841  13.852  0.2289  0.2800  1.1845
 4420TIP3   OH234674   5.241   5.274   3.218 -0.1516  0.1638 -0.1178
 4420TIP3    H134675   5.319   5.239   3.261 -0.5709 -0.7601 -0.0840
 4420TIP3    H234676   5.257   5.260   3.125 -0.9610 -1.5814 -0.0407
 4421TIP3   OH234677   5.632   4.136   6.125 -0.2873  0.0383  0.5487
 4421TIP3    H134678   5.725   4.121   6.108  0.3022  3.1340  0.4601
 4421TIP3    H234679   5.621   4.111   6.217  0.9904  0.8845  0.9645
 4422TIP3   OH234680   6.518   5.377   1.430 -0.7304 -0.0207  0.7005
 4422TIP3    H134681   6.487   5.414   1.513  2.0715 -0.4710  2.0689
 4422TIP3    H234682   6.470   5.294   1.422 -1.3713  0.2401  1.6111
 4423TIP3   OH234683   4.148   2.755   3.975 -0.4160 -0.4999 -0.2521
 4423TIP3    H134684   4.099   2.831   3.944 -1.2245 -0.2427  1.5191
 4423TIP3    H234685   4.237   2.789   3.989 -0.4062 -0.2606 -0.8498
 4424TIP3   OH234686   4.546   5.550  15.901  0.3943 -0.0061  0.0735
 4424TIP3    H134687   4.467   5.505  15.871  0.0317  0.5108  0.2299
 4424TIP3    H234688   4.588   5.582  15.821  1.1806 -1.4396 -0.1244
 4425TIP3   OH234689   5.550   2.632  16.445 -0.0048 -0.8024  0.2545
 4425TIP3    H134690   5.536   2.556  16.388  1.3512  1.2482 -3.0497
 4425TIP3    H234691   5.645   2.642  16.450 -0.1204  1.7186 -1.0149
 4426TIP3   OH234692   4.691   5.799   4.224  0.5038 -0.4885  0.1499
 4426TIP3    H134693   4.692   5.733   4.154  1.0860  0.3293 -0.6394
 4426TIP3    H234694   4.683   5.748   4.305  4.4674 -1.8660 -0.1128
 4427TIP3   OH234695   6.790   3.792   3.618 -0.6588 -0.5388 -0.1503
 4427TIP3    H134696   6.832   3.860   3.670 -1.5077 -0.3362  0.2823
 4427TIP3    H234697   6.714   3.766   3.669 -1.4679 -0.3963 -1.2540
 4428TIP3   OH234698   4.621   5.674  13.481  0.0246  0.2657 -0.6791
 4428TIP3    H134699   4.590   5.727  13.408 -1.3705  0.6592  0.1687
 4428TIP3    H234700   4.692   5.726  13.520 -0.2056  0.7263 -0.8691
 4429TIP3   OH234701   1.995   0.824  12.903  0.6146 -0.8174 -0.1318
 4429TIP3    H134702   2.046   0.801  12.825 -0.9783 -0.7535 -1.2419
 4429TIP3    H234703   2.026   0.764  12.970  1.5081 -1.3789 -1.0178
 4430TIP3   OH234704   2.879   4.878  13.768 -0.5555 -0.5183  0.2447
 4430TIP3    H134705   2.927   4.927  13.835 -1.6413 -1.3583  1.6761
 4430TIP3    H234706   2.933   4.801  13.751 -0.3233 -0.3457  0.1775
 4431TIP3   OH234707   1.829   2.298  14.152 -0.1581 -0.0145  0.1804
 4431TIP3    H134708   1.802   2.250  14.074  0.3182 -0.2412  0.1516
 4431TIP3    H234709   1.802   2.243  14.225  2.9599 -1.8175  0.1326
 4432TIP3   OH234710   4.423   0.851   3.000 -0.0420  0.1409 -0.9272
 4432TIP3    H134711   4.456   0.901   3.075 -0.5167  0.4782 -0.9397
 4432TIP3    H234712   4.349   0.903   2.967 -1.0500 -0.9631 -0.4629
 4433TIP3   OH234713   1.582   6.467  16.593  0.3670 -0.4758 -0.0553
 4433TIP3    H134714   1.498   6.441  16.556  0.5398 -1.1082 -0.0059
 4433TIP3    H234715   1.572   6.456  16.687 -0.2984  1.7803  0.1977
 4434TIP3   OH234716   1.398   3.298  11.110  0.3400 -0.3367 -0.5042
 4434TIP3    H134717   1.314   3.343  11.116  0.6717  0.4135 -1.2962
 4434TIP3    H234718   1.446   3.346  11.043  1.9390  0.1563  0.9041
 4435TIP3   OH234719   6.346   2.673   6.113  0.3679  0.0009  0.2651
 4435TIP3    H134720   6.384   2.602   6.166  0.3604 -1.0310 -1.0423
 4435TIP3    H234721   6.302   2.729   6.177  1.8682 -0.1915  1.5405
 4436TIP3   OH234722   2.229   4.796  17.066 -0.1197  0.0978 -0.5044
 4436TIP3    H134723   2.202   4.743  17.141  0.4481  0.9052  0.2828
 4436TIP3    H234724   2.148   4.808  17.015 -0.4742 -0.5927 -0.1140
 4437TIP3   OH234725   3.211   2.283  17.134 -0.1128 -0.6284 -0.5726
 4437TIP3    H134726   3.125   2.273  17.092 -0.0282 -0.6545 -0.7426
 4437TIP3    H234727   3.212   2.374  17.165 -0.7049 -0.9953  0.5758
 4438TIP3   OH234728   4.988   4.776   3.632  1.0732 -0.2647  0.3170
 4438TIP3    H134729   4.908   4.824   3.655  0.7454 -0.1967 -0.9313
 4438TIP3    H234730   5.025   4.825   3.558  2.6676  0.1210  1.3135
 4439TIP3   OH234731   4.199   1.781  12.503 -0.1732  0.1064  0.3252
 4439TIP3    H134732   4.183   1.728  12.425 -0.7530 -0.5015  0.8352
 4439TIP3    H234733   4.153   1.863  12.487  1.6685  0.9385 -0.9516
 4440TIP3   OH234734   3.369   5.108   5.977 -0.1628 -0.3128 -0.2123
 4440TIP3    H134735   3.290   5.054   5.986 -1.3078  1.6043  2.5541
 4440TIP3    H234736   3.342   5.180   5.920  0.4736 -1.0430 -1.4792
 4441TIP3   OH234737   0.773   6.625   5.765  0.2862 -0.1165 -0.1283
 4441TIP3    H134738   0.737   6.674   5.839 -0.8235 -2.6163  1.1175
 4441TIP3    H234739   0.845   6.574   5.803  0.4041 -0.6236 -1.0107
 4442TIP3   OH234740   5.824   2.248   3.164  0.0902  0.4057 -0.0611
 4442TIP3    H134741   5.845   2.207   3.248  0.2131  0.3635 -0.1109
 4442TIP3    H234742   5.898   2.225   3.108 -0.6114 -0.6717 -0.5689
 4443TIP3   OH234743   0.866   6.614   1.441  0.1746  0.4295 -0.0848
 4443TIP3    H134744   0.894   6.535   1.486 -0.4997  0.2551  0.0419
 4443TIP3    H234745   0.931   6.627   1.372 -1.1603 -1.8021 -1.8984
 4444TIP3   OH234746   6.275   6.527  13.771  0.0462 -0.1159 -0.2149
 4444TIP3    H134747   6.358   6.500  13.811 -0.1663 -0.6760 -0.1497
 4444TIP3    H234748   6.276   6.487  13.684  0.4513  0.9984 -0.7399
 4445TIP3   OH234749   4.791   2.673  11.348  0.6303 -0.2279  0.2416
 4445TIP3    H134750   4.816   2.765  11.349 -2.7866  0.8180  1.0346
 4445TIP3    H234751   4.745   2.661  11.265 -0.2277 -0.8086  0.7886
 4446TIP3   OH234752   6.020   0.687   6.205 -0.1556  0.0801 -0.0371
 4446TIP3    H134753   6.002   0.736   6.285 -1.4232  1.0108 -0.8523
 4446TIP3    H234754   6.098   0.730   6.168  0.4839 -0.4082  0.7228
 4447TIP3   OH234755   6.242   3.873  13.009  0.2944  0.6622  0.2279
 4447TIP3    H134756   6.335   3.876  13.034  0.6279  1.3118 -1.0108
 4447TIP3    H234757   6.196   3.852  13.090  1.4647  1.0338  1.0096
 4448TIP3   OH234758   3.918   0.759   2.862 -0.6116 -0.4867 -0.7393
 4448TIP3    H134759   3.916   0.853   2.880  0.8013 -0.3202 -1.2769
 4448TIP3    H234760   3.934   0.719   2.948 -0.0335 -0.1400 -0.6759
 4449TIP3   OH234761   5.262   5.871   0.042  0.2379 -0.3151 -0.0397
 4449TIP3    H134762   5.339   5.927   0.034  0.1259 -0.3243 -1.6248
 4449TIP3    H234763   5.280   5.797  -0.016 -0.4133 -0.9870  0.5849
 4450TIP3   OH234764   5.133   4.427   1.101  0.1945 -0.1003  0.2741
 4450TIP3    H134765   5.163   4.501   1.048 -0.5423 -0.2794 -0.4144
 4450TIP3    H234766   5.049   4.403   1.062  0.6127 -1.5585  0.2432
 4451TIP3   OH234767   4.596   0.063  11.791 -0.2809 -0.2486 -0.0384
 4451TIP3    H134768   4.534   0.065  11.864  1.0165 -1.7446  1.1512
 4451TIP3    H234769   4.655   0.137  11.807  1.0809 -1.5969  1.4729
 4452TIP3   OH234770   4.660   0.259   5.795  0.3130 -0.1787 -0.0921
 4452TIP3    H134771   4.682   0.345   5.830 -0.7710 -0.4795  1.4158
 4452TIP3    H234772   4.713   0.198   5.847  0.6522 -0.4850 -0.7710
 4453TIP3   OH234773   2.298   3.569   1.172 -0.0677  0.1845 -0.4218
 4453TIP3    H134774   2.352   3.648   1.175  0.0009  0.1179  0.4587
 4453TIP3    H234775   2.291   3.541   1.264  0.5993 -1.3096 -0.7942
 4454TIP3   OH234776   5.137   0.113   1.397  0.2308  0.3358  0.0203
 4454TIP3    H134777   5.127   0.132   1.490  1.4109 -2.7123  0.9015
 4454TIP3    H234778   5.051   0.080   1.370 -0.0318  0.9489  0.1096
 4455TIP3   OH234779   5.452   1.437  16.316  0.2363  0.0647  0.0939
 4455TIP3    H134780   5.523   1.381  16.349  0.4974 -0.3480 -1.1289
 4455TIP3    H234781   5.405   1.464  16.395  0.4936 -1.3594  0.7701
 4456TIP3   OH234782   3.402   6.482  16.610  0.2388 -0.3078  0.1030
 4456TIP3    H134783   3.471   6.423  16.578  0.4023 -1.3081  2.1513
 4456TIP3    H234784   3.353   6.430  16.673 -2.8476  0.1834 -1.6854
 4457TIP3   OH234785   2.183   1.328   5.218 -0.1954 -0.9592  0.3500
 4457TIP3    H134786   2.170   1.234   5.222 -0.7766 -0.9106 -0.2034
 4457TIP3    H234787   2.125   1.364   5.285  0.0611 -0.9950  0.5930
 4458TIP3   OH234788   4.686   4.282  13.405 -0.1883 -0.0553  0.0280
 4458TIP3    H134789   4.673   4.300  13.312  0.0442  1.2388  0.2234
 4458TIP3    H234790   4.768   4.232  13.409  0.1854  0.5067 -0.4181
 4459TIP3   OH234791   6.140   1.775  10.847 -0.0534 -0.1061  0.0679
 4459TIP3    H134792   6.093   1.858  10.846  1.5277  0.8370  0.3225
 4459TIP3    H234793   6.103   1.726  10.773 -0.4090  1.1849 -0.6539
 4460TIP3   OH234794   4.949   5.516   0.680 -0.1697 -0.0233  0.2379
 4460TIP3    H134795   5.027   5.500   0.732  0.9024  0.9577 -0.9695
 4460TIP3    H234796   4.922   5.604   0.705  0.4021  0.4897 -0.8421
 4461TIP3   OH234797   4.272   1.007  13.387  0.0132 -0.4443  0.7933
 4461TIP3    H134798   4.178   0.990  13.386 -0.1218  0.1443 -0.8596
 4461TIP3    H234799   4.279   1.101  13.374  0.8113 -0.7935 -1.8799
 4462TIP3   OH234800   3.803   6.634  10.880  0.4832 -0.2926 -0.2411
 4462TIP3    H134801   3.847   6.715  10.904  1.6192 -0.3582 -1.9077
 4462TIP3    H234802   3.727   6.662  10.828  0.1058 -0.2600  0.3260
 4463TIP3   OH234803   1.406   5.781   4.370 -0.0444 -0.8341  0.2482
 4463TIP3    H134804   1.350   5.844   4.324  0.7655 -0.1271  0.2084
 4463TIP3    H234805   1.381   5.790   4.462 -2.0494 -2.6357 -0.0394
 4464TIP3   OH234806   3.648   2.262  16.880  0.3436 -0.0718 -0.4116
 4464TIP3    H134807   3.674   2.177  16.844 -0.5363 -0.1428 -0.8931
 4464TIP3    H234808   3.719   2.321  16.855  1.6198 -0.9015  1.0419
 4465TIP3   OH234809   4.396   2.079  15.127  0.0631  0.3148  0.2583
 4465TIP3    H134810   4.482   2.039  15.117 -0.6282 -1.3441  0.5062
 4465TIP3    H234811   4.379   2.075  15.221 -0.5504 -0.0119  0.1424
 4466TIP3   OH234812   5.039   3.866  15.392 -0.1543  0.2859  0.2685
 4466TIP3    H134813   5.098   3.911  15.452 -0.1517  1.3134 -0.4716
 4466TIP3    H234814   5.059   3.903  15.306 -0.7220 -0.5620 -0.2509
 4467TIP3   OH234815   6.487   2.642   1.940 -0.5247  0.5097 -0.4287
 4467TIP3    H134816   6.509   2.612   1.852 -1.2066 -0.8435 -0.1600
 4467TIP3    H234817   6.489   2.563   1.994 -0.9859  1.1772  0.5992
 4468TIP3   OH234818   0.408   3.807  13.924  0.1957 -0.2578 -0.0792
 4468TIP3    H134819   0.343   3.742  13.948  0.6969 -0.8535 -0.3046
 4468TIP3    H234820   0.471   3.759  13.870 -0.3824  0.8157 -1.7854
 4469TIP3   OH234821   4.564   1.073  10.493  0.5535 -0.0313  0.3035
 4469TIP3    H134822   4.585   0.994  10.444  1.0840  0.9115 -1.0608
 4469TIP3    H234823   4.473   1.093  10.470  1.7234  2.2509 -3.1681
 4470TIP3   OH234824   2.103   5.344   5.192 -0.1247 -0.2579  0.1563
 4470TIP3    H134825   2.174   5.324   5.131  1.3855  2.7403  0.7592
 4470TIP3    H234826   2.049   5.408   5.145 -1.4276 -1.1167  0.4192
 4471TIP3   OH234827   0.348   0.165   5.147 -0.2067  1.4385 -0.3967
 4471TIP3    H134828   0.370   0.258   5.143  0.2365  1.3547 -0.0221
 4471TIP3    H234829   0.252   0.164   5.146 -0.3003  2.0434  1.7342
 4472TIP3   OH234830   4.753   5.058   0.058  0.3916 -0.0335  0.1331
 4472TIP3    H134831   4.714   4.986   0.009 -1.0216  0.6432  0.2208
 4472TIP3    H234832   4.722   5.046   0.148  0.9677  0.1180  0.3564
 4473TIP3   OH234833   6.035   5.257   6.124  0.7673 -0.0452  0.5498
 4473TIP3    H134834   6.117   5.256   6.075  0.0764 -0.4227 -0.6514
 4473TIP3    H234835   5.981   5.321   6.078  0.4424  0.3478  1.4455
 4474TIP3   OH234836   0.318   3.584  11.092 -0.3358  0.1948  0.2053
 4474TIP3    H134837   0.254   3.564  11.160  0.3393 -0.7357  0.5847
 4474TIP3    H234838   0.402   3.556  11.128  0.2715  1.1889 -0.3696
 4475TIP3   OH234839   6.749   0.169  15.010 -0.1464 -0.1718  0.0708
 4475TIP3    H134840   6.841   0.160  15.036  0.2081  1.2892 -0.5489
 4475TIP3    H234841   6.701   0.178  15.092  0.3700 -0.2005  0.3764
 4476TIP3   OH234842   2.244   1.262  11.738 -0.3929  0.2176  0.1438
 4476TIP3    H134843   2.195   1.343  11.723  0.1415  0.7724  1.2691
 4476TIP3    H234844   2.179   1.192  11.728 -1.0598  0.8377  0.0797
 4477TIP3   OH234845   5.250   3.376   0.945 -0.9497 -0.7385  0.7686
 4477TIP3    H134846   5.313   3.387   1.017 -1.5926  0.1172  1.2300
 4477TIP3    H234847   5.252   3.460   0.900  1.9103 -2.2507 -2.3576
 4478TIP3   OH234848   2.029   5.204   1.855 -0.1318  0.1683  0.3256
 4478TIP3    H134849   1.958   5.242   1.907 -0.0146  2.0175 -0.7755
 4478TIP3    H234850   1.991   5.190   1.768  0.3304 -0.6505  0.2411
 4479TIP3   OH234851   3.024   4.708  12.599  0.8894  0.3374 -0.2764
 4479TIP3    H134852   2.997   4.625  12.639  2.5240 -0.0011  0.1991
 4479TIP3    H234853   2.964   4.773  12.635 -0.9063 -0.7047 -1.2126
 4480TIP3   OH234854   3.253   2.241   2.429 -0.0023 -0.4023  0.4820
 4480TIP3    H134855   3.348   2.243   2.431 -0.0153  1.3519  0.9064
 4480TIP3    H234856   3.231   2.194   2.348  1.2474  1.0608 -0.7639
 4481TIP3   OH234857   2.363   1.269  11.404 -0.2914 -0.1490 -0.0559
 4481TIP3    H134858   2.456   1.249  11.412 -0.4683 -0.7099  0.7327
 4481TIP3    H234859   2.319   1.197  11.449 -1.1256 -0.0665 -0.7115
 4482TIP3   OH234860   0.201   6.085  16.752  0.2354 -0.4454  0.1870
 4482TIP3    H134861   0.218   6.171  16.789 -0.8152 -0.2680  0.2847
 4482TIP3    H234862   0.149   6.039  16.818 -0.6906 -0.5273 -0.5759
 4483TIP3   OH234863   2.918   2.200   5.285  0.3769  0.2920 -0.4972
 4483TIP3    H134864   2.953   2.240   5.204 -3.1518 -2.0657 -3.5148
 4483TIP3    H234865   2.945   2.108   5.280  0.6065  0.2225  1.4041
 4484TIP3   OH234866   1.249   3.615   0.346 -1.1355  0.4948  0.4534
 4484TIP3    H134867   1.255   3.532   0.393 -1.0931 -0.6260 -1.4409
 4484TIP3    H234868   1.155   3.634   0.343 -1.2198  0.0518  0.1546
 4485TIP3   OH234869   6.225   2.090  10.828 -0.1150 -0.9233  0.3239
 4485TIP3    H134870   6.235   2.124  10.917 -0.5635 -0.4022  0.1790
 4485TIP3    H234871   6.131   2.075  10.818  0.0543 -2.1221  0.3420
 4486TIP3   OH234872   3.974   1.974  11.551  0.7575  0.1316 -0.0961
 4486TIP3    H134873   3.915   1.992  11.625 -1.2727  0.7835 -1.7627
 4486TIP3    H234874   4.007   2.060  11.525 -0.5723  0.2619 -1.4837
 4487TIP3   OH234875   1.485   4.759  12.842 -0.4188  0.0246  0.1929
 4487TIP3    H134876   1.509   4.746  12.933 -1.9010 -1.1733  0.4618
 4487TIP3    H234877   1.560   4.726  12.792 -0.7665 -2.1931  0.9960
 4488TIP3   OH234878   6.420   6.405  14.073  0.2181 -0.8084  0.1737
 4488TIP3    H134879   6.331   6.388  14.043 -0.6910  0.5962  1.8822
 4488TIP3    H234880   6.457   6.463  14.006 -0.1065 -1.4542 -0.5840
 4489TIP3   OH234881   1.056   0.048  16.848 -0.1132 -0.4371  0.1429
 4489TIP3    H134882   1.010  -0.003  16.915 -0.6934 -0.6315 -0.3970
 4489TIP3    H234883   0.987   0.093  16.801  0.4357  1.5243  1.1338
 4490TIP3   OH234884   6.311   2.200  15.868 -0.5161 -0.6215 -0.0173
 4490TIP3    H134885   6.381   2.166  15.812 -0.7014  0.6021 -1.0338
 4490TIP3    H234886   6.309   2.294  15.850 -2.1936 -0.5792  0.2504
 4491TIP3   OH234887   5.199   4.515   2.499  0.1004  0.2687 -0.0861
 4491TIP3    H134888   5.175   4.586   2.439  1.3601 -0.4662 -1.5033
 4491TIP3    H234889   5.123   4.456   2.498 -0.1117  0.5433 -0.5008
 4492TIP3   OH234890   3.513   3.178   4.488 -0.1958 -0.3729 -0.3651
 4492TIP3    H134891   3.570   3.111   4.527 -1.9083 -0.9240  1.3877
 4492TIP3    H234892   3.548   3.261   4.520  0.1331 -0.6508  0.0113
 4493TIP3   OH234893   5.600   2.800   5.599 -0.0087  0.1162 -0.0895
 4493TIP3    H134894   5.564   2.718   5.632 -0.1797 -0.8495 -2.4676
 4493TIP3    H234895   5.524   2.855   5.584  0.0339  0.3904  0.6810
 4494TIP3   OH234896   3.410   2.444  14.897 -0.3930  0.3870 -0.4224
 4494TIP3    H134897   3.326   2.420  14.859  0.0878  0.6793 -1.7394
 4494TIP3    H234898   3.429   2.531  14.861 -0.6442  1.4063  1.7797
 4495TIP3   OH234899   4.709   5.125   4.881 -0.3769  0.3347 -0.6006
 4495TIP3    H134900   4.669   5.204   4.845 -2.0641  0.2942  1.0313
 4495TIP3    H234901   4.685   5.056   4.820 -0.7309  0.7391 -0.9215
 4496TIP3   OH234902   1.158   3.894  12.885 -0.1766 -0.2592 -0.0583
 4496TIP3    H134903   1.162   3.989  12.876 -2.7642 -0.0531  0.1276
 4496TIP3    H234904   1.218   3.861  12.817  1.4963  1.4579  0.4945
 4497TIP3   OH234905   2.171   5.116  12.379 -0.1307 -0.7830  0.1052
 4497TIP3    H134906   2.195   5.192  12.433 -2.1490  0.7615 -1.0214
 4497TIP3    H234907   2.252   5.089  12.337  0.6490  0.7536  0.5540
 4498TIP3   OH234908   0.054   0.779   3.838  0.0587  0.0758  0.1650
 4498TIP3    H134909   0.121   0.787   3.770 -0.2204 -1.2964 -0.2899
 4498TIP3    H234910  -0.027   0.809   3.797  0.2752  1.2614  0.5635
 4499TIP3   OH234911   1.598   3.178  16.242 -0.0940 -0.4299  0.0607
 4499TIP3    H134912   1.584   3.220  16.157  0.6413  1.5468  0.8561
 4499TIP3    H234913   1.575   3.086  16.227 -3.3508  0.4821 -1.3718
 4500TIP3   OH234914   2.179   1.145  16.542  0.1685 -0.3859  0.3130
 4500TIP3    H134915   2.176   1.105  16.455  1.8500 -0.5893  0.3145
 4500TIP3    H234916   2.272   1.148  16.564  0.0995  2.6687  0.7182
 4501TIP3   OH234917   4.226   4.022  12.328 -0.4620  0.5337 -0.5640
 4501TIP3    H134918   4.204   3.940  12.284  0.5590  0.1946 -0.4625
 4501TIP3    H234919   4.317   4.038  12.306  0.1891  0.1920  1.6389
 4502TIP3   OH234920   2.048   2.954  11.368 -0.1505  0.2919  0.3737
 4502TIP3    H134921   1.953   2.940  11.370  0.0079 -0.8848  0.1465
 4502TIP3    H234922   2.084   2.881  11.418  0.5297  2.0217  2.5410
 4503TIP3   OH234923   1.537   2.778  14.035 -0.2309 -0.0443 -0.3944
 4503TIP3    H134924   1.532   2.815  13.947 -0.4300  0.9876  0.0311
 4503TIP3    H234925   1.446   2.772  14.064 -0.1038  1.0603  0.2995
 4504TIP3   OH234926   6.221   5.210  11.282  0.2571  0.1356 -0.3983
 4504TIP3    H134927   6.166   5.157  11.224 -0.2170  1.4574 -1.1879
 4504TIP3    H234928   6.235   5.292  11.235  1.5173  0.4840  0.5237
 4505TIP3   OH234929   2.846   1.574  14.218  0.2288  0.0333  0.4230
 4505TIP3    H134930   2.886   1.597  14.134  0.4679 -0.2954  0.4458
 4505TIP3    H234931   2.754   1.598  14.208  0.1569 -0.4477 -0.1010
 4506TIP3   OH234932   2.599   0.559  14.070  0.2312  0.2805  0.4057
 4506TIP3    H134933   2.586   0.490  14.134 -0.7960  1.0986  1.1063
 4506TIP3    H234934   2.680   0.535  14.025  0.2791 -0.9801  1.1223
 4507TIP3   OH234935   0.586   1.038  16.361 -0.2442 -0.2682  0.0763
 4507TIP3    H134936   0.627   0.960  16.400  0.8425  1.1340  1.9429
 4507TIP3    H234937   0.511   1.056  16.418  0.5128  0.9863  0.7149
 4508TIP3   OH234938   2.021   4.214   4.793  0.2094 -0.1658  0.5278
 4508TIP3    H134939   1.988   4.233   4.705  3.0775  0.4673 -0.5244
 4508TIP3    H234940   2.041   4.300   4.830  1.5023 -0.5475  0.7467
 4509TIP3   OH234941   2.300   1.144  13.934  0.1643  0.5261  0.8348
 4509TIP3    H134942   2.261   1.084  13.871  0.5416  0.3014  0.8141
 4509TIP3    H234943   2.268   1.231  13.907  2.2815  0.7653 -1.2329
 4510TIP3   OH234944   2.916   4.518  12.764  0.4750  0.1923  0.5027
 4510TIP3    H134945   2.879   4.477  12.842 -0.8618 -0.5298 -0.4811
 4510TIP3    H234946   2.937   4.445  12.706 -2.0816  0.7742 -1.3362
 4511TIP3   OH234947   0.110   2.772  17.129 -0.6859  0.0993  0.6485
 4511TIP3    H134948   0.023   2.749  17.097 -0.4066  0.2651 -0.2505
 4511TIP3    H234949   0.128   2.858  17.092  0.4950 -0.6020 -0.4998
 4512TIP3   OH234950   0.955   2.005  13.120 -0.2885 -0.8020  0.3144
 4512TIP3    H134951   1.037   2.047  13.095 -0.5236  0.2603  1.2557
 4512TIP3    H234952   0.970   1.912  13.104  0.6265 -0.4881 -0.7648
 4513TIP3   OH234953   0.129   1.668  12.143 -0.7757 -0.2651  0.2595
 4513TIP3    H134954   0.049   1.720  12.138 -0.1011  0.8509  0.6558
 4513TIP3    H234955   0.106   1.595  12.200 -1.0933  0.8985  1.7085
 4514TIP3   OH234956   3.029   5.775   0.222 -0.2726 -0.0236  0.9428
 4514TIP3    H134957   2.997   5.688   0.245  1.5583 -0.5485  1.6859
 4514TIP3    H234958   3.064   5.765   0.133  0.3425 -0.1745  1.1974
 4515TIP3   OH234959   3.749   1.476   1.561 -0.0048 -0.1675  0.0750
 4515TIP3    H134960   3.756   1.571   1.568  1.2212 -0.1699 -0.9163
 4515TIP3    H234961   3.736   1.447   1.651  1.9826  0.7707  0.7244
 4516TIP3   OH234962   2.608   3.294  11.118 -0.2256  0.1177 -0.4682
 4516TIP3    H134963   2.533   3.236  11.133  1.0020 -0.9792  2.1313
 4516TIP3    H234964   2.684   3.238  11.134  1.1359  1.5174 -1.8017
 4517TIP3   OH234965   5.135   5.530   5.597  0.4628 -0.8543  0.0805
 4517TIP3    H134966   5.072   5.470   5.558  0.0652 -1.7798  2.0411
 4517TIP3    H234967   5.199   5.546   5.528 -0.8088 -1.5056 -1.2911
 4518TIP3   OH234968   1.784   0.130  17.056  0.3374  0.2922  0.2682
 4518TIP3    H134969   1.719   0.162  16.993  1.3997  0.1596 -0.9480
 4518TIP3    H234970   1.772   0.035  17.056  1.9650  0.0256 -1.6910
 4519TIP3   OH234971   6.126   2.233  11.382  0.2395 -0.5282  0.1750
 4519TIP3    H134972   6.215   2.200  11.394  0.2688 -0.9679 -1.1477
 4519TIP3    H234973   6.136   2.327  11.370  0.6333 -0.7177 -1.0338
 4520TIP3   OH234974   5.111   2.367  13.053 -0.2245  0.2807 -0.6785
 4520TIP3    H134975   5.080   2.451  13.020 -0.4272  0.1713 -0.7614
 4520TIP3    H234976   5.206   2.372  13.045 -0.2783  0.2000 -1.4060
 4521TIP3   OH234977   5.285   0.705   3.350  0.0573 -0.6204  0.1498
 4521TIP3    H134978   5.373   0.721   3.383  1.4939 -2.1304 -2.5705
 4521TIP3    H234979   5.252   0.633   3.403  0.9827 -0.8846  0.3889
 4522TIP3   OH234980   3.610   0.472   1.525  0.3135 -0.5214  0.6743
 4522TIP3    H134981   3.518   0.470   1.500  0.6817 -1.6156 -0.7028
 4522TIP3    H234982   3.640   0.560   1.501  0.0827 -0.7901 -0.6735
 4523TIP3   OH234983   3.365   3.514  13.110  0.0956 -0.0091  0.0005
 4523TIP3    H134984   3.274   3.527  13.084 -0.0576  0.1334  0.5903
 4523TIP3    H234985   3.373   3.560  13.193  0.3381 -1.1765  0.6445
 4524TIP3   OH234986   1.146   1.054   3.212  0.1343 -0.2834  0.0992
 4524TIP3    H134987   1.228   1.099   3.192 -0.6427  1.3254  0.3453
 4524TIP3    H234988   1.166   1.002   3.290  1.3583 -1.2792 -0.8354
 4525TIP3   OH234989   5.082   6.340   3.852 -0.3694 -0.2177 -0.6475
 4525TIP3    H134990   5.074   6.402   3.926  2.3013 -0.0073 -0.4352
 4525TIP3    H234991   5.036   6.383   3.781  0.2006  1.4148 -0.1014
 4526TIP3   OH234992   5.364   2.478   0.694  0.8305 -0.1096 -0.3101
 4526TIP3    H134993   5.301   2.427   0.643  0.3857  2.1961 -2.2189
 4526TIP3    H234994   5.346   2.455   0.785 -1.9641 -0.3993 -0.8582
 4527TIP3   OH234995   2.624   3.744  14.533 -0.2117  0.9067  0.0581
 4527TIP3    H134996   2.634   3.690  14.611 -1.4339  1.6072  0.7411
 4527TIP3    H234997   2.621   3.682  14.460 -1.0551  0.0928  0.7654
 4528TIP3   OH234998   3.209   1.561  13.153  0.0912 -0.3264 -0.5724
 4528TIP3    H134999   3.159   1.642  13.138 -0.2818 -0.5092 -0.3282
 4528TIP3    H235000   3.261   1.578  13.231  0.5027 -0.0969 -0.8882
 4529TIP3   OH235001   1.605   5.297  13.407  0.3218  0.4462  0.1673
 4529TIP3    H135002   1.562   5.231  13.462 -0.7808  0.3159 -0.8017
 4529TIP3    H235003   1.641   5.248  13.334  0.6766  0.7610  0.1295
 4530TIP3   OH235004   3.867   0.402  13.774 -0.4077 -0.2747  0.2694
 4530TIP3    H135005   3.821   0.414  13.857 -2.1535  0.1706 -0.7152
 4530TIP3    H235006   3.926   0.328  13.789 -0.9441 -0.4213  1.7834
 4531TIP3   OH235007   2.504   3.470   2.225 -0.1806 -0.0070 -0.3742
 4531TIP3    H135008   2.572   3.534   2.204  0.2362 -0.6027 -0.8784
 4531TIP3    H235009   2.427   3.523   2.247  0.5290  0.6846  0.5361
 4532TIP3   OH235010   5.921   4.687  16.315  0.3728  0.1759  0.0849
 4532TIP3    H135011   5.912   4.775  16.279 -0.1201  0.4168  0.7735
 4532TIP3    H235012   5.916   4.699  16.410  2.4378 -0.3540  0.2972
 4533TIP3   OH235013   1.723   2.223  10.883 -0.4756 -0.1091 -0.0705
 4533TIP3    H135014   1.739   2.261  10.796 -0.5583 -2.9981 -1.4965
 4533TIP3    H235015   1.782   2.269  10.941  0.6349  0.9721 -1.9443
 4534TIP3   OH235016   2.771   1.530  17.165 -0.0277  0.0061 -0.1503
 4534TIP3    H135017   2.743   1.610  17.121  0.8034 -0.0039 -0.7097
 4534TIP3    H235018   2.867   1.534  17.165  0.0247 -0.9028 -0.0217
 4535TIP3   OH235019   0.537   1.771  14.250  0.7685 -0.3098  0.1971
 4535TIP3    H135020   0.623   1.781  14.209  1.1851  0.6168  1.2641
 4535TIP3    H235021   0.535   1.839  14.318 -0.2602 -1.2257  1.1038
 4536TIP3   OH235022   5.858   3.329  13.971  0.1685  0.1539  0.0681
 4536TIP3    H135023   5.862   3.303  13.879  0.4672  3.7584 -1.0971
 4536TIP3    H235024   5.948   3.323  14.002  0.2357 -0.1031 -0.1770
 4537TIP3   OH235025   5.458   3.712  13.496 -0.2881 -0.0973  0.5460
 4537TIP3    H135026   5.384   3.724  13.556 -0.9342  1.0659 -0.4231
 4537TIP3    H235027   5.512   3.644  13.536 -1.9045 -0.9996  1.2611
 4538TIP3   OH235028   4.060   1.167   2.911 -0.1281  0.2201  0.4362
 4538TIP3    H135029   3.972   1.140   2.885 -0.4154  1.1231  0.4422
 4538TIP3    H235030   4.110   1.086   2.912 -0.4267 -0.0358 -1.6205
 4539TIP3   OH235031   5.714   4.956  15.810  0.4678  0.9702 -0.0986
 4539TIP3    H135032   5.773   4.881  15.813 -0.1250  0.4898 -0.2258
 4539TIP3    H235033   5.702   4.982  15.901  1.4010  1.4998 -0.1155
 4540TIP3   OH235034   1.584   5.536   4.418  0.3057 -0.0178 -0.3090
 4540TIP3    H135035   1.568   5.472   4.349  0.7442 -0.8107  0.3133
 4540TIP3    H235036   1.509   5.596   4.412 -0.3434 -0.8316 -0.6295
 4541TIP3   OH235037   4.474   1.438   0.197  0.2080 -0.3026  0.5169
 4541TIP3    H135038   4.431   1.523   0.195  1.1573  0.2303  1.6040
 4541TIP3    H235039   4.416   1.380   0.147 -0.5892  0.9046  0.0017
 4542TIP3   OH235040   1.468   1.579   1.432  0.5238 -0.5303 -0.5256
 4542TIP3    H135041   1.430   1.592   1.345  0.7290 -0.4309 -0.5997
 4542TIP3    H235042   1.459   1.664   1.475  0.4046 -0.5846 -0.4404
 4543TIP3   OH235043   3.272   1.097  13.919 -0.0964  0.3444  0.4432
 4543TIP3    H135044   3.284   1.110  14.013 -1.4347  1.7102  0.4595
 4543TIP3    H235045   3.178   1.086  13.908  0.0428  0.1909 -0.7348
 4544TIP3   OH235046   3.784   2.548   6.068  0.1020  0.2524 -0.2127
 4544TIP3    H135047   3.799   2.460   6.102  2.8222  0.4827 -0.6090
 4544TIP3    H235048   3.871   2.583   6.051 -0.9419  1.8258 -3.1357
 4545TIP3   OH235049   0.566   3.621   3.410 -0.2449 -0.3975  0.0393
 4545TIP3    H135050   0.600   3.535   3.388 -0.1750 -0.0642 -1.2217
 4545TIP3    H235051   0.472   3.616   3.390 -0.4948 -0.5708  1.2003
 4546TIP3   OH235052   1.679   5.708  11.535  0.0175 -0.6108 -0.0070
 4546TIP3    H135053   1.671   5.663  11.618 -0.6159  1.7171  1.2718
 4546TIP3    H235054   1.752   5.769  11.547 -0.1838 -0.1159 -1.0915
 4547TIP3   OH235055   6.437   4.021  13.911 -0.1690  0.1247  0.0247
 4547TIP3    H135056   6.433   3.927  13.930 -1.0458  0.2602  0.5513
 4547TIP3    H235057   6.528   4.036  13.886  0.7901 -0.3200  2.8588
 4548TIP3   OH235058   3.510   2.925  16.828 -0.2121 -0.1544 -0.6277
 4548TIP3    H135059   3.463   2.962  16.902  1.0301  2.0239 -0.8497
 4548TIP3    H235060   3.593   2.973  16.826  0.5862 -1.5018 -2.2846
 4549TIP3   OH235061   5.988   0.271  12.278  0.1254  0.3470 -0.1363
 4549TIP3    H135062   5.970   0.350  12.225 -2.0686  1.1286  1.6201
 4549TIP3    H235063   5.915   0.213  12.260  1.3115 -1.0146 -0.7807
 4550TIP3   OH235064   4.176   1.880   4.863  0.3042  0.3115  0.0232
 4550TIP3    H135065   4.215   1.885   4.775  1.1949 -2.0497  0.2185
 4550TIP3    H235066   4.202   1.962   4.905  1.5614  0.6177 -1.2631
 4551TIP3   OH235067   2.629   1.251   6.276  0.1637  0.3125 -0.3749
 4551TIP3    H135068   2.717   1.236   6.310  0.8927  0.7594 -1.9532
 4551TIP3    H235069   2.637   1.332   6.224 -1.5236  1.1570  0.5990
 4552TIP3   OH235070   4.288   1.486  16.450  0.0248  0.0598  0.1961
 4552TIP3    H135071   4.365   1.454  16.498  0.9906  0.6094 -0.9323
 4552TIP3    H235072   4.214   1.462  16.506  0.9638 -0.9555  1.0741
 4553TIP3   OH235073   5.221   5.982  14.704 -0.0733 -0.4702  0.0428
 4553TIP3    H135074   5.192   6.047  14.640 -0.2661 -1.2768 -0.7106
 4553TIP3    H235075   5.185   6.013  14.788 -0.9880 -0.1156 -0.4614
 4554TIP3   OH235076   2.467   1.445   1.869  0.0011 -0.1681  0.5608
 4554TIP3    H135077   2.394   1.441   1.807  0.3525  0.3402  0.1147
 4554TIP3    H235078   2.506   1.358   1.865  0.2738 -0.0177 -0.2365
 4555TIP3   OH235079   4.059   3.716   0.401  0.1961 -0.2979 -0.1659
 4555TIP3    H135080   4.119   3.791   0.392 -0.9688  0.7346  0.3800
 4555TIP3    H235081   3.983   3.741   0.349 -0.6418 -0.6379  0.8775
 4556TIP3   OH235082   6.324   0.836  12.756 -0.2992  0.0833  0.2787
 4556TIP3    H135083   6.415   0.841  12.728  0.3577  2.7311  2.3938
 4556TIP3    H235084   6.290   0.925  12.740 -2.2824 -0.6330  0.2785
 4557TIP3   OH235085   0.910   2.333   3.103  0.7157 -0.2739 -1.1749
 4557TIP3    H135086   0.854   2.260   3.131  0.8692 -0.4501 -1.3248
 4557TIP3    H235087   0.984   2.330   3.165  1.0225 -0.6222 -1.5456
 4558TIP3   OH235088   0.973   5.278  14.607  0.2479 -0.4223  0.0058
 4558TIP3    H135089   1.020   5.195  14.605 -0.9468 -1.1562  1.1666
 4558TIP3    H235090   1.034   5.339  14.648  0.3595 -1.2662  1.1372
 4559TIP3   OH235091   6.571   2.263  11.283 -0.0971 -0.0524 -0.2661
 4559TIP3    H135092   6.537   2.176  11.265 -1.4796  0.6169 -1.1451
 4559TIP3    H235093   6.615   2.289  11.202 -0.0177  0.1912 -0.1471
 4560TIP3   OH235094   2.079   0.847  14.428  0.8851 -0.5737 -0.0735
 4560TIP3    H135095   2.002   0.850  14.371 -0.7285 -2.6355  1.8112
 4560TIP3    H235096   2.106   0.756  14.427  1.4999 -0.4369  1.5458
 4561TIP3   OH235097   2.953   2.444   2.170 -0.2056 -0.7823  0.1828
 4561TIP3    H135098   2.904   2.418   2.249 -0.8911  0.2187  0.1148
 4561TIP3    H235099   3.037   2.476   2.204  0.3378 -2.2833  0.3224
 4562TIP3   OH235100   5.684   1.685  12.538  0.3513 -0.3550 -0.0818
 4562TIP3    H135101   5.704   1.774  12.565  1.2057 -0.5368 -0.1101
 4562TIP3    H235102   5.736   1.670  12.459  1.3592 -1.3595  0.7306
 4563TIP3   OH235103   5.096   3.355  12.341 -0.1801 -0.5090  0.0915
 4563TIP3    H135104   5.132   3.368  12.253 -1.3786 -0.5192 -0.4316
 4563TIP3    H235105   5.142   3.278  12.375  0.1681 -0.6233 -0.6127
 4564TIP3   OH235106   5.399   1.487  11.148  0.3428  0.7706  0.6348
 4564TIP3    H135107   5.342   1.429  11.097  0.4852  0.1735  1.1426
 4564TIP3    H235108   5.389   1.457  11.239  2.9657 -0.6838  0.5358
 4565TIP3   OH235109   5.331   1.756   3.972 -0.3177 -0.9306  0.0663
 4565TIP3    H135110   5.419   1.739   4.006 -0.5517 -1.0704  0.6128
 4565TIP3    H235111   5.308   1.675   3.926 -1.1542 -1.9181  2.0814
 4566TIP3   OH235112   5.525   3.458  15.303 -0.2817 -0.3178  0.2925
 4566TIP3    H135113   5.447   3.409  15.331  0.5444 -2.3699 -0.8201
 4566TIP3    H235114   5.590   3.391  15.283  0.2089  1.0773 -3.5173
 4567TIP3   OH235115   4.425   3.930  12.731  0.1407  0.2229  0.2179
 4567TIP3    H135116   4.346   3.952  12.681  0.4003 -0.8238 -0.6887
 4567TIP3    H235117   4.394   3.920  12.821 -0.3210  2.2604  0.3503
 4568TIP3   OH235118   1.399   3.122   4.975 -0.0495  0.6661 -0.5320
 4568TIP3    H135119   1.413   3.182   5.048 -0.6757  1.2030 -0.8461
 4568TIP3    H235120   1.387   3.036   5.017  0.2423  0.8537 -0.0496
 4569TIP3   OH235121   5.720   1.074  15.804  0.1978  0.3138 -0.2154
 4569TIP3    H135122   5.675   1.077  15.889 -0.8324  0.9670 -0.7746
 4569TIP3    H235123   5.785   1.144  15.809  0.4761  0.0321  0.2115
 4570TIP3   OH235124   4.682   5.061  16.409  0.3556 -1.0637 -0.0371
 4570TIP3    H135125   4.606   5.113  16.382  0.6760  0.1740  1.3239
 4570TIP3    H235126   4.683   5.067  16.504  1.3852 -2.1984  0.0476
 4571TIP3   OH235127   0.194   5.784   2.657 -0.0873 -0.1978 -0.5979
 4571TIP3    H135128   0.270   5.727   2.669  0.3452 -0.0139 -2.2168
 4571TIP3    H235129   0.118   5.726   2.665  0.3239 -0.9004 -1.6355
 4572TIP3   OH235130   5.412   4.444   5.678 -0.0138 -0.4324  0.0595
 4572TIP3    H135131   5.504   4.441   5.650 -0.4927 -0.5460 -1.6165
 4572TIP3    H235132   5.399   4.534   5.707  0.4768 -0.2535 -0.2548
 4573TIP3   OH235133   4.896   4.184   0.658 -0.5938  0.0846 -0.1800
 4573TIP3    H135134   4.871   4.126   0.586  0.8821  1.5413 -1.9689
 4573TIP3    H235135   4.969   4.140   0.700 -0.9455 -0.4080 -0.0849
 4574TIP3   OH235136   2.017   0.090  15.678 -0.4904 -0.5837 -0.1700
 4574TIP3    H135137   2.087   0.036  15.639 -1.9935 -2.2072 -0.7289
 4574TIP3    H235138   2.063   0.167  15.712  1.5444 -1.4844 -0.7132
 4575TIP3   OH235139   6.360   1.540   4.619  0.1964 -0.1988 -0.7478
 4575TIP3    H135140   6.319   1.587   4.691  0.5111  0.6164 -1.0908
 4575TIP3    H235141   6.349   1.448   4.642 -1.5098 -0.0017 -0.6719
 4576TIP3   OH235142   4.583   3.943   5.711  0.2389 -0.0646  0.1746
 4576TIP3    H135143   4.605   4.028   5.673  2.1579 -1.1128 -1.2282
 4576TIP3    H235144   4.603   3.953   5.805  2.6158  0.4238 -0.3115
 4577TIP3   OH235145   2.950   0.161  15.334  0.1001 -0.1453  1.0233
 4577TIP3    H135146   2.905   0.117  15.406  0.8165  0.1248  1.6552
 4577TIP3    H235147   2.884   0.172  15.267 -0.4139 -1.0235  1.3719
 4578TIP3   OH235148   1.679   0.831   1.533  0.8028  0.2353  0.7484
 4578TIP3    H135149   1.589   0.861   1.538  0.9476  0.7855  0.2356
 4578TIP3    H235150   1.687   0.766   1.602  0.0071  0.1584  0.7747
 4579TIP3   OH235151   5.344   6.583   4.773  0.2755  0.0709 -0.3999
 4579TIP3    H135152   5.387   6.595   4.688 -0.0879 -0.4923 -0.6668
 4579TIP3    H235153   5.375   6.498   4.804  1.5710  0.9156  0.7303
 4580TIP3   OH235154   2.240   3.759   5.621  0.5627 -0.2944  0.7780
 4580TIP3    H135155   2.164   3.743   5.678 -1.0132  1.2400 -0.7627
 4580TIP3    H235156   2.202   3.783   5.536  2.7677 -3.3430 -1.3132
 4581TIP3   OH235157   0.880   3.610   3.116  0.1758 -0.3216  0.2884
 4581TIP3    H135158   0.839   3.616   3.029 -0.1429  0.7583  0.4991
 4581TIP3    H235159   0.967   3.575   3.098  1.0696  2.1886 -0.8150
 4582TIP3   OH235160   2.444   4.429  14.559  0.4652  0.4031 -0.0910
 4582TIP3    H135161   2.370   4.488  14.542  0.8043  0.9375  0.2764
 4582TIP3    H235162   2.403   4.344  14.576 -0.1637  0.9639  1.3975
 4583TIP3   OH235163   2.201   2.497  13.561  0.2784  0.4778 -0.1574
 4583TIP3    H135164   2.129   2.559  13.555 -0.5217 -0.3408  0.5586
 4583TIP3    H235165   2.159   2.412  13.578  1.4255  0.3725  3.0491
 4584TIP3   OH235166   6.593   5.245  15.460 -0.0692  0.1105  0.1470
 4584TIP3    H135167   6.624   5.201  15.381  2.3892 -0.0424  1.0957
 4584TIP3    H235168   6.579   5.336  15.432 -0.3672 -0.1822 -0.7021
 4585TIP3   OH235169   6.148   1.974   4.868  0.5192 -0.2886  0.1078
 4585TIP3    H135170   6.108   1.983   4.782 -1.5913 -1.0373  0.9273
 4585TIP3    H235171   6.231   2.021   4.862  0.2156  0.0598 -2.1678
 4586TIP3   OH235172   3.022   6.360   2.002 -0.4644  0.1059  0.2905
 4586TIP3    H135173   2.948   6.300   2.015 -0.6667  0.2081 -0.3744
 4586TIP3    H235174   2.981   6.446   1.991 -0.1185  0.6672  2.8282
 4587TIP3   OH235175   1.625   0.467   3.024  0.2583  0.2634  0.4356
 4587TIP3    H135176   1.694   0.419   2.977 -1.8952 -1.4245 -1.1926
 4587TIP3    H235177   1.592   0.404   3.089  2.9105  2.4159  4.2830
 4588TIP3   OH235178   1.030   3.526   5.299  0.5305  0.2457 -1.1154
 4588TIP3    H135179   0.972   3.537   5.224  1.0757 -1.0105 -1.7600
 4588TIP3    H235180   1.020   3.606   5.350 -1.2361  0.3385 -1.5621
 4589TIP3   OH235181   2.828   5.814  14.317  0.4344 -0.5325  0.3405
 4589TIP3    H135182   2.860   5.833  14.229  0.4485 -0.5511  0.3420
 4589TIP3    H235183   2.898   5.844  14.375 -0.0984  0.6632  0.4015
 4590TIP3   OH235184   3.030   3.778  11.367 -0.0835  0.0470  0.4815
 4590TIP3    H135185   2.989   3.860  11.340 -1.4274 -1.1407 -1.2556
 4590TIP3    H235186   2.991   3.759  11.453 -1.1309  0.3080  0.0754
 4591TIP3   OH235187   3.046   0.402  12.457 -0.1044 -0.2002 -0.4601
 4591TIP3    H135188   3.115   0.361  12.510  0.3396 -2.0212 -2.3316
 4591TIP3    H235189   3.093   0.447  12.387 -0.7836 -0.7276 -1.2651
 4592TIP3   OH235190   6.073   1.055  17.028  0.0505  0.3960 -0.2256
 4592TIP3    H135191   5.989   1.064  17.075  0.3928  0.4482  0.3863
 4592TIP3    H235192   6.094   0.962  17.035 -0.1513  0.3092 -0.7305
 4593TIP3   OH235193   4.928   5.980  15.867  0.1648 -0.1542 -0.0621
 4593TIP3    H135194   4.893   6.055  15.819 -0.3773  0.0373  0.6209
 4593TIP3    H235195   4.851   5.933  15.899  0.4767 -1.2585 -0.8325
 4594TIP3   OH235196   1.459   0.425  13.060  0.4558  0.1975 -0.2919
 4594TIP3    H135197   1.374   0.398  13.025  0.5044  0.4898 -0.6460
 4594TIP3    H235198   1.446   0.516  13.086  0.6670  0.2534 -0.3755
 4595TIP3   OH235199   3.242   4.639   5.529 -0.2249  0.6069 -0.2188
 4595TIP3    H135200   3.201   4.554   5.545  0.1160  0.6342  0.8298
 4595TIP3    H235201   3.305   4.621   5.459  0.3913 -0.1869  0.5083
 4596TIP3   OH235202   6.579   1.878  14.145 -0.2705 -0.5061 -0.4977
 4596TIP3    H135203   6.563   1.791  14.109  1.1315 -0.3151 -1.6845
 4596TIP3    H235204   6.665   1.902  14.112 -0.2733  0.9979  0.4909
 4597TIP3   OH235205   1.367   2.689   1.501  0.1124  0.3368 -0.1969
 4597TIP3    H135206   1.289   2.675   1.447 -0.1343 -2.2304  0.6889
 4597TIP3    H235207   1.437   2.706   1.439 -0.1989 -2.3486 -1.4193
 4598TIP3   OH235208   2.702   5.365   2.517 -0.6814 -0.2712  0.2852
 4598TIP3    H135209   2.706   5.304   2.591  0.9441 -0.9119 -0.2675
 4598TIP3    H235210   2.753   5.441   2.546 -0.0965 -0.4962 -0.1292
 4599TIP3   OH235211   5.373   0.691   5.819  0.6544  0.4303  0.1122
 4599TIP3    H135212   5.344   0.742   5.743  0.1949 -0.4044 -0.2726
 4599TIP3    H235213   5.348   0.745   5.894 -1.8048 -0.1843 -0.1918
 4600TIP3   OH235214   5.462   0.400  16.308 -0.4175  0.0722 -0.2554
 4600TIP3    H135215   5.385   0.347  16.287 -0.3479 -0.0650 -0.1706
 4600TIP3    H235216   5.472   0.390  16.403  0.0025 -0.3174 -0.3394
 4601TIP3   OH235217   5.923   5.897   2.975  0.3619 -0.3171 -0.4905
 4601TIP3    H135218   5.995   5.844   2.941  0.5085  0.6290 -1.7218
 4601TIP3    H235219   5.952   5.922   3.063  2.1731  1.1247 -1.4270
 4602TIP3   OH235220   4.485   1.486   2.831  0.2228  0.2468 -0.4698
 4602TIP3    H135221   4.434   1.410   2.860 -0.1549  1.0870  1.2428
 4602TIP3    H235222   4.461   1.497   2.739  1.5050 -2.6098 -1.2721
 4603TIP3   OH235223   3.166   2.652   0.574  0.1762 -0.4848  0.2041
 4603TIP3    H135224   3.081   2.640   0.616  0.9469 -1.2967  1.6142
 4603TIP3    H235225   3.188   2.744   0.589 -1.7056  0.5930 -2.7481
 4604TIP3   OH235226   4.742   2.012  14.219  0.0917  1.0794  0.2127
 4604TIP3    H135227   4.803   2.055  14.279 -0.3889  0.9070  0.8421
 4604TIP3    H235228   4.782   1.927  14.200  0.7604  1.5499 -0.5704
 4605TIP3   OH235229   3.015   5.511   6.240 -0.0401  0.1131 -0.2563
 4605TIP3    H135230   2.967   5.454   6.301 -1.7332 -0.7869 -2.3060
 4605TIP3    H235231   2.952   5.579   6.216  0.5059  0.3006 -1.1926
 4606TIP3   OH235232   6.496   1.483  13.267  0.4496 -0.5297  0.0972
 4606TIP3    H135233   6.415   1.457  13.223  0.0862  2.2518 -1.1334
 4606TIP3    H235234   6.466   1.523  13.349  0.5101  0.6361 -0.4267
 4607TIP3   OH235235   1.386   0.613  16.007 -0.2797 -0.3542  0.9153
 4607TIP3    H135236   1.481   0.625  16.007 -0.2355 -0.2590 -1.0669
 4607TIP3    H235237   1.368   0.561  16.085  1.7128 -2.4002  0.1298
 4608TIP3   OH235238   4.782   1.410   5.511  0.1417 -0.0689 -0.1386
 4608TIP3    H135239   4.836   1.383   5.585 -3.1917 -1.5260  2.0567
 4608TIP3    H235240   4.763   1.328   5.464  0.8281  0.5993 -1.6368
 4609TIP3   OH235241   1.705   1.039   4.091  0.3562  0.6055 -0.6844
 4609TIP3    H135242   1.700   1.054   4.186  0.9268 -0.9481 -0.3792
 4609TIP3    H235243   1.742   1.120   4.056  0.1926  1.1839  0.4219
 4610TIP3   OH235244   1.720   4.848   2.112  0.1903 -0.2536 -0.3756
 4610TIP3    H135245   1.631   4.862   2.144  0.2746 -1.7473  0.5974
 4610TIP3    H235246   1.714   4.865   2.018 -0.9917  0.1824 -0.2408
 4611TIP3   OH235247   3.969   0.324   4.993 -0.1969  0.0825  0.2422
 4611TIP3    H135248   3.997   0.252   5.050 -0.4102  0.0571  0.3153
 4611TIP3    H235249   3.884   0.295   4.958 -0.1585  0.1828  0.0635
 4612TIP3   OH235250   2.271   6.693  16.826  0.6420 -0.0916  0.7507
 4612TIP3    H135251   2.180   6.684  16.857 -0.0771  0.1064 -1.1453
 4612TIP3    H235252   2.262   6.717  16.734  2.6460  0.4277  0.6529
 4613TIP3   OH235253   0.956   5.849  11.749  0.1788 -0.4815 -0.2701
 4613TIP3    H135254   0.978   5.933  11.708 -0.8561  0.2273  0.5680
 4613TIP3    H235255   0.910   5.800  11.680  0.1670 -0.0750 -0.5567
 4614TIP3   OH235256   3.822   0.363  12.751  0.4509  0.1452  1.0069
 4614TIP3    H135257   3.831   0.269  12.742  0.2043  0.2132 -0.1096
 4614TIP3    H235258   3.907   0.399  12.725  0.2571  0.2680  0.5265
 4615TIP3   OH235259   0.504   0.092  15.193  0.4572 -0.4155  0.3591
 4615TIP3    H135260   0.531   0.050  15.275  0.6067 -0.4734  0.2802
 4615TIP3    H235261   0.562   0.169  15.186  2.8941 -2.2567 -1.4480
 4616TIP3   OH235262   5.470   2.948  16.291 -0.1035  0.0403  0.2991
 4616TIP3    H135263   5.497   2.862  16.259 -0.7036  0.4641 -1.4456
 4616TIP3    H235264   5.473   3.005  16.214 -1.5502  1.1451  1.0018
 4617TIP3   OH235265   1.948   5.034   2.287  0.0782 -0.4028 -0.3659
 4617TIP3    H135266   1.881   4.999   2.228 -1.1703  0.4562  0.4938
 4617TIP3    H235267   1.954   5.127   2.265  1.9094 -0.6833 -1.2603
 4618TIP3   OH235268   2.692   0.083  12.330 -0.3183  0.5989 -0.1905
 4618TIP3    H135269   2.768   0.103  12.274  0.1196  1.1731  0.5767
 4618TIP3    H235270   2.637   0.161  12.323 -2.7476 -1.1848 -3.6405
 4619TIP3   OH235271   0.095   3.160   2.616 -0.1596  0.2659  0.0360
 4619TIP3    H135272   0.141   3.079   2.639  0.5602  0.2331 -1.4566
 4619TIP3    H235273   0.162   3.216   2.578 -1.1722  0.5213 -1.4648
 4620TIP3   OH235274   0.382   4.188   4.090  0.4796  0.6866 -0.0591
 4620TIP3    H135275   0.456   4.227   4.043 -0.5047  1.2552 -1.1901
 4620TIP3    H235276   0.330   4.264   4.119  1.5319  0.4014  2.8173
 4621TIP3   OH235277   3.187   5.852   0.822  0.3571 -0.1552 -0.0181
 4621TIP3    H135278   3.135   5.874   0.744  0.1548 -0.1073  0.1311
 4621TIP3    H235279   3.145   5.899   0.893 -0.7409 -1.8124  0.5134
 4622TIP3   OH235280   6.489   3.002  16.052 -0.2392  0.6287  0.5359
 4622TIP3    H135281   6.400   2.966  16.060  0.0344 -0.2865 -0.3744
 4622TIP3    H235282   6.545   2.936  16.091  0.0539  1.1985  1.0896
 4623TIP3   OH235283   6.173   1.439   0.682 -0.0547 -0.1303 -0.0255
 4623TIP3    H135284   6.087   1.403   0.700 -0.1215  0.2512  0.4341
 4623TIP3    H235285   6.161   1.493   0.604 -0.1037 -0.5354 -0.3016
 4624TIP3   OH235286   2.969   3.180  11.668 -0.2444 -0.3868  0.1300
 4624TIP3    H135287   2.885   3.225  11.677  0.5023  0.9784  0.7228
 4624TIP3    H235288   2.991   3.153  11.757 -0.1250 -0.8777 -0.0470
 4625TIP3   OH235289   4.832   3.276  16.542  0.2592 -0.2829 -0.4962
 4625TIP3    H135290   4.773   3.226  16.487  0.4713  0.8445 -1.8113
 4625TIP3    H235291   4.799   3.264  16.631 -2.8401  1.3848 -1.2618
 4626TIP3   OH235292   6.118   6.369  14.051 -0.2247  0.0535  0.3089
 4626TIP3    H135293   6.119   6.388  13.957 -0.4496 -0.4084  0.2134
 4626TIP3    H235294   6.090   6.451  14.092 -0.6795  0.0836 -0.0646
 4627TIP3   OH235295   6.154   1.026   1.557  0.2735 -0.0972  0.4148
 4627TIP3    H135296   6.196   0.941   1.563  1.1879  0.1617 -1.5391
 4627TIP3    H235297   6.141   1.039   1.463  0.8410  2.2284  0.6064
 4628TIP3   OH235298   0.109   0.369   3.510 -0.9586 -0.3195 -0.3169
 4628TIP3    H135299   0.130   0.287   3.465 -0.1192  1.0252 -2.5373
 4628TIP3    H235300   0.043   0.410   3.455 -0.5810  0.9689  0.1577
 4629TIP3   OH235301   0.998   5.906  10.204 -0.1168  0.0577 -0.0418
 4629TIP3    H135302   1.034   5.953  10.279 -1.4931  0.6830  0.2624
 4629TIP3    H235303   0.946   5.972  10.158 -0.9381 -0.8226 -0.4010
 4630TIP3   OH235304   0.296   2.105   4.297  0.3182  0.6992 -0.4020
 4630TIP3    H135305   0.230   2.039   4.274 -0.8787  1.6436  0.2378
 4630TIP3    H235306   0.309   2.094   4.391 -0.8331  2.1653 -0.0331
 4631TIP3   OH235307   1.313   5.208  15.720  0.2960 -0.4995 -0.3902
 4631TIP3    H135308   1.408   5.201  15.719  0.3018 -0.8398  0.8089
 4631TIP3    H235309   1.294   5.281  15.779 -0.1823 -0.0233 -1.1103
 4632TIP3   OH235310   4.211   4.742  14.808  0.3644  0.3448 -0.0258
 4632TIP3    H135311   4.154   4.683  14.759 -1.2659  2.4109 -0.8261
 4632TIP3    H235312   4.166   4.755  14.891  0.7649  0.3665  0.1876
 4633TIP3   OH235313   2.274   3.063   4.019 -0.1909  0.0926  0.0916
 4633TIP3    H135314   2.229   3.036   3.939 -0.2205  0.6756 -0.0863
 4633TIP3    H235315   2.205   3.071   4.084 -0.4016  1.3129 -0.2651
 4634TIP3   OH235316   4.112   3.863  15.493  0.6982 -0.4712  0.3525
 4634TIP3    H135317   4.131   3.770  15.487 -2.3806 -1.1621 -0.9662
 4634TIP3    H235318   4.174   3.905  15.433  1.1852 -1.8495 -0.1444
 4635TIP3   OH235319   2.290   3.106   2.577  0.3026 -0.4397  0.3499
 4635TIP3    H135320   2.313   3.157   2.499 -1.7247 -1.4190 -0.9702
 4635TIP3    H235321   2.271   3.172   2.644 -2.4816  0.6671 -1.3635
 4636TIP3   OH235322   6.565   4.705   1.288 -0.1001 -0.6624  0.4747
 4636TIP3    H135323   6.575   4.771   1.357  1.5963  0.2492 -0.5779
 4636TIP3    H235324   6.482   4.726   1.246  0.7275  1.2836 -0.2836
 4637TIP3   OH235325   4.005   1.310   0.248 -0.2883  1.0237  0.0855
 4637TIP3    H135326   3.975   1.249   0.315  2.9863 -1.2699 -0.2927
 4637TIP3    H235327   4.033   1.254   0.175  0.4232  3.1613 -1.3837
 4638TIP3   OH235328   4.710   1.963   0.920  0.2809  0.4183  0.2666
 4638TIP3    H135329   4.635   1.972   0.860 -0.0955 -0.4097  0.5909
 4638TIP3    H235330   4.704   2.039   0.977 -0.5348  0.1736  0.5217
 4639TIP3   OH235331   1.301   6.232   4.706  0.3284  0.3954 -0.2363
 4639TIP3    H135332   1.339   6.149   4.679 -1.2576  0.1875 -1.9709
 4639TIP3    H235333   1.377   6.288   4.723  1.4124 -0.9705 -0.3785
 4640TIP3   OH235334   1.882   4.740  17.111 -0.2757  0.0635 -0.2255
 4640TIP3    H135335   1.930   4.688  17.176  0.7888 -1.3275 -2.0316
 4640TIP3    H235336   1.837   4.808  17.162  0.1931 -1.2065  1.9732
 4641TIP3   OH235337   3.243   1.583  14.661  0.6466 -0.2752  0.1499
 4641TIP3    H135338   3.333   1.603  14.634 -0.1923  2.2190 -1.1014
 4641TIP3    H235339   3.201   1.668  14.667 -0.9529 -1.1456  3.5106
 4642TIP3   OH235340   3.451   1.388  16.762 -0.5029  0.7619  0.4762
 4642TIP3    H135341   3.384   1.359  16.700  1.0396 -0.7611 -0.5283
 4642TIP3    H235342   3.434   1.482  16.772 -3.9009  0.1828  1.6777
 4643TIP3   OH235343   5.117   3.797   2.925 -0.0992  0.5097 -0.0020
 4643TIP3    H135344   5.094   3.889   2.937  0.5627  0.8957 -1.5120
 4643TIP3    H235345   5.038   3.749   2.953 -1.3912  1.6400 -1.5383
 4644TIP3   OH235346   1.745   3.396  11.167  0.3956  0.1083  0.2763
 4644TIP3    H135347   1.722   3.343  11.243 -1.2881  0.8537  0.3303
 4644TIP3    H235348   1.815   3.347  11.124 -0.8134 -1.9676  0.5268
 4645TIP3   OH235349   5.745   6.373  11.940  0.1373  0.6087 -0.1772
 4645TIP3    H135350   5.836   6.382  11.969 -0.1683  0.6800  0.7886
 4645TIP3    H235351   5.725   6.457  11.898  0.7227  0.3414 -1.0174
 4646TIP3   OH235352   1.642   3.547  13.794  0.5352 -0.5585 -0.1960
 4646TIP3    H135353   1.709   3.549  13.862 -0.2376  0.2394  0.5755
 4646TIP3    H235354   1.626   3.640  13.774 -0.9002 -0.6913  0.2326
 4647TIP3   OH235355   5.584   2.645  14.658 -0.2926  0.2163 -0.3549
 4647TIP3    H135356   5.639   2.715  14.693  0.1166  0.6001 -1.7130
 4647TIP3    H235357   5.605   2.643  14.565  0.7902 -2.6857 -0.1445
 4648TIP3   OH235358   3.293   0.035  13.075  0.0850  0.8346 -0.0922
 4648TIP3    H135359   3.302   0.094  13.000 -0.8613 -0.1039 -0.9658
 4648TIP3    H235360   3.202   0.005  13.072  0.2109  0.2756  1.0549
 4649TIP3   OH235361   6.254   1.457   5.939  0.3433 -0.2987  0.0326
 4649TIP3    H135362   6.264   1.434   6.032 -1.6235 -0.0520  0.3339
 4649TIP3    H235363   6.302   1.389   5.892  0.5899 -0.9396  1.1920
 4650TIP3   OH235364   1.577   4.958   3.809  0.0765 -0.3597 -0.2966
 4650TIP3    H135365   1.578   5.006   3.891  1.7797 -0.7845 -0.0429
 4650TIP3    H235366   1.532   4.875   3.829 -0.0491 -0.2075  0.0432
 4651TIP3   OH235367   3.629   0.241  12.372  0.2421  0.1170 -0.2877
 4651TIP3    H135368   3.560   0.262  12.308 -0.1614  0.9821  0.4116
 4651TIP3    H235369   3.709   0.276  12.332  0.0900  0.1204 -0.5959
 4652TIP3   OH235370   2.367   6.704  12.274 -0.7332  0.5519  0.1241
 4652TIP3    H135371   2.345   6.660  12.193 -1.7574 -0.0223  0.6979
 4652TIP3    H235372   2.391   6.634  12.334 -1.8815  0.7860  0.8888
 4653TIP3   OH235373   0.854   3.011   5.367 -0.0693  0.3395  0.3263
 4653TIP3    H135374   0.904   2.991   5.288 -0.3547 -3.3204  0.9305
 4653TIP3    H235375   0.763   2.999   5.342 -0.2387  0.3986  0.8993
 4654TIP3   OH235376   0.957   0.832   0.901 -0.7309  0.3557  0.5231
 4654TIP3    H135377   1.040   0.847   0.856 -1.3770 -0.1316 -0.8794
 4654TIP3    H235378   0.909   0.914   0.890 -1.5081 -0.2767 -1.0960
 4655TIP3   OH235379   3.619   2.476  12.578 -0.1200  0.5691  0.2471
 4655TIP3    H135380   3.532   2.439  12.598  0.1863 -0.4816 -0.2972
 4655TIP3    H235381   3.601   2.566  12.554 -1.0002  0.5328  0.7090
 4656TIP3   OH235382   5.073   0.295   4.260  0.2540  0.6231 -0.6884
 4656TIP3    H135383   5.059   0.257   4.174 -1.2683 -0.0706 -0.1727
 4656TIP3    H235384   5.140   0.362   4.246  0.8487 -0.2220 -2.1777
 4657TIP3   OH235385   0.221   0.642  11.176  0.0834  0.7183 -0.1390
 4657TIP3    H135386   0.156   0.709  11.193 -1.1915 -0.6414  0.6440
 4657TIP3    H235387   0.196   0.605  11.091  0.0409  0.4452 -0.0114
 4658TIP3   OH235388   3.683   1.958  11.408 -0.7732  0.2549  0.0020
 4658TIP3    H135389   3.731   2.025  11.359 -1.2070  0.0399 -0.7310
 4658TIP3    H235390   3.622   2.007  11.462 -1.5004  0.4520 -0.9677
 4659TIP3   OH235391   0.889   1.331   3.427  0.9055 -0.1973  0.0637
 4659TIP3    H135392   0.867   1.328   3.334 -0.2354 -0.0939  0.3097
 4659TIP3    H235393   0.833   1.264   3.466  0.8134  0.2971  0.7840
 4660TIP3   OH235394   4.070   4.062   5.800  0.0620  0.1041 -0.0769
 4660TIP3    H135395   3.982   4.049   5.836  0.1400  0.2788  0.1815
 4660TIP3    H235396   4.113   4.122   5.862  0.6797 -0.7276  0.3178
 4661TIP3   OH235397   1.961   5.592  10.682  0.3634  0.6561 -0.5631
 4661TIP3    H135398   1.882   5.544  10.707  0.4954  0.6707 -0.1061
 4661TIP3    H235399   1.939   5.631  10.597  0.4544 -0.6718 -1.2272
 4662TIP3   OH235400   0.735   4.150   0.882  0.2042  0.1707  0.2303
 4662TIP3    H135401   0.677   4.166   0.956 -0.2890 -0.4365 -0.0216
 4662TIP3    H235402   0.820   4.184   0.910 -0.1366  0.5469  0.8165
 4663TIP3   OH235403   3.573   6.773  13.450  0.3879  0.4757  0.5090
 4663TIP3    H135404   3.532   6.855  13.477  1.8745  1.9605 -1.4373
 4663TIP3    H235405   3.592   6.784  13.357  1.7283 -1.6031  0.4481
 4664TIP3   OH235406   6.411   0.387  10.565  0.2399  0.6542 -0.8615
 4664TIP3    H135407   6.368   0.431  10.492 -0.3478  0.7343 -0.4731
 4664TIP3    H235408   6.339   0.358  10.621  0.5832 -1.0525 -1.2510
 4665TIP3   OH235409   0.864   6.414   4.560 -0.4491 -0.5684  0.0253
 4665TIP3    H135410   0.842   6.423   4.653  1.5095 -3.3470  0.8808
 4665TIP3    H235411   0.953   6.449   4.553 -0.4936 -0.6013 -0.7621
 4666TIP3   OH235412   3.669   0.599  13.995  0.4266  0.3752 -1.0946
 4666TIP3    H135413   3.746   0.650  14.018  0.9402 -1.2323  1.1300
 4666TIP3    H235414   3.595   0.653  14.023  0.9061  0.4358  0.1118
 4667TIP3   OH235415   4.166   0.105  15.798  0.0293 -0.6194  0.1877
 4667TIP3    H135416   4.127   0.076  15.715  0.4768 -1.4894  0.2662
 4667TIP3    H235417   4.153   0.199  15.799 -0.0646 -0.6077 -0.8425
 4668TIP3   OH235418   3.799   6.052   1.020 -0.4902 -0.1175  0.2699
 4668TIP3    H135419   3.742   6.011   1.084 -0.2390  1.1543  1.3500
 4668TIP3    H235420   3.774   6.144   1.021 -1.2838 -0.2212 -2.3456
 4669TIP3   OH235421   1.386   4.487   6.254 -0.1245 -0.2016  0.8352
 4669TIP3    H135422   1.397   4.576   6.219 -1.0194  0.7442  2.7930
 4669TIP3    H235423   1.295   4.485   6.284 -0.6043 -2.3491 -0.5871
 4670TIP3   OH235424   5.041   3.934  17.022 -0.0220  0.1449  0.1487
 4670TIP3    H135425   5.045   3.977  16.936  0.9647  1.0063  0.6010
 4670TIP3    H235426   5.047   3.840  17.002  1.0086  0.3636 -0.6902
 4671TIP3   OH235427   1.471   2.514   0.094 -0.0835  0.0883  0.1162
 4671TIP3    H135428   1.564   2.491   0.092 -0.1156 -0.1168  0.9022
 4671TIP3    H235429   1.428   2.438   0.133 -0.4491  0.6291  0.7656
 4672TIP3   OH235430   2.185   2.229  11.232  0.0717 -0.3112  0.2181
 4672TIP3    H135431   2.169   2.170  11.159 -1.2026  2.5446 -2.0069
 4672TIP3    H235432   2.098   2.255  11.261  0.5076  2.1401 -0.4313
 4673TIP3   OH235433   2.021   5.839  15.678  1.0095  0.7732  0.3758
 4673TIP3    H135434   2.089   5.885  15.628 -0.2813  1.9672 -0.3453
 4673TIP3    H235435   1.952   5.821  15.614  1.2714 -1.9121  0.7013
 4674TIP3   OH235436   0.509   2.894  16.340 -0.5306  0.2446  0.3216
 4674TIP3    H135437   0.483   2.949  16.413 -1.8480 -0.6980  0.5752
 4674TIP3    H235438   0.558   2.954  16.282 -3.5231  2.2550 -0.3855
 4675TIP3   OH235439   2.899   1.121  10.994  0.0400  0.2442  0.3844
 4675TIP3    H135440   2.836   1.192  11.003 -1.0620 -0.7731  0.9190
 4675TIP3    H235441   2.982   1.158  11.024 -0.7645  0.9429  1.8138
 4676TIP3   OH235442   4.583   0.542  11.590  0.6340  0.2848  0.2491
 4676TIP3    H135443   4.603   0.448  11.584 -0.1859  0.1712 -1.5008
 4676TIP3    H235444   4.643   0.575  11.657  2.8258 -0.9974 -0.9506
 4677TIP3   OH235445   2.186   1.960  16.077 -0.5061  0.6317 -0.4708
 4677TIP3    H135446   2.260   1.965  16.016  1.4883  0.9704  1.8121
 4677TIP3    H235447   2.180   1.868  16.100 -1.6548  0.4089 -1.5785
 4678TIP3   OH235448   1.260   4.738  12.468 -0.1660  0.1374 -0.2229
 4678TIP3    H135449   1.176   4.691  12.464  0.2804 -0.6966 -0.0836
 4678TIP3    H235450   1.248   4.801  12.540 -1.4508  1.6516 -1.6805
 4679TIP3   OH235451   1.984   5.032  13.637  0.9476  1.0898  0.6675
 4679TIP3    H135452   1.918   5.083  13.684  0.0330  1.0662 -0.5288
 4679TIP3    H235453   1.962   5.044  13.544  1.2385 -0.7277  0.3115
 4680TIP3   OH235454   0.549   1.438  11.664  0.1818  0.3945  0.2703
 4680TIP3    H135455   0.595   1.519  11.643  0.3910  0.1622 -0.1877
 4680TIP3    H235456   0.548   1.389  11.581 -0.9782  0.4423  0.2390
 4681TIP3   OH235457   6.034   1.195  10.759 -0.1398  0.3974 -0.1651
 4681TIP3    H135458   6.034   1.258  10.687  0.4176  2.4264  1.4714
 4681TIP3    H235459   5.946   1.157  10.758 -0.4990  1.2060 -1.2505
 4682TIP3   OH235460   3.822   3.857  12.562 -1.0144 -0.2561 -0.6138
 4682TIP3    H135461   3.891   3.911  12.523  1.6560 -1.8349  1.5183
 4682TIP3    H235462   3.818   3.885  12.653 -2.8279 -0.6291 -0.5438
 4683TIP3   OH235463   6.707   3.115   4.484 -0.0677  0.3728  0.4625
 4683TIP3    H135464   6.691   3.052   4.414  0.2193 -0.1811  0.8859
 4683TIP3    H235465   6.744   3.063   4.555 -1.6305  0.6779  1.5470
 4684TIP3   OH235466   2.257   2.756   3.380  0.2064 -0.2320  0.0921
 4684TIP3    H135467   2.324   2.816   3.347 -0.8721  1.2941  0.5106
 4684TIP3    H235468   2.183   2.814   3.403  0.0430 -1.3934  2.9843
 4685TIP3   OH235469   1.397   0.771  11.252  0.3184 -0.3626  0.7049
 4685TIP3    H135470   1.466   0.795  11.314 -0.2694  1.5413  0.6903
 4685TIP3    H235471   1.316   0.780  11.302 -0.1058  0.3900 -0.0836
 4686TIP3   OH235472   6.627   0.781  10.760  0.2155  0.1058 -0.9153
 4686TIP3    H135473   6.707   0.805  10.714 -0.4287  0.8655 -1.6656
 4686TIP3    H235474   6.624   0.685  10.754  2.7856 -0.3492  2.0486
 4687TIP3   OH235475   1.816   2.710   3.887  0.8726 -0.4737  0.2838
 4687TIP3    H135476   1.816   2.793   3.839  1.1850 -1.1974 -1.0247
 4687TIP3    H235477   1.794   2.644   3.821 -1.0515 -1.2801  1.6286
 4688TIP3   OH235478   1.650   6.252   2.390 -0.4590  0.0428  0.5661
 4688TIP3    H135479   1.572   6.253   2.446 -1.2885 -0.2134 -0.5657
 4688TIP3    H235480   1.639   6.175   2.335  0.1168  0.5387 -0.2614
 4689TIP3   OH235481   0.042   5.809   1.889 -0.1583  0.2892 -0.0587
 4689TIP3    H135482   0.057   5.878   1.825 -0.0287  1.3147  1.0341
 4689TIP3    H235483   0.010   5.855   1.967  1.7607 -0.6221  1.3653
 4690TIP3   OH235484   1.172   0.893  15.060  0.4331  0.2211 -0.6013
 4690TIP3    H135485   1.105   0.836  15.021  1.2103 -1.7811  0.8466
 4690TIP3    H235486   1.233   0.910  14.988 -0.1791 -0.2006 -1.2382
 4691TIP3   OH235487   5.331   2.321   5.764 -0.2198  0.7418 -0.2440
 4691TIP3    H135488   5.369   2.264   5.831  0.6627 -0.6808 -1.8859
 4691TIP3    H235489   5.377   2.405   5.776  0.3962  0.3108  0.5021
 4692TIP3   OH235490   0.396   2.746   4.963 -0.0231 -0.3470  0.2700
 4692TIP3    H135491   0.323   2.793   4.923  1.3302  1.4494 -0.1976
 4692TIP3    H235492   0.429   2.688   4.894  1.2327  1.4991 -0.7515
 4693TIP3   OH235493   1.257   6.039   5.575  0.2409 -0.2267 -0.0463
 4693TIP3    H135494   1.265   5.972   5.643 -1.4897 -1.3560 -0.8706
 4693TIP3    H235495   1.297   6.001   5.497 -0.8715 -0.4075 -0.5578
 4694TIP3   OH235496   3.093   2.085   3.962 -0.3026 -0.1916 -0.3517
 4694TIP3    H135497   3.104   2.027   3.886  0.6825  1.7257 -1.7640
 4694TIP3    H235498   3.176   2.077   4.010  0.3511  0.9596 -1.2511
 4695TIP3   OH235499   0.656   1.758  11.636  0.2510  0.2185  0.0160
 4695TIP3    H135500   0.641   1.827  11.700  0.3183  0.0200  0.2471
 4695TIP3    H235501   0.569   1.722  11.618 -0.0864  1.6996 -1.6369
 4696TIP3   OH235502   3.481   1.628  16.016  0.8145 -0.7605  0.5713
 4696TIP3    H135503   3.400   1.578  16.023 -0.3321  0.7995 -0.8371
 4696TIP3    H235504   3.479   1.688  16.091  0.3284 -0.2621  0.1599
 4697TIP3   OH235505   4.705   4.991   0.946 -0.1369  0.0024  0.8862
 4697TIP3    H135506   4.753   5.056   0.998 -1.9827  2.3380 -0.1184
 4697TIP3    H235507   4.763   4.970   0.874 -0.4412  2.7279 -0.2745
 4698TIP3   OH235508   1.950   2.411   3.769  0.7510 -0.4761 -0.0336
 4698TIP3    H135509   2.015   2.475   3.797  0.6081 -0.4772  0.3025
 4698TIP3    H235510   1.902   2.388   3.848  1.9856 -2.3917  0.2404
 4699TIP3   OH235511   2.960   0.274   2.294 -0.2745 -0.3837  0.2315
 4699TIP3    H135512   2.958   0.179   2.302  0.7950 -0.3726  0.7709
 4699TIP3    H235513   3.043   0.293   2.250  0.4917  0.3945  1.9116
 4700TIP3   OH235514   4.301   2.200  12.821 -0.0622  0.0842  0.9037
 4700TIP3    H135515   4.230   2.235  12.874  1.2907  1.1605  2.0796
 4700TIP3    H235516   4.370   2.178  12.883  1.3094  0.7351 -0.3060
 4701TIP3   OH235517   3.480   3.511  11.727 -0.2346  0.4606  0.2675
 4701TIP3    H135518   3.435   3.595  11.717 -1.1804 -0.1628 -1.0294
 4701TIP3    H235519   3.444   3.473  11.807  0.6202  1.5118  1.1785
 4702TIP3   OH235520   3.425   3.445   7.099  0.3715 -0.4578  0.2468
 4702TIP3    H135521   3.446   3.538   7.113  1.0830 -0.6465  0.4732
 4702TIP3    H235522   3.339   3.446   7.057  0.6422  0.3383 -0.3242
 4703TIP3   OH235523   3.072   5.511  14.859  0.2394  0.3539  0.3305
 4703TIP3    H135524   3.002   5.473  14.912 -0.9869  2.1890  0.1306
 4703TIP3    H235525   3.089   5.596  14.899  0.6669  0.9487 -1.0481
 4704TIP3   OH235526   1.647   3.675   4.685 -0.0485 -0.3143  0.0786
 4704TIP3    H135527   1.717   3.738   4.670 -0.6881  0.4797  0.3863
 4704TIP3    H235528   1.689   3.590   4.674  1.2175  0.1249  1.2871
 4705TIP3   OH235529   0.106   3.688  15.006  0.2931  0.6237  0.5265
 4705TIP3    H135530   0.157   3.740  15.068  0.9044 -0.9565  1.4030
 4705TIP3    H235531   0.016   3.693  15.038  0.4690  0.5205  1.0465
 4706TIP3   OH235532   0.106   0.911  15.601 -0.1593  0.4985 -0.1492
 4706TIP3    H135533   0.151   0.874  15.525  0.2960 -0.2302  0.4609
 4706TIP3    H235534   0.125   1.004  15.597  0.4262  0.3698 -0.5548
 4707TIP3   OH235535   3.607   5.207  16.050  0.2212 -0.1201 -0.2266
 4707TIP3    H135536   3.516   5.223  16.025  0.3803 -0.5811 -1.1665
 4707TIP3    H235537   3.602   5.147  16.123 -0.2397  0.1835 -0.0043
 4708TIP3   OH235538   3.914   4.733   3.789  0.4206 -0.2515  0.1529
 4708TIP3    H135539   3.919   4.781   3.706 -2.0926  2.0271  1.1754
 4708TIP3    H235540   3.999   4.748   3.830  1.5467 -1.0501 -1.7744
 4709TIP3   OH235541   0.217   6.268  16.320 -0.4936  0.0531 -0.2262
 4709TIP3    H135542   0.166   6.348  16.332 -0.4075  0.0553  0.1325
 4709TIP3    H235543   0.286   6.273  16.386 -0.2200 -0.1031 -0.4980
 4710TIP3   OH235544   2.252   3.861  16.472 -0.7005  0.5832 -0.0672
 4710TIP3    H135545   2.231   3.821  16.557  0.1826  1.8341  0.7803
 4710TIP3    H235546   2.341   3.831  16.453  0.5727  3.1033  1.2893
 4711TIP3   OH235547   5.950   4.778  16.567 -0.2040 -0.1849 -0.4167
 4711TIP3    H135548   5.927   4.866  16.538  1.9331  0.0555 -1.5924
 4711TIP3    H235549   6.023   4.791  16.628 -1.0433 -1.0564  0.8115
 4712TIP3   OH235550   2.683   1.593  16.365  0.3474  0.5937 -0.1888
 4712TIP3    H135551   2.677   1.666  16.303 -0.8708 -0.7023 -1.6695
 4712TIP3    H235552   2.744   1.532  16.324  0.2425  0.1337  0.3378
 4713TIP3   OH235553   6.752   1.424   2.154 -0.6414  0.2612 -0.0472
 4713TIP3    H135554   6.758   1.330   2.135  1.3757 -0.0071  1.5463
 4713TIP3    H235555   6.704   1.428   2.236 -1.6440  0.7212 -0.6491
 4714TIP3   OH235556   0.997   4.032  15.691 -0.4321 -0.0107  0.1405
 4714TIP3    H135557   0.946   3.966  15.643 -0.0642  0.9009 -1.5692
 4714TIP3    H235558   0.931   4.086  15.734 -0.7819 -0.6747  0.4623
 4715TIP3   OH235559   3.643   2.128   3.620 -0.0370 -0.7353  0.6759
 4715TIP3    H135560   3.703   2.112   3.548 -1.6050 -0.6422 -0.7076
 4715TIP3    H235561   3.594   2.206   3.595 -0.5341 -0.6263  1.8985
 4716TIP3   OH235562   1.128   3.446   2.316  0.0088 -0.0974 -0.2109
 4716TIP3    H135563   1.076   3.446   2.396  0.6989 -0.8562  0.2596
 4716TIP3    H235564   1.083   3.507   2.257  0.8268  2.4519  1.6205
 4717TIP3   OH235565   6.602   6.398   3.842  0.0077 -0.4461  0.4553
 4717TIP3    H135566   6.631   6.484   3.814 -0.2303 -0.4758  0.1164
 4717TIP3    H235567   6.683   6.353   3.867  0.3405 -0.7160 -0.9976
 4718TIP3   OH235568   1.319   2.407   1.336 -0.1157  0.1281  0.5499
 4718TIP3    H135569   1.407   2.442   1.347  0.6040 -1.5885  0.7154
 4718TIP3    H235570   1.279   2.460   1.268  1.3828  0.3700 -0.1700
 4719TIP3   OH235571   0.258   2.940   2.684  0.2854  0.4224  0.1064
 4719TIP3    H135572   0.348   2.920   2.658  0.5977  1.1659  0.5984
 4719TIP3    H235573   0.224   2.856   2.716  0.4746 -0.0897 -0.9981
 4720TIP3   OH235574   4.933   4.085  14.288  0.1904  0.3917 -0.2100
 4720TIP3    H135575   4.913   3.997  14.319  0.1818 -0.2114 -1.8423
 4720TIP3    H235576   4.916   4.141  14.364 -0.0152 -0.9724  0.7951
 4721TIP3   OH235577   4.437   0.034  12.027 -0.3462  0.1198 -0.9678
 4721TIP3    H135578   4.502   0.027  12.096  0.3716 -1.0098 -1.7201
 4721TIP3    H235579   4.356  -0.002  12.065  0.2673 -1.3224 -0.9830
 4722TIP3   OH235580   0.772   2.167  16.112 -1.1190 -0.5927  0.0825
 4722TIP3    H135581   0.771   2.258  16.082  0.6057 -0.4616  0.3728
 4722TIP3    H235582   0.818   2.169  16.196 -0.2415 -1.8495 -0.3372
 4723TIP3   OH235583   5.303   3.040   2.185  0.3218  0.3585  0.3651
 4723TIP3    H135584   5.321   3.119   2.133  1.3606  0.4510  0.8228
 4723TIP3    H235585   5.209   3.027   2.177  0.2512  1.1757 -0.3880
 4724TIP3   OH235586   2.414   0.097  16.951  0.5293 -0.1906 -0.2572
 4724TIP3    H135587   2.395   0.048  16.871  2.5267 -0.9091 -0.3565
 4724TIP3    H235588   2.400   0.189  16.927 -1.1284 -0.5366 -0.7183
 4725TIP3   OH235589   2.004   2.796   5.291  0.4867  0.1379  0.5483
 4725TIP3    H135590   2.014   2.867   5.354  3.5085 -0.4183  0.8254
 4725TIP3    H235591   2.052   2.722   5.329 -0.9806 -1.5074 -0.6012
 4726TIP3   OH235592   0.403   3.279  15.488  0.2689 -0.0390  0.4341
 4726TIP3    H135593   0.457   3.205  15.462  0.9884  1.0356 -1.3113
 4726TIP3    H235594   0.446   3.314  15.566  1.7528  0.3769 -0.5326
 4727TIP3   OH235595   1.455   5.812   1.805 -0.5981  0.9214 -0.1292
 4727TIP3    H135596   1.420   5.741   1.860 -0.9473  2.2174  1.4207
 4727TIP3    H235597   1.523   5.770   1.752 -1.2429 -0.6937  0.2391
 4728TIP3   OH235598   3.537   1.822  12.961  0.2035  0.4054 -0.1546
 4728TIP3    H135599   3.582   1.889  13.011  2.2482 -0.4551 -0.7353
 4728TIP3    H235600   3.593   1.744  12.969 -1.6684 -1.0245 -0.1487
 4729TIP3   OH235601   2.934   4.908   3.638  0.1018 -0.1959 -0.1319
 4729TIP3    H135602   2.870   4.840   3.619 -0.1477  0.1950 -0.7192
 4729TIP3    H235603   2.914   4.978   3.576  0.6018  0.2531  0.2010
 4730TIP3   OH235604   0.239   3.881   2.525 -0.1273  0.2794 -0.0700
 4730TIP3    H135605   0.285   3.862   2.443  1.3323  1.5876  0.3790
 4730TIP3    H235606   0.207   3.971   2.515 -0.7544  0.1229  0.4450
 4731TIP3   OH235607   0.625   2.787   1.184  0.3659  0.5356  0.6580
 4731TIP3    H135608   0.581   2.871   1.189 -0.2418  0.2171  0.7035
 4731TIP3    H235609   0.602   2.743   1.266 -0.3696 -0.1825  0.0854
 4732TIP3   OH235610   5.465   3.693  12.150  0.0142  0.2080  0.1385
 4732TIP3    H135611   5.456   3.621  12.088 -0.3614 -1.8450  2.3915
 4732TIP3    H235612   5.557   3.717  12.147  0.2285 -0.6446 -0.3708
 4733TIP3   OH235613   0.238   2.258   2.997 -0.0437  0.5747  0.3250
 4733TIP3    H135614   0.206   2.194   3.061  0.1780  1.4742  1.3591
 4733TIP3    H235615   0.159   2.306   2.970 -0.3050 -0.4765 -0.8889
 4734TIP3   OH235616   4.997   5.691  13.591 -0.7593  0.4178 -0.0484
 4734TIP3    H135617   5.038   5.705  13.676 -0.5232  0.3350 -0.1484
 4734TIP3    H235618   5.028   5.606  13.563  0.6537  1.2330 -1.0677
 4735TIP3   OH235619   2.473   6.099  14.022  0.1835  0.5372  0.3504
 4735TIP3    H135620   2.441   6.143  13.943  1.2788 -0.6030 -0.7567
 4735TIP3    H235621   2.568   6.105  14.016  0.2785  1.2650  2.0929
 4736TIP3   OH235622   4.445   4.215  16.852 -0.2890  0.4950  0.0557
 4736TIP3    H135623   4.359   4.250  16.828  0.6698  2.5266 -0.6324
 4736TIP3    H235624   4.500   4.232  16.776  0.8431 -0.3478  0.6658
 4737TIP3   OH235625   4.032   1.949   0.179 -0.6826 -0.4744 -0.1303
 4737TIP3    H135626   4.025   1.894   0.101 -0.8954 -0.5490 -0.0595
 4737TIP3    H235627   4.114   1.924   0.220 -1.9348 -2.5645  1.2928
 4738TIP3   OH235628   1.833   4.666   4.241 -0.1337  0.0392  0.4473
 4738TIP3    H135629   1.903   4.710   4.290  0.5772  1.7918 -1.9095
 4738TIP3    H235630   1.826   4.579   4.280  1.7094  0.6476  2.2971
 4739TIP3   OH235631   4.401   6.108  11.406  0.2288 -0.1520  0.4993
 4739TIP3    H135632   4.395   6.203  11.407 -0.9694 -0.2295  1.3233
 4739TIP3    H235633   4.404   6.086  11.312 -0.9650  0.6159  0.2580
 4740TIP3   OH235634   5.482   3.645  11.664  0.1856 -0.4740 -0.3811
 4740TIP3    H135635   5.506   3.659  11.572 -0.2579 -1.0706 -0.5980
 4740TIP3    H235636   5.553   3.592  11.699  0.5083  0.0059 -0.2892
 4741TIP3   OH235637   5.990   6.199  12.387  0.4737  0.5587 -0.1731
 4741TIP3    H135638   5.927   6.264  12.357  0.6699  0.4915 -0.7425
 4741TIP3    H235639   5.949   6.115  12.366  0.3475  0.4995  0.3005
 4742TIP3   OH235640   6.720   1.018  11.769 -0.4563  0.2469  0.8670
 4742TIP3    H135641   6.643   1.042  11.718  0.1996  2.0151  0.6226
 4742TIP3    H235642   6.738   0.927  11.745 -1.7926  0.1589  0.1009
 4743TIP3   OH235643   6.768   0.646   5.842  0.5698  0.1962  0.0793
 4743TIP3    H135644   6.800   0.641   5.752 -1.7557 -1.2815 -0.7551
 4743TIP3    H235645   6.825   0.588   5.892  1.0683 -0.0079 -0.7203
 4744TIP3   OH235646   0.248   1.481   3.945 -0.5882 -0.6721 -0.4988
 4744TIP3    H135647   0.291   1.545   4.001 -0.8306 -1.0897  0.1753
 4744TIP3    H235648   0.297   1.484   3.863 -1.1537  1.0330 -0.8096
 4745TIP3   OH235649   2.541   0.103   0.632  0.1360  0.5712 -0.0532
 4745TIP3    H135650   2.591   0.036   0.586  0.4818  0.7098  0.1239
 4745TIP3    H235651   2.465   0.118   0.576 -1.3640 -1.8868  1.1321
 4746TIP3   OH235652   4.068   5.328  16.852 -0.3462  0.0327 -0.0712
 4746TIP3    H135653   4.000   5.264  16.868  0.5989 -1.3515 -1.3173
 4746TIP3    H235654   4.124   5.324  16.929 -0.0540 -0.9859 -0.3210
 4747TIP3   OH235655   6.684   1.438   4.479  0.2307 -0.0451  0.1694
 4747TIP3    H135656   6.743   1.389   4.536  1.4138  2.0961  0.8918
 4747TIP3    H235657   6.640   1.500   4.538  0.5153  1.3307 -0.9976
 4748TIP3   OH235658   3.327   4.375  15.762  0.2985 -0.2408 -0.0990
 4748TIP3    H135659   3.233   4.362  15.774  0.1602  1.1262  0.5197
 4748TIP3    H235660   3.358   4.407  15.847  0.9386  1.2526 -0.8565
 4749TIP3   OH235661   1.442   4.282  12.134 -0.2511  0.4549 -0.1818
 4749TIP3    H135662   1.415   4.255  12.047  0.0576  0.5344 -0.3022
 4749TIP3    H235663   1.372   4.339  12.164 -0.7262 -0.1738 -0.0725
 4750TIP3   OH235664   5.798   4.525   4.978  0.1579 -0.1748  0.6247
 4750TIP3    H135665   5.826   4.436   4.958  0.2596  0.1534 -0.8123
 4750TIP3    H235666   5.786   4.526   5.073  0.2476 -1.6817  0.6696
 4751TIP3   OH235667   4.387   5.197  14.053  0.2820  0.0829  0.2358
 4751TIP3    H135668   4.369   5.282  14.013 -3.3364 -0.2947  0.7530
 4751TIP3    H235669   4.448   5.216  14.124  0.0531  2.1552 -0.0747
 4752TIP3   OH235670   2.184   4.156  15.334  0.0547 -0.1107 -0.0557
 4752TIP3    H135671   2.254   4.188  15.276  0.9383 -1.5304  0.1631
 4752TIP3    H235672   2.229   4.130  15.414 -0.7293 -0.9471  0.1342
 4753TIP3   OH235673   3.634   4.273   2.454  0.5790 -0.1966 -0.0477
 4753TIP3    H135674   3.613   4.350   2.402  2.2238  0.5262  0.2759
 4753TIP3    H235675   3.561   4.264   2.515  0.4408  1.2170  0.0235
 4754TIP3   OH235676   2.256   5.885  13.497  0.2579  0.5865  0.1383
 4754TIP3    H135677   2.251   5.798  13.538 -0.9513  1.5006  2.0603
 4754TIP3    H235678   2.220   5.872  13.410  0.5822 -0.9435  0.1983
 4755TIP3   OH235679   1.062   4.378  15.085 -0.2897  0.5792  0.2183
 4755TIP3    H135680   1.157   4.383  15.077 -0.1858  1.2872  1.5750
 4755TIP3    H235681   1.038   4.458  15.132 -1.2900 -0.7166  2.0241
 4756TIP3   OH235682   6.087   5.851   1.361 -0.5035  0.4725 -0.0588
 4756TIP3    H135683   6.046   5.823   1.279  0.8428 -0.3692 -0.4667
 4756TIP3    H235684   6.181   5.844   1.346 -0.2159 -0.2998  1.7445
 4757TIP3   OH235685   6.498   2.491  13.081  0.1210  0.6205  0.0134
 4757TIP3    H135686   6.434   2.430  13.118  1.3398  0.2375  1.6302
 4757TIP3    H235687   6.558   2.436  13.031  1.6266  0.2652  2.0367
 4758TIP3   OH235688   0.942   1.658  10.788  0.2700  0.0707  0.0152
 4758TIP3    H135689   0.893   1.577  10.802 -0.2391  0.5571  1.2200
 4758TIP3    H235690   0.876   1.721  10.761  0.2598  0.6200  1.2264
 4759TIP3   OH235691   2.986   1.214  15.909  0.2536 -0.3102 -0.0219
 4759TIP3    H135692   2.891   1.203  15.916  0.1614  1.0435  1.3673
 4759TIP3    H235693   3.001   1.226  15.815 -1.0166 -0.0267 -0.2131
 4760TIP3   OH235694   5.472   1.502  13.239  0.2628 -0.4353 -0.2282
 4760TIP3    H135695   5.485   1.595  13.257  1.5205 -0.7719  0.8150
 4760TIP3    H235696   5.507   1.458  13.317 -1.7274 -1.7334 -0.0115
 4761TIP3   OH235697   0.293   1.093   1.329  0.1410 -0.2522  0.0199
 4761TIP3    H135698   0.333   1.063   1.247  0.0569 -1.0612  0.2723
 4761TIP3    H235699   0.216   1.038   1.340 -0.9851  1.1829 -0.3747
 4762TIP3   OH235700   5.166   1.936  15.970  0.0890 -0.1718 -0.4944
 4762TIP3    H135701   5.214   1.972  16.044 -0.1273 -0.7191 -0.0849
 4762TIP3    H235702   5.074   1.958  15.987  0.0773  0.0041 -0.7758
 4763TIP3   OH235703   4.237   5.984   2.377 -0.1086 -0.1683 -0.7992
 4763TIP3    H135704   4.296   5.988   2.452 -2.0435  1.4856  0.7295
 4763TIP3    H235705   4.255   5.899   2.336  0.4566 -1.4788  1.9816
 4764TIP3   OH235706   2.840   5.217   4.130  0.1306 -0.6694 -0.0611
 4764TIP3    H135707   2.893   5.261   4.196 -0.1580 -0.2576 -0.1004
 4764TIP3    H235708   2.904   5.178   4.071  0.3956 -0.2280 -0.0732
 4765TIP3   OH235709   2.391   2.814  11.793 -0.2876 -0.0509  0.4789
 4765TIP3    H135710   2.342   2.733  11.779 -2.4861  0.9729  1.7812
 4765TIP3    H235711   2.369   2.841  11.882 -0.2154  2.3418 -0.1472
 4766TIP3   OH235712   2.199   3.708  12.599  0.2613 -0.6880 -0.0797
 4766TIP3    H135713   2.155   3.785  12.635 -0.5451 -0.6415 -1.1433
 4766TIP3    H235714   2.149   3.634  12.634  1.5297 -0.8061  1.6158
 4767TIP3   OH235715   2.700   3.320  16.108 -0.3667 -0.6832  0.2952
 4767TIP3    H135716   2.642   3.254  16.070  0.9441 -0.6052 -1.9896
 4767TIP3    H235717   2.644   3.398  16.114 -0.5936 -0.6000 -1.8861
 4768TIP3   OH235718   6.716   5.221   1.556 -0.0676 -0.0055 -0.2208
 4768TIP3    H135719   6.779   5.283   1.518  0.3642 -0.3202 -0.0225
 4768TIP3    H235720   6.636   5.234   1.504  0.5387 -0.4840 -1.3070
 4769TIP3   OH235721   0.539   4.287   1.303  0.5483 -0.2125  0.7747
 4769TIP3    H135722   0.568   4.346   1.233  2.7119 -1.7779  0.2291
 4769TIP3    H235723   0.445   4.280   1.291  0.5052  1.5775 -0.3489
 4770TIP3   OH235724   2.689   2.737   4.368 -0.5130 -0.3034  0.3551
 4770TIP3    H135725   2.699   2.742   4.463 -0.9321 -0.8600  0.4364
 4770TIP3    H235726   2.602   2.772   4.351  0.1360  1.2331  0.0077
 4771TIP3   OH235727   2.697   2.201  17.203 -0.5518 -0.4694  0.6869
 4771TIP3    H135728   2.713   2.218  17.296 -0.5516 -0.9882  0.7878
 4771TIP3    H235729   2.620   2.253  17.182  0.3495  0.8746  0.5821
 4772TIP3   OH235730   0.992   1.498  13.754  0.2002 -0.7579  0.1468
 4772TIP3    H135731   1.076   1.524  13.716 -0.1835  0.6466  0.2146
 4772TIP3    H235732   0.930   1.505  13.682 -0.2431  0.3844  0.6102
 4773TIP3   OH235733   2.348   5.436   2.003  0.0964 -0.4011  0.0415
 4773TIP3    H135734   2.369   5.519   1.959  0.4465  0.3376  1.5388
 4773TIP3    H235735   2.318   5.462   2.090 -1.1649 -1.7899  0.0558
 4774TIP3   OH235736   5.993   3.930   0.914  0.6359 -0.1127 -0.4518
 4774TIP3    H135737   5.912   3.977   0.934  0.4462 -1.0277  1.0910
 4774TIP3    H235738   6.046   3.993   0.865  0.9477  2.2688  2.6405
 4775TIP3   OH235739   4.001   0.880   0.609 -0.0008  1.2173 -0.1295
 4775TIP3    H135740   3.996   0.954   0.670 -0.2587  0.4254  0.8455
 4775TIP3    H235741   3.931   0.820   0.638  1.4944 -0.3519  0.4141
 4776TIP3   OH235742   4.550   5.817  11.143 -0.4043  0.0190  0.4553
 4776TIP3    H135743   4.581   5.795  11.055  0.1729 -0.8262  0.8519
 4776TIP3    H235744   4.529   5.910  11.138  0.5439  0.2176 -0.3182
 4777TIP3   OH235745   3.528   1.070   3.642 -0.6618  0.5314  0.1879
 4777TIP3    H135746   3.550   0.977   3.651 -0.3647  0.6214  0.4075
 4777TIP3    H235747   3.537   1.088   3.548  2.5388  1.1136  0.4855
 4778TIP3   OH235748   0.013   2.304  12.243  0.2588 -0.4403  0.1084
 4778TIP3    H135749  -0.046   2.252  12.189  0.9480 -3.7534  2.2773
 4778TIP3    H235750  -0.044   2.355  12.300 -0.5022 -1.0144 -0.1236
 4779TIP3   OH235751   6.311   1.332  12.382  0.4358 -0.3853 -0.1202
 4779TIP3    H135752   6.314   1.247  12.426  0.1996 -1.0575 -1.3650
 4779TIP3    H235753   6.246   1.382  12.432  1.1940 -0.6191  1.1369
 4780TIP3   OH235754   2.600   1.900  13.542  0.6371  0.1073 -0.1835
 4780TIP3    H135755   2.692   1.913  13.519  0.3795  0.7669 -0.8863
 4780TIP3    H235756   2.581   1.810  13.515  1.1509 -0.1367  0.2466
 4781TIP3   OH235757   3.517   3.864   1.757 -0.3293 -0.7534 -0.0301
 4781TIP3    H135758   3.475   3.917   1.825  1.0010 -0.9055  0.9491
 4781TIP3    H235759   3.513   3.918   1.679 -1.4493 -0.3597  0.2853
 4782TIP3   OH235760   4.306   0.348  14.604 -0.3857  0.0135  0.1779
 4782TIP3    H135761   4.249   0.300  14.663  1.6659 -1.8897  0.7501
 4782TIP3    H235762   4.394   0.336  14.640  0.5621  1.8060 -1.3143
 4783TIP3   OH235763   2.736   1.358  16.687 -0.0627 -0.2531 -0.7604
 4783TIP3    H135764   2.749   1.287  16.750 -2.0896 -1.7903 -1.9224
 4783TIP3    H235765   2.741   1.438  16.739  0.4757 -1.3331  0.9442
 4784TIP3   OH235766   0.696   4.661  14.154  0.1289 -0.1363  0.1514
 4784TIP3    H135767   0.728   4.722  14.088  1.1983 -1.1545 -0.3167
 4784TIP3    H235768   0.646   4.596  14.104  0.6336 -0.7099  0.3785
 4785TIP3   OH235769   3.267   4.027   1.639 -0.1797 -0.3804 -0.4660
 4785TIP3    H135770   3.291   4.112   1.673 -0.6496 -0.1367 -0.7240
 4785TIP3    H235771   3.231   3.980   1.714 -2.8391  0.7659 -0.9070
 4786TIP3   OH235772   4.267   4.804   2.046 -0.6726  0.1514 -0.4256
 4786TIP3    H135773   4.314   4.814   2.129  0.0797  1.4544 -0.9674
 4786TIP3    H235774   4.188   4.755   2.068  0.1559 -0.6905  0.8085
 4787TIP3   OH235775   4.744   6.502   4.257  0.1425  0.6593  0.4337
 4787TIP3    H135776   4.815   6.465   4.310  1.8553  2.7043 -0.3021
 4787TIP3    H235777   4.693   6.555   4.318  0.4230  0.7608  0.5770
 4788TIP3   OH235778   1.074   3.821   3.234 -0.0394  0.1941  0.2522
 4788TIP3    H135779   1.000   3.770   3.267 -0.4515 -0.2582 -1.2633
 4788TIP3    H235780   1.142   3.811   3.300  0.3678 -3.4328 -0.5483
 4789TIP3   OH235781   2.924   3.031   1.658  0.1087  0.4985 -0.9410
 4789TIP3    H135782   2.964   2.959   1.708 -1.2465 -0.4328 -1.1351
 4789TIP3    H235783   2.916   3.103   1.721 -1.0847 -0.4790  0.0879
 4790TIP3   OH235784   2.393   2.740  14.458  0.3015  0.3318 -0.0334
 4790TIP3    H135785   2.438   2.790  14.390 -0.1060 -0.0929 -0.6228
 4790TIP3    H235786   2.350   2.668  14.411 -1.5958  1.1276  0.3952
 4791TIP3   OH235787   5.381   5.099   5.018  0.0517  0.4884  0.8738
 4791TIP3    H135788   5.325   5.135   5.086 -0.9280  1.0860 -0.2144
 4791TIP3    H235789   5.378   5.164   4.947  0.6072 -0.3623  0.0412
 4792TIP3   OH235790   2.617   6.064   0.586 -0.4473  0.7155  0.4092
 4792TIP3    H135791   2.560   6.005   0.537 -0.8319  2.1131 -0.9063
 4792TIP3    H235792   2.631   6.020   0.669 -3.4755  0.3200  0.8061
 4793TIP3   OH235793   1.645   2.811   0.532 -0.6835 -0.2096 -0.0880
 4793TIP3    H135794   1.615   2.756   0.459 -1.0817  0.6772 -0.6041
 4793TIP3    H235795   1.705   2.874   0.491  0.5125 -0.8331  0.6516
 4794TIP3   OH235796   0.868   2.010   2.715 -0.1841 -0.4063 -0.0043
 4794TIP3    H135797   0.937   1.949   2.689  0.0841  0.3332 -1.1184
 4794TIP3    H235798   0.836   2.045   2.632 -1.3997 -0.1878  0.5449
 4795TIP3   OH235799   5.222   1.139   3.411 -0.1593  0.2631 -0.2766
 4795TIP3    H135800   5.306   1.178   3.389 -0.5233  1.0642 -0.2876
 4795TIP3    H235801   5.159   1.211   3.402 -0.8113 -0.2696 -0.0601
 4796TIP3   OH235802   2.071   0.599   3.661  0.3837  0.3427 -0.4864
 4796TIP3    H135803   2.144   0.631   3.608 -0.1920 -0.9052 -2.0979
 4796TIP3    H235804   2.055   0.511   3.628 -2.1576  0.7543 -0.4962
 4797TIP3   OH235805   2.396   0.956  16.706 -0.0626  0.7423 -0.4530
 4797TIP3    H135806   2.482   0.952  16.748 -1.1461 -2.9675  1.8525
 4797TIP3    H235807   2.410   0.921  16.618  0.8866  1.0657 -0.4393
 4798TIP3   OH235808   2.153   0.278  15.449 -0.6607  0.5686 -0.1347
 4798TIP3    H135809   2.185   0.309  15.534  0.6008  1.2437 -0.8312
 4798TIP3    H235810   2.204   0.199  15.432 -0.1885  0.9810 -0.6958
 4799TIP3   OH235811   2.667   4.287   5.024 -0.5360 -0.8256 -0.1999
 4799TIP3    H135812   2.687   4.229   4.950  0.7250 -1.4887  0.6290
 4799TIP3    H235813   2.573   4.276   5.038 -0.6499 -1.2470 -1.2419
 4800TIP3   OH235814   3.783   6.522   5.550 -0.1204 -0.1858 -0.0576
 4800TIP3    H135815   3.738   6.528   5.635  0.1367 -0.3056  0.0864
 4800TIP3    H235816   3.871   6.491   5.571  0.8878  2.4377 -0.0417
 4801TIP3   OH235817   0.365   4.066  13.802  0.5908  0.0783 -0.4294
 4801TIP3    H135818   0.322   4.010  13.736 -2.9230  0.6015  1.1917
 4801TIP3    H235819   0.350   4.021  13.885 -0.7587  2.4395  0.7160
 4802TIP3   OH235820   6.243   6.358  16.305  0.0912 -0.4492  0.2856
 4802TIP3    H135821   6.286   6.345  16.220 -1.3148  1.8226 -0.8873
 4802TIP3    H235822   6.293   6.429  16.346 -0.7394  0.1883  0.2100
 4803TIP3   OH235823   1.314   6.109  13.361 -0.2940 -0.1125 -0.0981
 4803TIP3    H135824   1.373   6.161  13.417 -0.1854 -1.0842  0.7088
 4803TIP3    H235825   1.344   6.019  13.372  0.0009 -0.2961 -2.0655
 4804TIP3   OH235826   5.147   5.561  12.981 -0.4063 -0.0300 -0.5492
 4804TIP3    H135827   5.126   5.530  13.069 -0.4303  0.0624 -0.5222
 4804TIP3    H235828   5.139   5.656  12.987  1.9380  0.1928 -0.0031
 4805TIP3   OH235829   5.714   0.569  11.579  0.2870 -0.5925 -0.0594
 4805TIP3    H135830   5.727   0.489  11.630 -0.8739 -0.7042  0.0929
 4805TIP3    H235831   5.765   0.636  11.626  0.9621 -1.1500  0.0228
 4806TIP3   OH235832   3.038   0.467  11.517 -0.5440 -0.0008 -0.0928
 4806TIP3    H135833   2.996   0.497  11.598 -0.1044 -1.1901  0.6122
 4806TIP3    H235834   3.004   0.525  11.449 -0.2009  1.6579  1.0740
 4807TIP3   OH235835   6.243   5.758   2.460  0.2348 -0.0063  0.1142
 4807TIP3    H135836   6.335   5.768   2.436  0.8183  1.3516  2.5843
 4807TIP3    H235837   6.227   5.664   2.453  1.5643 -0.1862 -1.0858
 4808TIP3   OH235838   4.975   5.370  11.981 -0.4335  0.2055  0.3355
 4808TIP3    H135839   4.942   5.302  11.923 -1.7451  1.1922 -0.1114
 4808TIP3    H235840   5.000   5.441  11.923  1.1048  0.0654  0.7827
 4809TIP3   OH235841   6.015   4.338   6.806  0.2348 -0.5947  0.2319
 4809TIP3    H135842   5.922   4.317   6.807  0.1479 -0.2498 -0.1472
 4809TIP3    H235843   6.017   4.434   6.800  0.6121 -0.6227 -0.1321
 4810TIP3   OH235844   4.353   2.771  16.465  0.6490 -0.4154 -0.6110
 4810TIP3    H135845   4.341   2.702  16.529 -0.8455  0.1163 -0.2818
 4810TIP3    H235846   4.266   2.785  16.427  0.3901  2.6369  0.7792
 4811TIP3   OH235847   4.543   1.552  10.627 -0.3911 -0.4421  0.6421
 4811TIP3    H135848   4.462   1.503  10.637 -0.7830 -0.0717 -0.5456
 4811TIP3    H235849   4.596   1.499  10.567 -0.9209  0.6686 -0.8588
 4812TIP3   OH235850   1.241   1.518   0.794  0.6436 -0.0198  0.3425
 4812TIP3    H135851   1.283   1.543   0.876  1.9212  0.1763 -0.3569
 4812TIP3    H235852   1.268   1.427   0.780  0.7241  0.0622 -0.0449
 4813TIP3   OH235853   0.130   1.799   1.529 -0.8480 -0.1387 -0.6196
 4813TIP3    H135854   0.201   1.741   1.558 -1.0717 -0.3780 -0.5495
 4813TIP3    H235855   0.095   1.836   1.610  0.6442  1.7249 -0.7443
 4814TIP3   OH235856   4.836   0.024   3.102  0.3350 -0.5032 -0.2744
 4814TIP3    H135857   4.747   0.060   3.112 -0.4050 -2.0171 -1.1563
 4814TIP3    H235858   4.885   0.095   3.060 -1.0326 -0.3865 -1.7989
 4815TIP3   OH235859   3.474   4.079   0.820  0.4816 -0.3390 -0.0072
 4815TIP3    H135860   3.566   4.055   0.826  1.0003  1.5280  0.2850
 4815TIP3    H235861   3.474   4.160   0.769 -1.2403 -1.4304 -1.9032
 4816TIP3   OH235862   4.561   2.910   3.583  0.0116 -0.1017  0.4611
 4816TIP3    H135863   4.471   2.927   3.608 -0.1000 -0.6084  0.4172
 4816TIP3    H235864   4.558   2.828   3.533  0.1044  1.2869 -1.9699
 4817TIP3   OH235865   3.168   5.652  14.478 -0.0875 -0.6689 -0.1501
 4817TIP3    H135866   3.156   5.716  14.408 -0.2290 -1.2571 -0.6776
 4817TIP3    H235867   3.099   5.673  14.542 -0.4147 -0.5811 -0.5320
 4818TIP3   OH235868   0.078   0.701   2.353 -0.3886 -0.1206 -0.6396
 4818TIP3    H135869   0.161   0.722   2.396  0.2127 -0.8840 -1.4087
 4818TIP3    H235870   0.079   0.753   2.272 -0.5074 -0.3766 -0.8076
 4819TIP3   OH235871   4.697   5.593  15.655  0.6355 -0.3280 -0.5439
 4819TIP3    H135872   4.655   5.523  15.606  0.3511  0.6190 -1.6913
 4819TIP3    H235873   4.703   5.666  15.593  1.6732  0.3959  0.3633
 4820TIP3   OH235874   6.715   1.423  12.596 -0.3490 -0.4708  0.3809
 4820TIP3    H135875   6.639   1.476  12.574  1.9484  2.8534 -0.3884
 4820TIP3    H235876   6.790   1.479  12.575  2.3273 -2.4941  3.5017
 4821TIP3   OH235877   6.621   1.318  13.558 -0.4337 -0.0073  0.1863
 4821TIP3    H135878   6.630   1.233  13.514  0.3605 -0.4097  1.0739
 4821TIP3    H235879   6.528   1.338  13.552 -0.8168 -1.4202  0.7741
 4822TIP3   OH235880   1.717   2.017  15.719 -0.0458  0.1603  0.2568
 4822TIP3    H135881   1.798   1.971  15.697 -0.0177  0.3225  0.0181
 4822TIP3    H235882   1.647   1.956  15.693 -0.0414  0.7499 -1.2597
 4823TIP3   OH235883   6.377   6.119  17.222 -0.2302 -0.2461 -0.0713
 4823TIP3    H135884   6.314   6.048  17.222 -1.8485  1.1249 -0.3017
 4823TIP3    H235885   6.347   6.178  17.153  1.8204  0.0425 -0.7893
 4824TIP3   OH235886   0.667   5.503  12.862 -0.2412  0.2346  0.4242
 4824TIP3    H135887   0.664   5.583  12.810  2.1052  0.0683 -0.0539
 4824TIP3    H235888   0.702   5.531  12.947 -0.5079 -0.1085  0.6501
 4825TIP3   OH235889   0.168   0.972   3.012 -0.1438  0.0953  0.3677
 4825TIP3    H135890   0.180   0.936   2.924 -0.1581  1.6240 -0.2945
 4825TIP3    H235891   0.237   0.930   3.064  0.7711  0.1960 -0.7060
 4826TIP3   OH235892   5.541   2.876  11.095 -0.0709 -0.4988  0.3479
 4826TIP3    H135893   5.485   2.852  11.020  2.1945 -0.4697 -1.4720
 4826TIP3    H235894   5.492   2.944  11.140 -1.1417  0.1904 -1.6968
 4827TIP3   OH235895   1.344   3.859  16.440  0.2721  0.6185 -0.3522
 4827TIP3    H135896   1.322   3.931  16.380 -1.1143 -0.0275 -0.6694
 4827TIP3    H235897   1.292   3.786  16.409  1.2144 -0.3697  0.3300
 4828TIP3   OH235898   1.961   5.043   5.588 -0.2522 -0.0557 -0.4673
 4828TIP3    H135899   1.984   5.065   5.498  0.7338 -0.5295 -0.3486
 4828TIP3    H235900   1.986   4.951   5.597  0.8041  0.3139  0.6305
 4829TIP3   OH235901   5.802   4.710  12.038 -0.2547  0.1492  0.1061
 4829TIP3    H135902   5.815   4.797  12.001  2.0482 -0.4110 -0.6219
 4829TIP3    H235903   5.760   4.726  12.122  0.2996  1.9963  0.0862
 4830TIP3   OH235904   2.689   3.676   6.559 -0.1946  0.4183  0.4854
 4830TIP3    H135905   2.671   3.687   6.652 -0.1254  0.2428  0.5200
 4830TIP3    H235906   2.778   3.639   6.556 -0.4815 -0.2727  0.3753
 4831TIP3   OH235907   4.866   0.285   3.451 -0.2190 -0.0291  0.4509
 4831TIP3    H135908   4.910   0.355   3.404  0.1091  0.3699  1.3270
 4831TIP3    H235909   4.790   0.263   3.396 -0.1019  0.7298 -0.0308
 4832TIP3   OH235910   0.408   4.776   3.906 -0.5914  0.3180  0.4650
 4832TIP3    H135911   0.486   4.828   3.929 -1.0870  0.3883  2.1345
 4832TIP3    H235912   0.380   4.738   3.989 -1.5352 -0.8556 -0.3651
 4833TIP3   OH235913   2.039   0.605   2.495 -0.1945 -0.3199 -0.0226
 4833TIP3    H135914   2.126   0.596   2.455 -0.4612  1.2017 -1.0469
 4833TIP3    H235915   2.057   0.619   2.588  0.7449  1.0158 -0.3811
 4834TIP3   OH235916   0.661   2.651  11.815  0.0213  0.7039  0.3351
 4834TIP3    H135917   0.659   2.686  11.726  1.1853  2.3437  0.9079
 4834TIP3    H235918   0.726   2.704  11.860 -0.0375 -0.5606  1.9913
 4835TIP3   OH235919   0.790   6.436  11.596  0.1192 -1.0165 -0.4481
 4835TIP3    H135920   0.708   6.411  11.640  0.2871 -1.2534 -0.2668
 4835TIP3    H235921   0.768   6.432  11.503 -0.7619  1.2776 -0.3945
 4836TIP3   OH235922   4.853   5.831   6.317  0.2512 -0.0473  0.2070
 4836TIP3    H135923   4.768   5.794   6.340  0.5737 -1.3059 -0.5718
 4836TIP3    H235924   4.857   5.914   6.366 -0.1150 -1.4213  2.7617
 4837TIP3   OH235925   6.763   4.120   3.279 -1.1445 -0.7024  0.0645
 4837TIP3    H135926   6.680   4.094   3.319 -1.0116 -2.3203 -0.5954
 4837TIP3    H235927   6.801   4.037   3.248  1.1869 -0.1412  1.2126
 4838TIP3   OH235928   2.803   5.339  11.782  0.0173 -0.1429 -0.0099
 4838TIP3    H135929   2.850   5.264  11.816  2.0363  1.0485 -0.0315
 4838TIP3    H235930   2.792   5.321  11.688 -0.0114 -0.6562  0.0919
 4839TIP3   OH235931   5.187   2.388  10.757 -0.4400  0.0124  0.0566
 4839TIP3    H135932   5.229   2.356  10.677  0.8430  0.2070  0.6218
 4839TIP3    H235933   5.131   2.316  10.785  0.8476 -0.9749  0.1990
 4840TIP3   OH235934   0.261   1.837  13.838 -0.1362 -0.1765  0.3087
 4840TIP3    H135935   0.312   1.886  13.902 -1.5448  0.0033  1.3478
 4840TIP3    H235936   0.219   1.904  13.783  2.1319 -0.3285 -1.7722
 4841TIP3   OH235937   5.472   3.566  16.221 -0.4776  0.0776  0.1264
 4841TIP3    H135938   5.537   3.635  16.214  0.4609 -0.6430  1.3723
 4841TIP3    H235939   5.425   3.568  16.138  0.9476  0.8060 -0.6856
 4842TIP3   OH235940   0.301   2.915   5.791 -0.1271  0.0535  0.0987
 4842TIP3    H135941   0.290   2.923   5.696 -1.0077 -0.1931  0.1745
 4842TIP3    H235942   0.212   2.913   5.826  0.1751  2.0557  1.1111
 4843TIP3   OH235943   0.928   5.316  14.939 -0.2166 -0.1831 -0.5984
 4843TIP3    H135944   0.942   5.410  14.925  0.1630 -0.1595 -0.0492
 4843TIP3    H235945   0.859   5.293  14.876  0.8445  0.1096 -1.9203
 4844TIP3   OH235946   3.407   0.044   4.276  0.3979 -0.7420 -0.0416
 4844TIP3    H135947   3.406  -0.027   4.340 -0.0689 -1.0893 -0.4246
 4844TIP3    H235948   3.332   0.026   4.219  1.8134 -1.4526 -1.7814
 4845TIP3   OH235949   6.536   2.348  15.278  0.1295 -0.8383  0.6780
 4845TIP3    H135950   6.473   2.287  15.240 -0.4061  0.0652  0.0798
 4845TIP3    H235951   6.585   2.296  15.342  0.1511 -2.0648 -0.3011
 4846TIP3   OH235952   0.137   3.192  11.140 -0.4113 -0.3009 -0.2171
 4846TIP3    H135953   0.215   3.235  11.104 -0.5406 -0.2697 -0.4646
 4846TIP3    H235954   0.125   3.114  11.087  0.5089 -1.2883  0.9846
 4847TIP3   OH235955   0.385   0.261  11.702  0.4825  0.9117  0.2885
 4847TIP3    H135956   0.296   0.262  11.669  0.0804  0.9802  1.3332
 4847TIP3    H235957   0.376   0.273  11.797  1.4962 -0.7637  0.6351
 4848TIP3   OH235958   0.248   1.162   1.814  0.1977 -0.1329 -0.2294
 4848TIP3    H135959   0.202   1.170   1.730  0.5918 -0.9730 -0.5317
 4848TIP3    H235960   0.340   1.153   1.790  0.2215 -1.3109  0.2522
 4849TIP3   OH235961   6.527   3.866   4.060  0.0249 -0.2490  0.3619
 4849TIP3    H135962   6.532   3.811   4.138  0.8602 -2.0165 -0.8646
 4849TIP3    H235963   6.594   3.933   4.074  1.0127 -1.2604  0.6632
 4850TIP3   OH235964   5.384   5.314  15.611  1.0504 -0.6011 -0.7119
 4850TIP3    H135965   5.379   5.390  15.669 -0.1682 -1.5366  0.4565
 4850TIP3    H235966   5.477   5.290  15.613  0.9962 -0.8055  1.1411
 4851TIP3   OH235967   3.266   5.372   5.080  0.2378 -0.3850 -0.0977
 4851TIP3    H135968   3.216   5.321   5.017  0.8737 -0.6885 -0.3692
 4851TIP3    H235969   3.225   5.353   5.164  0.1701 -0.9768 -0.2578
 4852TIP3   OH235970   1.957   5.889   3.646  0.1931  0.2823 -0.7308
 4852TIP3    H135971   2.015   5.955   3.609  3.4490 -1.1480  1.3924
 4852TIP3    H235972   1.900   5.937   3.705  0.5109  1.5025 -1.3922
 4853TIP3   OH235973   5.658   4.656  14.397 -0.0892 -0.1368 -0.2549
 4853TIP3    H135974   5.635   4.564  14.385  1.3322 -0.4758 -0.6013
 4853TIP3    H235975   5.753   4.655  14.411 -0.3498  1.0601  2.1793
 4854TIP3   OH235976   4.209   4.625   3.071  0.4928 -0.1704  0.0853
 4854TIP3    H135977   4.235   4.539   3.037  1.1581 -0.3181  0.9544
 4854TIP3    H235978   4.163   4.666   2.997 -1.4432 -1.9605  0.1827
 4855TIP3   OH235979   5.307   4.221   5.884  0.2609  0.1848  0.0499
 4855TIP3    H135980   5.280   4.306   5.850  1.3822  1.0434  1.2227
 4855TIP3    H235981   5.402   4.222   5.878  0.3115 -0.7933  0.5427
 4856TIP3   OH235982   0.786   3.172  11.018  0.5459  0.4760 -0.1290
 4856TIP3    H135983   0.693   3.148  11.025  0.8700 -1.4363 -1.6133
 4856TIP3    H235984   0.788   3.237  10.949  0.1842  1.6254  0.8968
 4857TIP3   OH235985   6.267   2.977  15.829  0.6050  0.2700 -0.4116
 4857TIP3    H135986   6.292   3.058  15.783  0.6515  0.3847 -0.1829
 4857TIP3    H235987   6.335   2.914  15.804  1.3850  0.6944  0.5455
 4858TIP3   OH235988   0.406   3.656  15.703 -0.1550 -0.3301  0.0546
 4858TIP3    H135989   0.426   3.718  15.773 -2.3667 -0.1261  0.5646
 4858TIP3    H235990   0.383   3.575  15.749 -2.6398  0.1015 -0.3168
 4859TIP3   OH235991   1.680   0.159  12.760  0.0284 -0.0092  0.1266
 4859TIP3    H135992   1.594   0.125  12.785  1.2679 -1.4671  2.6992
 4859TIP3    H235993   1.705   0.217  12.832  1.5654 -0.2934 -0.1457
 4860TIP3   OH235994   5.682   3.053   6.066  0.2741 -0.3197  0.0958
 4860TIP3    H135995   5.627   3.033   6.142  1.4400 -0.8184  0.8393
 4860TIP3    H235996   5.735   3.128   6.093 -0.0322  0.1612 -0.6115
 4861TIP3   OH235997   3.563   1.707   0.197 -0.2565  0.3480  0.0614
 4861TIP3    H135998   3.652   1.710   0.162 -0.0508 -0.8173  0.4564
 4861TIP3    H235999   3.554   1.789   0.246  1.5422 -0.6713  2.2211
 4862TIP3   OH236000   1.854   5.240   0.850  0.3534 -0.3371 -0.2313
 4862TIP3    H136001   1.947   5.246   0.870  1.0951  2.6833 -3.5746
 4862TIP3    H236002   1.813   5.308   0.905  0.3887 -0.4399 -0.0766
 4863TIP3   OH236003   0.941   6.543  12.516 -0.4162  0.2913  0.3699
 4863TIP3    H136004   1.018   6.569  12.465  0.2175  0.6772  1.4831
 4863TIP3    H236005   0.869   6.542  12.453  0.9537 -2.7706 -1.3740
 4864TIP3   OH236006   0.795   5.570   2.241  0.6303  0.7806  0.2776
 4864TIP3    H136007   0.749   5.521   2.173  1.3794  1.7254 -0.9579
 4864TIP3    H236008   0.748   5.653   2.247 -0.0652  0.3205  1.6946
 4865TIP3   OH236009   3.541   3.970   4.135  0.2237  0.1418  0.2506
 4865TIP3    H136010   3.515   4.062   4.137  1.5858  0.5539 -0.1009
 4865TIP3    H236011   3.525   3.938   4.223 -2.2245  0.1199 -0.1388
 4866TIP3   OH236012   1.956   3.131   0.981 -0.0988 -0.0450  0.4198
 4866TIP3    H136013   2.044   3.168   0.972 -0.3353  0.1010 -1.7690
 4866TIP3    H236014   1.922   3.126   0.892 -1.9344 -1.0758  1.1104
 4867TIP3   OH236015   0.678   3.455   0.179 -0.2397 -0.8483 -0.6239
 4867TIP3    H136016   0.641   3.403   0.108 -0.4056 -0.1943 -1.0326
 4867TIP3    H236017   0.763   3.484   0.145  0.1411 -1.4044 -0.1392
 4868TIP3   OH236018   4.525   5.519  11.667  0.0480 -0.4356  0.3134
 4868TIP3    H136019   4.450   5.494  11.613 -1.3990  0.2349  1.9230
 4868TIP3    H236020   4.551   5.439  11.712  0.7988 -0.8317 -0.7776
 4869TIP3   OH236021   5.397   0.371   5.583  0.0165  0.4730  0.2989
 4869TIP3    H136022   5.302   0.376   5.572  0.1078  1.2273 -0.2493
 4869TIP3    H236023   5.432   0.381   5.495  0.5773 -2.1596  0.1388
 4870TIP3   OH236024   2.616   0.198   1.733 -0.1831  0.2809  0.0707
 4870TIP3    H136025   2.641   0.226   1.644 -1.3934  0.4203 -0.2418
 4870TIP3    H236026   2.524   0.222   1.740 -0.4717 -1.0153  0.8653
 4871TIP3   OH236027   5.272   3.942  13.657 -0.0975 -0.0031 -0.1339
 4871TIP3    H136028   5.236   3.912  13.574 -0.4227 -3.1656  1.0025
 4871TIP3    H236029   5.198   3.942  13.717  0.1263  2.2849  0.2442
 4872TIP3   OH236030   4.335   4.309   5.674  0.2919 -0.6121  0.3080
 4872TIP3    H136031   4.242   4.325   5.661  0.2896  2.4693  2.9456
 4872TIP3    H236032   4.339   4.239   5.738 -0.4498  1.1234  2.3926
 4873TIP3   OH236033   1.610   2.288   4.295  0.4227 -0.8073 -0.6235
 4873TIP3    H136034   1.608   2.226   4.222 -1.0557  0.1633 -1.4519
 4873TIP3    H236035   1.624   2.373   4.254 -1.0490 -0.1687  0.1370
 4874TIP3   OH236036   5.983   5.219   0.451  0.2061  0.0532  0.4168
 4874TIP3    H136037   6.047   5.149   0.434  0.1003 -0.0185  0.3098
 4874TIP3    H236038   6.027   5.277   0.513  0.9095  0.7477 -0.7019
 4875TIP3   OH236039   2.806   4.401   3.938  0.5876 -0.0507  0.1953
 4875TIP3    H136040   2.852   4.341   3.880 -0.0156  1.0593 -1.4860
 4875TIP3    H236041   2.840   4.487   3.915  1.9501  0.2932  3.0361
 4876TIP3   OH236042   1.239   5.223   4.710 -0.2388  0.4258 -0.3087
 4876TIP3    H136043   1.215   5.194   4.798  0.7442 -1.1248 -0.5106
 4876TIP3    H236044   1.157   5.221   4.661 -0.2373 -2.4836 -0.3817
 4877TIP3   OH236045   0.196   6.630   0.580 -0.2799  0.0048  0.2935
 4877TIP3    H136046   0.128   6.660   0.640 -0.6186 -1.9413  0.9609
 4877TIP3    H236047   0.182   6.681   0.500 -2.1009  0.1214  0.6411
 4878TIP3   OH236048   2.905   2.456   0.076 -0.1153  0.6042 -0.2468
 4878TIP3    H136049   2.893   2.444   0.170 -0.8250  2.7265 -0.0225
 4878TIP3    H236050   2.997   2.432   0.061 -0.3632 -1.1329  0.6894
 4879TIP3   OH236051   4.524   0.955  12.260  0.4920 -0.3665  0.2681
 4879TIP3    H136052   4.540   1.036  12.212  1.3880 -1.1558 -0.8026
 4879TIP3    H236053   4.489   0.985  12.345 -0.5611  1.0740 -0.6123
 4880TIP3   OH236054   4.954   3.932   2.544  0.0745  0.5726 -0.0940
 4880TIP3    H136055   4.963   3.838   2.529 -0.7390  0.5753 -0.6247
 4880TIP3    H236056   4.860   3.947   2.549  0.2137  1.1910  1.1303
 4881TIP3   OH236057   5.661   0.408   4.319 -0.1591 -0.0004 -0.1446
 4881TIP3    H136058   5.716   0.425   4.396  0.2929 -2.0906  0.0338
 4881TIP3    H236059   5.576   0.385   4.355  0.0716 -1.0504 -0.2408
 4882TIP3   OH236060   1.851   4.386  11.358  0.0232  0.0436 -0.1844
 4882TIP3    H136061   1.863   4.342  11.273  0.8938  0.5201 -0.3109
 4882TIP3    H236062   1.908   4.338  11.418 -1.5066 -1.0859  0.4450
 4883TIP3   OH236063   5.123   2.340   3.291 -0.0256 -0.4180  0.1849
 4883TIP3    H136064   5.109   2.423   3.337  0.9612  1.0722 -2.0218
 4883TIP3    H236065   5.035   2.307   3.274 -0.5161  1.2055 -0.5993
 4884TIP3   OH236066   0.432   5.535  13.162  0.1136 -0.3964 -0.2785
 4884TIP3    H136067   0.383   5.617  13.168  2.1054  0.8805 -0.4643
 4884TIP3    H236068   0.388   5.476  13.223 -1.4331  0.7711 -0.2142
 4885TIP3   OH236069   3.147   4.307   1.997  0.6485 -0.1763 -1.0170
 4885TIP3    H136070   3.222   4.367   1.997  1.7254 -1.4648 -0.3961
 4885TIP3    H236071   3.123   4.298   2.089 -1.0293  1.0643 -1.2736
 4886TIP3   OH236072   4.192   6.459   2.614 -0.2076  0.2169  0.5238
 4886TIP3    H136073   4.113   6.505   2.585 -1.2784 -2.3117 -0.8777
 4886TIP3    H236074   4.164   6.409   2.690 -0.1662 -1.0827 -0.2730
 4887TIP3   OH236075   1.598   6.037  11.697 -0.2336 -0.2567  0.0710
 4887TIP3    H136076   1.519   5.986  11.715 -0.9273  1.2323  1.5130
 4887TIP3    H236077   1.651   6.027  11.776  1.2845 -1.5990 -1.0494
 4888TIP3   OH236078   6.066   2.301  14.474 -0.3438  0.4232 -0.0573
 4888TIP3    H136079   5.974   2.301  14.502 -0.3569 -2.1311  0.0767
 4888TIP3    H236080   6.115   2.292  14.556 -0.0645 -0.1292 -0.2860
 4889TIP3   OH236081   4.518   1.116  11.264  0.2608  0.0589  0.6164
 4889TIP3    H136082   4.561   1.092  11.346  0.8126  0.8066  0.5600
 4889TIP3    H236083   4.499   1.210  11.274 -0.4243 -0.0281  0.2212
 4890TIP3   OH236084   4.089   2.556   6.663  0.3134 -0.3018 -0.0687
 4890TIP3    H136085   4.142   2.504   6.603  2.1595  2.4744 -1.0372
 4890TIP3    H236086   4.131   2.642   6.664 -2.5066  1.2055  1.4723
 4891TIP3   OH236087   2.384   5.680   5.688 -0.2549  0.2328  0.5289
 4891TIP3    H136088   2.461   5.736   5.673  0.2435 -0.8670 -1.3918
 4891TIP3    H236089   2.407   5.625   5.762  2.3180 -2.3701 -1.9284
 4892TIP3   OH236090   0.022   3.076   0.783  0.4010  0.9566 -0.2882
 4892TIP3    H136091  -0.049   3.110   0.728 -1.1431  0.7048  1.4734
 4892TIP3    H236092   0.023   3.134   0.859  0.8074 -0.1818  0.6018
 4893TIP3   OH236093   2.993   6.518  11.031 -0.5298  0.2225 -0.0169
 4893TIP3    H136094   3.085   6.498  11.049 -0.4412  0.9013  0.3097
 4893TIP3    H236095   2.987   6.522  10.936 -0.1378  0.5653 -0.0275
 4894TIP3   OH236096   6.679   1.098   1.341  0.4941 -0.2882 -0.1627
 4894TIP3    H136097   6.612   1.030   1.347  0.3342 -0.0645  0.7023
 4894TIP3    H236098   6.734   1.071   1.267 -1.1541  0.0795 -1.5931
 4895TIP3   OH236099   0.038   3.206   5.646 -0.7750  0.1415  0.1960
 4895TIP3    H136100   0.092   3.282   5.625  0.6057 -0.9345 -0.3434
 4895TIP3    H236101   0.037   3.202   5.742  0.7552 -0.2182  0.2229
 4896TIP3   OH236102   3.377   0.400  14.235  0.6327 -0.1156 -0.0899
 4896TIP3    H136103   3.397   0.325  14.180 -1.1873  0.7664 -2.1369
 4896TIP3    H236104   3.460   0.422  14.278  1.6095 -2.1790 -0.7959
 4897TIP3   OH236105   1.359   1.218   0.188 -0.2429  0.2406  0.2830
 4897TIP3    H136106   1.312   1.239   0.268  1.2512  2.3067  0.7060
 4897TIP3    H236107   1.291   1.213   0.120 -1.3451  0.1548  1.3699
 4898TIP3   OH236108   3.969   1.598  14.469 -0.0367  0.2508  0.6507
 4898TIP3    H136109   3.937   1.683  14.501 -0.8504  0.5640 -0.8850
 4898TIP3    H236110   4.010   1.618  14.384  0.1913 -0.8292  0.4867
 4899TIP3   OH236111   4.991   1.529  13.116  0.1730  0.1081 -0.2179
 4899TIP3    H136112   4.939   1.543  13.195  0.5447  2.0793 -0.2773
 4899TIP3    H236113   4.927   1.531  13.045  0.1459  1.2513 -0.1822
 4900TIP3   OH236114   4.925   3.884   6.109 -0.1689  0.0356 -0.2716
 4900TIP3    H136115   4.991   3.871   6.042 -0.3386  2.0312 -0.8836
 4900TIP3    H236116   4.844   3.902   6.061 -0.7435 -0.4403  0.4773
 4901TIP3   OH236117   1.370   2.614   5.334  0.2094 -0.2065 -0.5267
 4901TIP3    H136118   1.317   2.606   5.254 -0.8180 -1.5412  0.2447
 4901TIP3    H236119   1.373   2.708   5.352 -1.3454 -0.0527 -0.9631
 4902TIP3   OH236120   3.049   1.832  11.985  0.4862 -1.0686  0.1138
 4902TIP3    H136121   3.026   1.798  12.072  0.3859 -2.5887 -0.4844
 4902TIP3    H236122   3.009   1.770  11.924 -0.3826  0.5688 -1.0618
 4903TIP3   OH236123   0.348   3.365  13.336 -0.1961  0.1201 -0.2116
 4903TIP3    H136124   0.262   3.332  13.310 -1.3543  2.4932  0.3474
 4903TIP3    H236125   0.377   3.304  13.405 -1.3903 -0.7370 -0.4324
 4904TIP3   OH236126   1.762   5.845   1.370  0.4688  0.5840  0.6945
 4904TIP3    H136127   1.798   5.759   1.389  0.9998  0.6941  0.2135
 4904TIP3    H236128   1.693   5.829   1.306  2.5639  0.7680 -1.7903
 4905TIP3   OH236129   2.612   0.913  13.584 -0.3468  0.3897 -0.7540
 4905TIP3    H136130   2.572   0.827  13.569  0.4409 -0.0975 -0.1441
 4905TIP3    H236131   2.539   0.969  13.612 -0.7159 -0.3242 -0.2520
 4906TIP3   OH236132   0.112   6.483   6.278  0.0577  0.1083  0.3811
 4906TIP3    H136133   0.158   6.454   6.358  1.2532  0.1929 -0.2550
 4906TIP3    H236134   0.097   6.402   6.229 -0.2903  0.1060  0.4895
 4907TIP3   OH236135   6.275   0.470  16.856 -0.3778 -0.0577  0.2519
 4907TIP3    H136136   6.238   0.420  16.783 -1.1096 -1.0909  1.3093
 4907TIP3    H236137   6.226   0.552  16.855 -0.1478  0.0874 -0.6122
 4908TIP3   OH236138   6.263   2.953   1.040 -0.5006  0.6461 -0.1229
 4908TIP3    H136139   6.353   2.932   1.066 -0.7765  1.4821  1.6796
 4908TIP3    H236140   6.208   2.909   1.105 -1.5221 -1.0883 -2.0582
 4909TIP3   OH236141   6.554   4.583  10.578  0.0152  0.2914 -0.1215
 4909TIP3    H136142   6.487   4.642  10.543 -0.5472 -0.1852  0.1362
 4909TIP3    H236143   6.581   4.625  10.660 -1.3016 -0.4220  0.7202
 4910TIP3   OH236144   2.184   4.629   5.143 -0.1776  0.2646 -0.2666
 4910TIP3    H136145   2.208   4.558   5.084 -0.0851  0.3749 -0.3607
 4910TIP3    H236146   2.162   4.702   5.086 -1.2130  0.0237 -0.2029
 4911TIP3   OH236147   3.140   6.395  12.268 -0.1347 -0.9987  0.5147
 4911TIP3    H136148   3.064   6.438  12.308 -0.0819 -0.1004 -0.3144
 4911TIP3    H236149   3.103   6.337  12.201 -0.0735  1.1818 -1.5584
 4912TIP3   OH236150   4.072   4.404   5.609 -0.0676  0.2619 -0.0347
 4912TIP3    H136151   4.052   4.486   5.654 -0.4061  0.4645 -0.5343
 4912TIP3    H236152   3.990   4.355   5.612 -0.3294  0.6005 -1.0776
 4913TIP3   OH236153   5.073   3.818  13.921  0.0396 -0.6223  0.0154
 4913TIP3    H136154   5.158   3.798  13.960 -0.6759  0.6127  2.4186
 4913TIP3    H236155   5.073   3.913  13.908 -0.6580 -0.7147 -0.8148
 4914TIP3   OH236156   4.065   0.439   1.712  0.1749 -0.2472  0.2458
 4914TIP3    H136157   4.115   0.504   1.761 -0.4776  0.9683 -0.6396
 4914TIP3    H236158   4.047   0.370   1.775 -0.1056  0.9724  1.5562
 4915TIP3   OH236159   1.784   6.415  16.251  0.1230  0.1086  0.0772
 4915TIP3    H136160   1.828   6.370  16.179  0.6580  0.6880  0.0387
 4915TIP3    H236161   1.695   6.379  16.250 -0.8740  2.2804 -2.8223
 4916TIP3   OH236162   5.466   3.890  15.811  0.3626 -0.0745 -0.4555
 4916TIP3    H136163   5.403   3.939  15.757 -0.7818 -2.0100 -1.0013
 4916TIP3    H236164   5.551   3.910  15.773 -0.2306  0.2545 -1.6615
 4917TIP3   OH236165   0.173   5.092   5.850 -0.3022 -0.0132 -0.0675
 4917TIP3    H136166   0.121   5.079   5.770 -1.2418  1.0570  0.3380
 4917TIP3    H236167   0.230   5.166   5.829 -0.0619 -0.1696  0.0304
 4918TIP3   OH236168   5.355   4.710   2.623  0.2364 -0.0811 -0.1743
 4918TIP3    H136169   5.311   4.669   2.548 -1.7020 -0.9182  1.3271
 4918TIP3    H236170   5.388   4.636   2.674  2.9331  0.5095 -0.8835
 4919TIP3   OH236171   3.133   0.076  14.408  0.0599  0.5803 -0.2459
 4919TIP3    H136172   3.063   0.016  14.432  0.0246  0.7133 -0.0110
 4919TIP3    H236173   3.206   0.052  14.465  0.5802 -0.2914 -1.2560
 4920TIP3   OH236174   0.896   5.168   6.196  0.0675 -0.3462  0.3755
 4920TIP3    H136175   0.919   5.203   6.282 -1.3525 -0.8309  0.9842
 4920TIP3    H236176   0.807   5.201   6.179  0.9046  1.1079 -1.6769
 4921TIP3   OH236177   0.108   2.095   4.933  0.0024  0.0690 -0.2125
 4921TIP3    H136178   0.090   2.168   4.992  3.4534  2.9361 -2.2891
 4921TIP3    H236179   0.154   2.031   4.988 -0.7251  0.6187  1.0896
 4922TIP3   OH236180   6.221   4.371   3.325  0.2867  0.1233 -0.0200
 4922TIP3    H136181   6.145   4.391   3.379 -0.2192 -1.0013 -0.2875
 4922TIP3    H236182   6.277   4.316   3.380 -0.1905 -0.9586 -0.5825
 4923TIP3   OH236183   3.634   2.267   2.716 -0.7043  0.4664 -0.2042
 4923TIP3    H136184   3.555   2.262   2.663 -0.6751  4.0483 -0.8838
 4923TIP3    H236185   3.704   2.236   2.659 -1.3237 -0.6090 -0.3881
 4924TIP3   OH236186   6.017   5.281  14.141 -0.2906  0.1598  0.1505
 4924TIP3    H136187   6.061   5.328  14.070 -0.2100 -0.2938 -0.1073
 4924TIP3    H236188   5.971   5.209  14.097 -0.5069  0.0696  0.5218
 4925TIP3   OH236189   5.086   6.251   0.718  0.0539  0.0903  0.3419
 4925TIP3    H136190   5.094   6.344   0.700  0.6682  0.1718  1.0292
 4925TIP3    H236191   5.042   6.216   0.640  0.9710  0.7353 -0.4887
 4926TIP3   OH236192   6.696   4.305   2.576 -0.1101 -0.1973 -0.3283
 4926TIP3    H136193   6.606   4.291   2.550 -0.2882 -0.0609  0.1929
 4926TIP3    H236194   6.698   4.279   2.668  1.0060 -2.9051 -1.0189
 4927TIP3   OH236195   1.660   2.066   3.681  0.1440  0.1508 -0.0110
 4927TIP3    H136196   1.620   2.003   3.741  2.6576 -2.7527 -1.0509
 4927TIP3    H236197   1.632   2.037   3.594 -0.0745  1.6536 -0.4664
 4928TIP3   OH236198   1.327   6.607   2.527 -0.1896 -0.8781 -0.2356
 4928TIP3    H136199   1.402   6.601   2.468 -1.4279  0.2359 -2.0372
 4928TIP3    H236200   1.348   6.679   2.586 -0.3306  0.3061 -1.5738
 4929TIP3   OH236201   5.816   2.705   2.549  0.0808 -1.0161  0.3701
 4929TIP3    H136202   5.881   2.709   2.619 -0.3865 -1.4659  0.8367
 4929TIP3    H236203   5.738   2.670   2.591 -1.1539  1.4448  0.3425
 4930TIP3   OH236204   2.957   4.440   3.633 -0.5754 -0.2754 -0.1792
 4930TIP3    H136205   2.915   4.468   3.551  0.5431 -1.0299 -1.0313
 4930TIP3    H236206   2.958   4.344   3.628 -1.6802 -0.4150  1.3490
 4931TIP3   OH236207   5.832   3.836  15.270  0.1465 -0.8490 -0.1478
 4931TIP3    H136208   5.830   3.802  15.359 -2.0596 -2.9662 -0.8985
 4931TIP3    H236209   5.843   3.758  15.215 -0.5346  0.1509 -1.7794
 4932TIP3   OH236210   4.674   6.688   1.382 -1.0639 -0.3447 -0.0396
 4932TIP3    H136211   4.611   6.760   1.384  0.1005  0.6945  0.6465
 4932TIP3    H236212   4.709   6.685   1.471  1.6411  0.7539 -0.9687
 4933TIP3   OH236213   2.980   4.376  15.051 -0.0655 -0.0551 -0.1650
 4933TIP3    H136214   3.067   4.405  15.079 -0.1313  1.4604 -1.4281
 4933TIP3    H236215   2.934   4.357  15.133  0.8181  1.0342  0.6142
 4934TIP3   OH236216   5.846   3.498   5.668  0.1105  0.4319  0.4665
 4934TIP3    H136217   5.788   3.551   5.614 -0.4158 -0.5264  0.0723
 4934TIP3    H236218   5.796   3.479   5.747 -0.0958 -0.2960  0.1766
 4935TIP3   OH236219   2.364   6.096   4.580  0.0124  0.2311 -0.5834
 4935TIP3    H136220   2.408   6.012   4.573 -0.6586 -0.1333 -0.5996
 4935TIP3    H236221   2.398   6.136   4.660  0.8612  0.2639 -0.9584
 4936TIP3   OH236222   0.128   0.042   3.659 -0.0956  0.5456  0.7267
 4936TIP3    H136223   0.223   0.043   3.670  0.0310 -0.6926 -0.0738
 4936TIP3    H236224   0.113   0.077   3.572 -0.4405  1.4756  1.1483
 4937TIP3   OH236225   2.898   2.009   6.155  0.2383  0.2222  0.8799
 4937TIP3    H136226   2.987   2.045   6.153  0.2748  0.1890  1.5280
 4937TIP3    H236227   2.863   2.039   6.239  0.0226 -0.6648  1.1193
 4938TIP3   OH236228   0.411   6.778  14.963  0.2979  0.2848  0.3061
 4938TIP3    H136229   0.477   6.726  14.918 -0.3753 -0.6152  0.3512
 4938TIP3    H236230   0.448   6.792  15.050 -0.4480 -2.0109  1.0549
 4939TIP3   OH236231   6.497   0.887   2.061  0.3416  0.4406  0.0518
 4939TIP3    H136232   6.482   0.878   2.155  0.9872  0.6210  0.1747
 4939TIP3    H236233   6.499   0.982   2.046  0.7949  0.4133 -0.0542
 4940TIP3   OH236234   2.329   3.714  11.736 -0.1391  0.3124 -0.2604
 4940TIP3    H136235   2.302   3.749  11.651 -3.0944 -0.5143  0.2279
 4940TIP3    H236236   2.290   3.773  11.800  1.6015  0.6166  0.5806
 4941TIP3   OH236237   0.752   2.672  16.956 -0.4466  1.2141 -0.6417
 4941TIP3    H136238   0.773   2.744  16.898  0.2513  0.3680 -1.4668
 4941TIP3    H236239   0.753   2.594  16.900  2.5430  0.0306  0.8122
 4942TIP3   OH236240   3.944   5.770   0.193 -0.4968  0.4372  0.7211
 4942TIP3    H136241   4.006   5.829   0.235  0.1727  0.6219 -0.4701
 4942TIP3    H236242   3.994   5.690   0.175  0.2102  1.4499 -2.4588
 4943TIP3   OH236243   1.353   5.339  12.720 -0.1261  0.0215 -0.3138
 4943TIP3    H136244   1.381   5.264  12.667 -1.0724 -0.7905  0.3037
 4943TIP3    H236245   1.404   5.332  12.801 -0.6633 -0.3196 -0.0012
 4944TIP3   OH236246   3.400   6.738  12.601 -0.2374 -0.1601 -0.5079
 4944TIP3    H136247   3.416   6.686  12.522  0.3478 -1.4283  0.4100
 4944TIP3    H236248   3.313   6.710  12.630  0.4402 -1.3707  0.4861
 4945TIP3   OH236249   2.640   3.626   1.115  0.2265  0.4852 -0.1131
 4945TIP3    H136250   2.692   3.670   1.181  1.1696  0.7745 -1.0174
 4945TIP3    H236251   2.574   3.691   1.089  0.2541  0.5916  0.0858
 4946TIP3   OH236252   1.277   0.540   1.922 -0.3761 -0.6161  0.2875
 4946TIP3    H136253   1.316   0.557   1.836  1.5818 -2.2971  0.7747
 4946TIP3    H236254   1.307   0.612   1.977  0.1330 -0.6719  0.0850
 4947TIP3   OH236255   6.467   4.147  11.662  0.5626  0.0406 -0.2556
 4947TIP3    H136256   6.518   4.073  11.696  1.6618  0.6235 -0.5531
 4947TIP3    H236257   6.495   4.221  11.715 -1.2790  0.0989  0.7107
 4948TIP3   OH236258   4.422   1.979   4.752 -0.1951  0.0624 -0.4504
 4948TIP3    H136259   4.442   1.950   4.841 -0.1567 -1.0071 -0.7826
 4948TIP3    H236260   4.491   1.939   4.698  0.1564  1.2306 -0.8837
 4949TIP3   OH236261   6.382   5.802   5.040  0.8652  0.1520  0.2162
 4949TIP3    H136262   6.343   5.793   5.127  1.1557  1.5616  0.5160
 4949TIP3    H236263   6.476   5.792   5.055  1.2120  3.0369  0.5658
 4950TIP3   OH236264   3.780   2.928   0.208  0.4025  0.1808  0.4526
 4950TIP3    H136265   3.813   2.839   0.209 -1.3352 -0.5070  2.1079
 4950TIP3    H236266   3.856   2.982   0.186  0.9297 -1.8495 -3.5612
 4951TIP3   OH236267   6.211   2.505  16.217  0.1917 -0.3733 -0.1560
 4951TIP3    H136268   6.155   2.459  16.279 -0.6919  0.6086 -0.1920
 4951TIP3    H236269   6.300   2.478  16.240 -0.3214 -3.2298 -1.1431
 4952TIP3   OH236270   5.222   2.664   0.331  0.1200  0.4311  0.4713
 4952TIP3    H136271   5.313   2.693   0.337 -0.4136  1.9367  2.1354
 4952TIP3    H236272   5.173   2.743   0.313 -1.1887  0.3667  3.1847
 4953TIP3   OH236273   1.279   2.419   5.163 -0.2801  0.4021 -0.5500
 4953TIP3    H136274   1.309   2.358   5.096 -1.7697 -0.5031 -0.4295
 4953TIP3    H236275   1.311   2.383   5.246 -0.1862  0.4095 -0.5834
 4954TIP3   OH236276   5.724   5.347  14.200 -0.8062 -0.3299 -0.4700
 4954TIP3    H136277   5.691   5.280  14.260 -0.7126  0.9637  1.0817
 4954TIP3    H236278   5.819   5.338  14.205 -0.7466  0.7774  0.8036
 4955TIP3   OH236279   0.786   4.313  12.837 -0.1565 -0.2079  0.4570
 4955TIP3    H136280   0.846   4.388  12.828 -1.3554  0.7661  0.3673
 4955TIP3    H236281   0.711   4.336  12.782 -0.4843 -1.5514  0.3207
 4956TIP3   OH236282   6.151   6.674  13.357  0.1658  0.1521 -0.0417
 4956TIP3    H136283   6.219   6.652  13.292 -0.1066  1.5609 -0.8345
 4956TIP3    H236284   6.162   6.608  13.425  0.3952 -1.4594 -1.5663
 4957TIP3   OH236285   2.464   2.447   0.479  0.3026 -0.0114 -0.9488
 4957TIP3    H136286   2.391   2.404   0.435  0.4972 -2.1356  0.6464
 4957TIP3    H236287   2.426   2.481   0.560  1.0678 -1.3408  0.0061
 4958TIP3   OH236288   0.292   5.795  11.154 -0.2450 -0.0402 -0.2045
 4958TIP3    H136289   0.207   5.768  11.121  0.2078 -0.2828 -1.1838
 4958TIP3    H236290   0.356   5.751  11.098  0.5207  1.9035 -0.9694
 4959TIP3   OH236291   6.542   1.611   0.807 -0.0211 -0.1236 -0.0337
 4959TIP3    H136292   6.563   1.675   0.875  2.1675  1.3940 -2.0180
 4959TIP3    H236293   6.490   1.660   0.743  1.6780 -0.2297 -1.5796
 4960TIP3   OH236294   5.893   6.786   5.323 -0.0870  0.4460 -0.2246
 4960TIP3    H136295   5.942   6.868   5.309 -2.0995  1.6473 -0.6237
 4960TIP3    H236296   5.953   6.731   5.373  2.6762  0.8147 -2.8339
 4961TIP3   OH236297   6.489   2.399  16.284  0.2227  0.2944  0.2861
 4961TIP3    H136298   6.582   2.393  16.264  0.1674 -0.9040  0.3543
 4961TIP3    H236299   6.470   2.322  16.337 -1.0731 -0.2045 -0.8366
 4962TIP3   OH236300   1.616   4.809  16.990  0.5099 -0.0697  0.0736
 4962TIP3    H136301   1.573   4.894  16.994  0.0369 -0.1724 -1.9624
 4962TIP3    H236302   1.695   4.820  17.043  0.8446  1.8790 -0.7538
 4963TIP3   OH236303   0.985   1.332   2.938  0.6230  0.7112  1.1487
 4963TIP3    H136304   1.061   1.358   2.990 -0.2040  1.3344  2.1166
 4963TIP3    H236305   1.008   1.354   2.848  1.7961  0.3617  1.3529
 4964TIP3   OH236306   0.766   1.775  14.098 -0.7882  0.0175  0.7489
 4964TIP3    H136307   0.820   1.700  14.073 -0.9627 -0.0411  0.5342
 4964TIP3    H236308   0.732   1.808  14.014  0.6291  1.3768  0.6802
 4965TIP3   OH236309   4.560   5.880  14.736 -0.0386 -0.2689 -0.2778
 4965TIP3    H136310   4.603   5.910  14.816 -0.1902 -0.6256 -0.0629
 4965TIP3    H236311   4.630   5.840  14.685  0.4829  1.7757 -1.2428
 4966TIP3   OH236312   5.289   5.541  13.810  0.2937  0.1384 -0.0978
 4966TIP3    H136313   5.210   5.499  13.844 -1.4233  1.0285 -2.6599
 4966TIP3    H236314   5.278   5.539  13.715  1.7429  3.2982 -0.4608
 4967TIP3   OH236315   5.479   1.863  15.259 -0.3278 -0.2376 -0.3355
 4967TIP3    H136316   5.469   1.779  15.215 -2.0913  0.4715 -1.3603
 4967TIP3    H236317   5.397   1.910  15.242  0.6936  1.7884  0.0226
 4968TIP3   OH236318   3.988   2.492   0.788  0.5719 -0.7519 -0.3036
 4968TIP3    H136319   3.957   2.408   0.753 -1.5429 -0.3661  0.5417
 4968TIP3    H236320   3.912   2.550   0.784  1.1842  0.2934  1.7490
 4969TIP3   OH236321   6.283   6.425   2.701 -0.5372  0.8001 -0.2104
 4969TIP3    H136322   6.332   6.379   2.770 -1.5775 -0.8816 -0.5150
 4969TIP3    H236323   6.206   6.370   2.687 -0.9919  1.7874 -1.8339
 4970TIP3   OH236324   5.138   0.969   5.528 -0.1142 -0.2914  0.3150
 4970TIP3    H136325   5.107   0.982   5.438 -0.6164 -0.5102  0.4541
 4970TIP3    H236326   5.228   1.002   5.527 -0.4362  0.5984 -0.0303
 4971TIP3   OH236327   1.170   2.682   4.047 -0.1558 -0.7004 -0.2883
 4971TIP3    H136328   1.138   2.626   3.977  1.3454 -2.0726  0.0673
 4971TIP3    H236329   1.265   2.674   4.044 -0.0082 -0.0174  1.2853
 4972TIP3   OH236330   5.082   2.334  12.745  0.1820 -0.2769  0.1331
 4972TIP3    H136331   5.045   2.414  12.781 -0.6869 -0.4740 -0.2981
 4972TIP3    H236332   5.130   2.362  12.667  1.0349 -0.0123  0.7363
 4973TIP3   OH236333   4.561   2.212   4.919  0.3598  0.0687  0.3946
 4973TIP3    H136334   4.656   2.199   4.915  0.4265  0.7427 -0.1866
 4973TIP3    H236335   4.529   2.183   4.834  0.1516  0.7558  0.2396
 4974TIP3   OH236336   5.937   1.394   2.184 -0.2266  0.3825  0.0786
 4974TIP3    H136337   6.025   1.372   2.214 -0.0446  0.3017 -0.5064
 4974TIP3    H236338   5.881   1.383   2.262  0.0827 -0.7303  0.1521
 4975TIP3   OH236339   0.537   5.120  11.152  0.2021 -0.5676 -0.2394
 4975TIP3    H136340   0.583   5.201  11.130 -0.2081 -0.2555  0.0398
 4975TIP3    H236341   0.465   5.115  11.089 -0.4287 -0.1424  0.4353
 4976TIP3   OH236342   5.557   2.316   3.953  0.4314  0.3066  0.4522
 4976TIP3    H136343   5.574   2.408   3.931  0.8760  0.0343 -0.3684
 4976TIP3    H236344   5.539   2.317   4.047 -1.0963  1.4423  0.1945
 4977TIP3   OH236345   1.590   4.243   1.067  0.1647 -0.4616  0.3402
 4977TIP3    H136346   1.537   4.271   0.992  1.1084 -1.9398 -0.9283
 4977TIP3    H236347   1.532   4.254   1.143 -0.7478  1.2460 -0.5593
 4978TIP3   OH236348   2.936   0.106   0.541  0.0122  0.2333  0.4274
 4978TIP3    H136349   2.882   0.184   0.529 -1.9354 -1.2593 -1.2108
 4978TIP3    H236350   2.925   0.084   0.634 -0.3011  1.2808  0.6494
 4979TIP3   OH236351   5.629   6.720  14.595  0.6869 -0.1730  0.3004
 4979TIP3    H136352   5.711   6.679  14.620  0.6458 -0.6493 -0.3294
 4979TIP3    H236353   5.566   6.689  14.659  0.4322 -1.9390 -0.7380
 4980TIP3   OH236354   1.278   1.532   3.731  0.2449  0.0146 -0.5066
 4980TIP3    H136355   1.192   1.524   3.690  1.0429 -0.7684 -2.1443
 4980TIP3    H236356   1.267   1.493   3.817 -1.1513  0.3543 -0.5011
 4981TIP3   OH236357   0.473   0.076   5.575  0.6689 -0.4378 -0.4755
 4981TIP3    H136358   0.389   0.033   5.564  0.5197 -0.0473 -0.8894
 4981TIP3    H236359   0.468   0.117   5.661  0.8731 -1.3597 -0.0053
 4982TIP3   OH236360   5.200   2.285  11.502  0.3908 -0.4825 -0.2990
 4982TIP3    H136361   5.139   2.355  11.480 -1.4301 -1.1282  2.3118
 4982TIP3    H236362   5.183   2.216  11.437  0.6514  0.5560 -1.5181
 4983TIP3   OH236363   2.973   1.896  16.233  0.0883  0.4182 -0.1313
 4983TIP3    H136364   2.886   1.893  16.272  0.1526  1.0733  0.0904
 4983TIP3    H236365   3.032   1.904  16.308  0.3233  0.1647 -0.2896
 4984TIP3   OH236366   3.605   1.777   5.180  0.3039  0.3423  0.8493
 4984TIP3    H136367   3.598   1.684   5.200  0.2495  0.0461 -0.4578
 4984TIP3    H236368   3.547   1.790   5.105 -1.8425  1.9924  2.6490
 4985TIP3   OH236369   3.884   1.886   2.118  0.3211 -0.2607 -0.3950
 4985TIP3    H136370   3.885   1.874   2.023  0.0228  0.0963 -0.4493
 4985TIP3    H236371   3.820   1.822   2.150  1.9912 -1.8833 -0.1930
 4986TIP3   OH236372   3.128   6.197  12.460  1.0867  0.0134  0.4170
 4986TIP3    H136373   3.113   6.242  12.377  0.2167  0.7793  0.9756
 4986TIP3    H236374   3.168   6.113  12.435  0.0434 -0.1373 -0.8277
 4987TIP3   OH236375   5.976   2.864   3.545 -0.0498 -0.2045 -0.1790
 4987TIP3    H136376   5.962   2.824   3.459 -1.0449  0.4783 -0.3483
 4987TIP3    H236377   5.996   2.791   3.602 -1.7918 -0.9782 -0.4867
 4988TIP3   OH236378   6.319   0.554  14.337 -0.1016  0.1481 -0.0010
 4988TIP3    H136379   6.231   0.516  14.336  0.5748 -1.5070  0.4271
 4988TIP3    H236380   6.376   0.483  14.367  1.4687  1.0090 -0.7838
 4989TIP3   OH236381   1.171   6.158   0.537 -0.2640 -0.0011 -0.7640
 4989TIP3    H136382   1.179   6.159   0.633 -0.8190 -0.4663 -0.7134
 4989TIP3    H236383   1.136   6.072   0.516  1.2640 -0.4778 -1.5120
 4990TIP3   OH236384   1.553   0.134  13.309 -0.1364 -0.1118  0.6296
 4990TIP3    H136385   1.535   0.089  13.226  1.8675  0.4044 -0.1418
 4990TIP3    H236386   1.639   0.102  13.335  0.5479  1.8647  0.9939
 4991TIP3   OH236387   5.594   5.367   4.651  0.0244 -0.2948 -0.8708
 4991TIP3    H136388   5.689   5.381   4.652 -0.0732  0.3773 -0.6595
 4991TIP3    H236389   5.582   5.294   4.591  0.9290 -2.3357  1.2797
 4992TIP3   OH236390   0.047   3.039  16.118  0.4462  0.0221  0.2620
 4992TIP3    H136391   0.044   3.128  16.083 -1.3233 -0.0642  0.1021
 4992TIP3    H236392   0.014   3.048  16.208 -0.8235 -0.6019 -0.1177
 4993TIP3   OH236393   3.853   5.290  10.695  0.1765  0.0667 -0.1358
 4993TIP3    H136394   3.930   5.344  10.715 -1.0073  1.8148 -0.0378
 4993TIP3    H236395   3.819   5.266  10.781 -0.3130  0.7057 -0.1455
 4994TIP3   OH236396   0.416   4.924  13.684  0.2069  0.2846 -0.2617
 4994TIP3    H136397   0.506   4.933  13.714  0.2494 -0.8731  0.0166
 4994TIP3    H236398   0.365   4.980  13.742  0.5845 -0.1351  0.4854
 4995TIP3   OH236399   6.355   3.597   3.510  0.1866 -0.1914 -0.2124
 4995TIP3    H136400   6.428   3.655   3.531  0.9297 -0.9575 -0.6292
 4995TIP3    H236401   6.297   3.604   3.586 -0.1476  1.6881 -0.5791
 4996TIP3   OH236402   5.421   5.902   3.308  0.0709  0.5845 -0.4667
 4996TIP3    H136403   5.382   5.870   3.390 -0.1499  1.6087 -0.1588
 4996TIP3    H236404   5.353   5.887   3.242  0.2743 -0.3033 -0.4859
 4997TIP3   OH236405   1.663   1.343  14.717 -0.3450 -0.8121 -0.0248
 4997TIP3    H136406   1.728   1.295  14.767 -1.3197 -2.1473  0.0180
 4997TIP3    H236407   1.583   1.290  14.724 -1.5149  0.8895  0.1356
 4998TIP3   OH236408   5.110   0.975  14.255 -0.7823 -0.4362 -0.1952
 4998TIP3    H136409   5.068   0.951  14.173 -0.5316  0.8613 -0.7312
 4998TIP3    H236410   5.162   1.052  14.234  1.2835 -1.5342  0.6328
 4999TIP3   OH236411   2.963   5.480  15.470  0.2715  0.1021  0.2629
 4999TIP3    H136412   2.967   5.386  15.451 -0.4264  0.1513 -0.1433
 4999TIP3    H236413   3.055   5.504  15.486  0.7494 -0.2294 -1.7132
 5000TIP3   OH236414   2.864   1.666  11.829 -0.0931  0.5167  0.0858
 5000TIP3    H136415   2.804   1.592  11.830  0.7754 -0.2218  1.7814
 5000TIP3    H236416   2.920   1.651  11.752  0.9496 -1.3613  1.1596
 5001TIP3   OH236417   3.734   0.992  13.828  0.3735  0.5541  0.6268
 5001TIP3    H136418   3.766   0.948  13.907 -0.6125 -1.5121 -0.0607
 5001TIP3    H236419   3.639   0.991  13.837  0.2857  1.0979 -0.1777
 5002TIP3   OH236420   4.335   5.414  16.676  0.4188 -0.0429  0.1662
 5002TIP3    H136421   4.279   5.384  16.748 -0.8565  0.7383 -0.4705
 5002TIP3    H236422   4.424   5.399  16.708 -0.1279 -0.8325  1.4206
 5003TIP3   OH236423   5.958   2.756  13.188 -0.1071  0.2445  0.0041
 5003TIP3    H136424   6.037   2.716  13.152  0.8092 -0.9603  3.0399
 5003TIP3    H236425   5.990   2.829  13.241 -1.0415 -0.0044  0.9485
 5004TIP3   OH236426   4.856   5.068   1.912  0.1798 -0.1801  0.2194
 5004TIP3    H136427   4.850   4.989   1.857  0.9714 -0.1850  0.1152
 5004TIP3    H236428   4.766   5.093   1.929 -0.0917 -1.4436  0.7353
 5005TIP3   OH236429   2.448   1.813  15.707  0.0656  0.4226 -0.4650
 5005TIP3    H136430   2.453   1.859  15.790  0.5875  0.5578 -0.5693
 5005TIP3    H236431   2.471   1.723  15.728  1.0918  0.6430 -0.6127
 5006TIP3   OH236432   3.532   5.041   0.782  0.0366 -0.1732  0.0279
 5006TIP3    H136433   3.568   5.041   0.693  1.2360 -1.7032  0.4657
 5006TIP3    H236434   3.457   4.982   0.777 -0.1890  0.1220 -0.0752
 5007TIP3   OH236435   3.023   5.049  14.959  0.1560 -0.3113 -0.0858
 5007TIP3    H136436   2.999   5.103  14.884  1.1176 -0.7254 -0.7045
 5007TIP3    H236437   3.101   5.092  14.995 -0.9085  0.5014  1.3457
 5008TIP3   OH236438   4.110   5.866  14.862 -0.2401 -0.0437  0.2253
 5008TIP3    H136439   4.039   5.927  14.881 -0.9102 -0.3845 -1.0852
 5008TIP3    H236440   4.189   5.910  14.893 -0.6057  1.8281 -1.3357
 5009TIP3   OH236441   0.017   2.419   0.636  0.1742 -0.3911  0.1614
 5009TIP3    H136442   0.102   2.378   0.624 -0.0442 -0.6042 -0.7730
 5009TIP3    H236443  -0.045   2.357   0.599  0.0786  1.9851 -4.3705
 5010TIP3   OH236444   5.132   5.462   6.245  0.0025 -0.1346  0.4987
 5010TIP3    H136445   5.112   5.533   6.183  2.4152 -0.2010 -0.4627
 5010TIP3    H236446   5.144   5.506   6.329 -1.9611  0.1177  0.6994
 5011TIP3   OH236447   6.187   6.699  15.292 -0.6334 -0.3767  0.0353
 5011TIP3    H136448   6.106   6.698  15.343 -0.0100 -0.5566  1.0435
 5011TIP3    H236449   6.175   6.627  15.229 -1.9957  0.7515 -1.0647
 5012TIP3   OH236450   2.885   3.717  15.215 -0.4258 -0.1742 -0.4883
 5012TIP3    H136451   2.937   3.637  15.223 -0.8211 -0.3990 -0.1729
 5012TIP3    H236452   2.950   3.787  15.209 -0.0001 -0.0345  3.5404
 5013TIP3   OH236453   6.470   4.912   1.860 -0.0306  0.0778 -0.0815
 5013TIP3    H136454   6.422   4.874   1.786 -2.5383 -0.2225  1.5747
 5013TIP3    H236455   6.504   4.837   1.908  0.3186  0.2012 -0.1371
 5014TIP3   OH236456   6.676   2.107   6.494 -0.1702  0.3314  0.2291
 5014TIP3    H136457   6.751   2.158   6.465 -0.5824 -0.2965 -2.1415
 5014TIP3    H236458   6.712   2.024   6.525  0.2040  0.6134  0.5561
 5015TIP3   OH236459   2.565   0.089  11.568 -0.3345  0.2731  0.0205
 5015TIP3    H136460   2.509   0.041  11.507 -0.7382  0.1651  0.4692
 5015TIP3    H236461   2.520   0.083  11.652 -0.8792  2.2261 -0.0911
 5016TIP3   OH236462   4.729   1.853   5.659 -0.4745 -0.2958 -0.3347
 5016TIP3    H136463   4.711   1.800   5.582 -3.5465  0.9050 -0.6136
 5016TIP3    H236464   4.699   1.799   5.732  1.8377 -1.1730  0.0448
 5017TIP3   OH236465   3.310   5.029   5.420 -0.0527 -0.4667 -0.4708
 5017TIP3    H136466   3.224   5.040   5.381  0.0790  0.2727 -0.5673
 5017TIP3    H236467   3.297   5.039   5.514  0.0384  0.4043 -0.5436
 5018TIP3   OH236468   5.929   4.539  15.552 -0.0869 -0.4461 -0.1103
 5018TIP3    H136469   5.926   4.464  15.492 -1.4530 -1.0688  0.7101
 5018TIP3    H236470   6.023   4.555  15.564  0.2660 -0.1114 -2.6172
 5019TIP3   OH236471   0.983   6.012   5.153  0.4393  0.1917 -0.7563
 5019TIP3    H136472   0.892   5.999   5.181  0.7301  0.1065  0.1985
 5019TIP3    H236473   0.989   6.105   5.131  0.6004  0.6446  1.0751
 5020TIP3   OH236474   1.919   2.587   6.039  0.0646  0.0877  0.0887
 5020TIP3    H136475   1.921   2.539   6.121 -1.0684  0.0829  0.1338
 5020TIP3    H236476   1.849   2.545   5.988  0.8117  0.0284 -0.9183
 5021TIP3   OH236477   6.117   3.074   1.322  0.6817  0.1983  0.4586
 5021TIP3    H136478   6.098   2.984   1.296  2.1523 -0.2842  1.0139
 5021TIP3    H236479   6.211   3.083   1.311  1.1301  0.5629  3.7800
 5022TIP3   OH236480   4.753   0.494  11.840  0.0597 -0.2229 -0.1784
 5022TIP3    H136481   4.787   0.523  11.925 -1.2550 -0.3865  0.4149
 5022TIP3    H236482   4.800   0.548  11.776 -0.3520  1.2898  0.7478
 5023TIP3   OH236483   1.016   6.451   4.806  0.4906  0.2572  0.1869
 5023TIP3    H136484   0.935   6.449   4.856  0.1821 -0.5399 -0.3262
 5023TIP3    H236485   1.066   6.523   4.844 -0.5814  0.9540  0.3124
 5024TIP3   OH236486   3.597   0.419  12.585 -0.4700  0.2812  0.6317
 5024TIP3    H136487   3.656   0.402  12.659 -0.7993 -1.6619  0.4804
 5024TIP3    H236488   3.608   0.344  12.527 -0.0165  1.8748 -1.4966
 5025TIP3   OH236489   0.843   1.736   1.065  1.1317  0.1290 -0.2766
 5025TIP3    H136490   0.858   1.658   1.013  1.2567 -0.4588  0.6099
 5025TIP3    H236491   0.864   1.809   1.007  0.5757 -0.4808 -1.2484
 5026TIP3   OH236492   3.280   5.924   0.365  0.2563 -0.1372  0.3512
 5026TIP3    H136493   3.253   6.015   0.377 -0.9560 -0.1540 -1.7745
 5026TIP3    H236494   3.349   5.929   0.299  0.1176 -0.7609  0.1605
 5027TIP3   OH236495   3.245   2.656   5.549 -0.0123 -0.1301 -0.4076
 5027TIP3    H136496   3.240   2.672   5.643  0.8917 -0.9941 -0.1989
 5027TIP3    H236497   3.159   2.622   5.526 -0.2692  0.1746  0.0790
 5028TIP3   OH236498   0.577   3.349  13.208 -0.4945 -0.5397  0.1301
 5028TIP3    H136499   0.492   3.382  13.235 -1.0846  0.2899 -2.4651
 5028TIP3    H236500   0.621   3.325  13.290 -2.2172  1.4077  1.7317
 5029TIP3   OH236501   5.179   0.429   3.137  0.1524 -0.5548  0.2027
 5029TIP3    H136502   5.093   0.433   3.179  0.7285  1.1509  1.3412
 5029TIP3    H236503   5.204   0.521   3.125  0.4113 -0.9258 -3.1896
 5030TIP3   OH236504   3.173   2.066  16.117  0.0837 -0.0178  0.5513
 5030TIP3    H136505   3.087   2.025  16.128 -0.4289  1.3876  2.4054
 5030TIP3    H236506   3.156   2.159  16.134  2.1735  0.1038  2.4299
 5031TIP3   OH236507   4.800   1.867   0.275 -0.0939  0.3605 -0.1389
 5031TIP3    H136508   4.757   1.946   0.306 -0.2392  0.2123  0.0404
 5031TIP3    H236509   4.836   1.890   0.189  1.4165  1.1859  0.6593
 5032TIP3   OH236510   1.930   3.640   1.673  0.4915 -0.8309 -0.5809
 5032TIP3    H136511   2.006   3.698   1.665  1.6595 -2.0691  0.8211
 5032TIP3    H236512   1.900   3.654   1.763 -0.4231 -0.9999 -0.8500
 5033TIP3   OH236513   4.714   1.428  14.291  0.3618 -0.4808  0.2063
 5033TIP3    H136514   4.662   1.354  14.324 -0.8437  0.5081  0.6340
 5033TIP3    H236515   4.796   1.424  14.340  0.2298 -1.3955  0.3742
 5034TIP3   OH236516   4.695   4.504  10.866  0.1137  0.1030  0.1855
 5034TIP3    H136517   4.786   4.522  10.892  0.3831 -1.0888  0.1206
 5034TIP3    H236518   4.660   4.449  10.935 -0.8945  1.3398  0.6990
 5035TIP3   OH236519   4.904   2.563  16.054 -0.0079 -0.1685  0.0078
 5035TIP3    H136520   4.890   2.577  16.148  1.3278 -0.2021  0.2218
 5035TIP3    H236521   4.994   2.589  16.039  0.3871 -1.9042 -0.9091
 5036TIP3   OH236522   1.394   5.765   5.580  0.1961  0.5323 -0.5121
 5036TIP3    H136523   1.352   5.776   5.666 -0.2512 -0.3982 -0.6053
 5036TIP3    H236524   1.488   5.774   5.599  0.0537  1.1120 -0.0554
 5037TIP3   OH236525   5.224   4.026  14.124  0.3638  0.5331 -0.2066
 5037TIP3    H136526   5.194   4.074  14.201  0.5894  1.7173 -0.8204
 5037TIP3    H236527   5.182   4.070  14.050 -0.1080 -0.7831 -0.7572
 5038TIP3   OH236528   6.320   3.156   6.531  0.5372  0.0499 -0.1238
 5038TIP3    H136529   6.254   3.122   6.470  0.3937 -1.3000  0.7434
 5038TIP3    H236530   6.277   3.229   6.575  0.2021  0.2199 -0.7219
 5039TIP3   OH236531   1.710   2.877   5.482  0.1756 -0.2723 -0.0637
 5039TIP3    H136532   1.727   2.893   5.390 -1.0512 -0.3404 -0.3166
 5039TIP3    H236533   1.674   2.959   5.515  0.9629 -0.1210  0.4634
 5040TIP3   OH236534   3.070   0.327   4.296 -0.1613  0.0402 -0.2882
 5040TIP3    H136535   3.161   0.346   4.273 -0.7252  4.2492  0.1472
 5040TIP3    H236536   3.021   0.404   4.266 -3.1095 -0.6756  2.1441
 5041TIP3   OH236537   6.637   1.871   4.368  0.3498  0.1388 -0.2728
 5041TIP3    H136538   6.594   1.797   4.412  0.8599 -0.5861 -0.9570
 5041TIP3    H236539   6.595   1.874   4.282  1.3672 -0.3324 -0.8048
 5042TIP3   OH236540   6.726   1.922  11.900  1.3587 -0.1707 -0.2856
 5042TIP3    H136541   6.791   1.977  11.944 -0.6162 -0.0637  2.7542
 5042TIP3    H236542   6.754   1.832  11.919  1.3850 -0.1450 -0.2012
 5043TIP3   OH236543   3.847   4.505  16.398 -0.1363  0.1953 -0.5470
 5043TIP3    H136544   3.894   4.458  16.328  0.1426  0.7836 -0.7647
 5043TIP3    H236545   3.821   4.437  16.460 -0.4266 -0.3399 -1.2505
 5044TIP3   OH236546   2.830   6.660   0.969  0.0687 -0.1594 -0.3481
 5044TIP3    H136547   2.886   6.582   0.968  0.7980  0.3619 -1.2950
 5044TIP3    H236548   2.811   6.675   1.062  1.1162 -0.6154 -0.0488
 5045TIP3   OH236549   6.195   2.732   3.997  0.3739 -0.2652 -0.1843
 5045TIP3    H136550   6.123   2.781   3.957  0.1912 -1.3540 -1.2532
 5045TIP3    H236551   6.273   2.782   3.975 -0.0262  0.9545  1.0219
 5046TIP3   OH236552   2.230   3.865  15.310 -0.3050 -0.1462  0.1607
 5046TIP3    H136553   2.200   3.811  15.383  2.7643 -1.3418  0.6813
 5046TIP3    H236554   2.200   3.953  15.330  0.1293 -0.5188  2.7158
 5047TIP3   OH236555   4.291   1.404   3.541 -0.0298 -0.1586  0.3731
 5047TIP3    H136556   4.376   1.420   3.582 -0.4838  1.6406  0.6687
 5047TIP3    H236557   4.292   1.310   3.522  1.4077 -0.4747  1.7427
 5048TIP3   OH236558   6.729   5.518  16.470 -0.4354 -0.3528  0.2112
 5048TIP3    H136559   6.715   5.424  16.462 -0.2607 -0.3362 -0.3270
 5048TIP3    H236560   6.765   5.529  16.558  1.0711 -0.9844 -0.2953
 5049TIP3   OH236561   5.337   0.781   1.243  0.1020 -0.5473 -0.0345
 5049TIP3    H136562   5.360   0.712   1.180  1.2448  1.0709 -1.5070
 5049TIP3    H236563   5.256   0.818   1.209 -2.7616 -3.4652  2.8361
 5050TIP3   OH236564   2.408   2.049  15.891  0.2899  0.3118  0.3264
 5050TIP3    H136565   2.359   2.084  15.816 -1.0594 -1.3073  0.3665
 5050TIP3    H236566   2.484   2.106  15.899  1.9695 -0.8732 -3.9337
 5051TIP3   OH236567   5.492   6.132  10.291  0.3805  0.5509  0.0291
 5051TIP3    H136568   5.444   6.200  10.242  0.0727  0.6216  0.4255
 5051TIP3    H236569   5.451   6.130  10.377  0.2824 -0.2555 -0.0265
 5052TIP3   OH236570   6.094   2.664  15.887 -0.5281 -0.1021  0.1325
 5052TIP3    H136571   6.144   2.585  15.864  0.7305  0.2450  1.5382
 5052TIP3    H236572   6.055   2.692  15.804 -2.3981 -3.0938 -0.1902
 5053TIP3   OH236573   2.304   4.497   2.604 -1.1269 -0.0458  0.2886
 5053TIP3    H136574   2.315   4.550   2.525 -0.1639 -1.1418 -0.3400
 5053TIP3    H236575   2.343   4.551   2.673 -0.1357  0.0967 -0.3471
 5054TIP3   OH236576   4.330   0.593  15.776 -0.4458  0.1356 -0.9492
 5054TIP3    H136577   4.336   0.588  15.872 -1.6556  1.7381 -0.7382
 5054TIP3    H236578   4.415   0.628  15.749 -0.4675  0.6929 -0.3400
 5055TIP3   OH236579   2.422   2.074  10.833 -0.2927 -0.7067 -0.3863
 5055TIP3    H136580   2.514   2.099  10.838 -0.0635 -1.4690 -0.7758
 5055TIP3    H236581   2.414   1.997  10.889 -0.8791 -0.1647  0.3134
 5056TIP3   OH236582   4.225   1.025  12.133 -0.2940 -0.0329  0.5026
 5056TIP3    H136583   4.261   0.985  12.212  1.0858 -0.6384 -0.3989
 5056TIP3    H236584   4.263   1.113  12.131  0.0009 -0.1625  0.3088
 5057TIP3   OH236585   5.892   0.358  13.890 -0.1295 -0.4880 -0.4066
 5057TIP3    H136586   5.923   0.431  13.836 -0.1375 -0.8655 -0.9272
 5057TIP3    H236587   5.803   0.382  13.913  0.5556  0.6874  1.2372
 5058TIP3   OH236588   5.357   6.206   5.926  0.8773 -0.1868  0.8454
 5058TIP3    H136589   5.419   6.273   5.896  0.4213  0.4770  1.3441
 5058TIP3    H236590   5.405   6.123   5.919  1.9438  0.3461  1.5246
 5059TIP3   OH236591   5.263   3.983  10.525 -0.4080  0.1388 -0.3360
 5059TIP3    H136592   5.276   4.076  10.508  0.5154 -0.0352 -0.6284
 5059TIP3    H236593   5.344   3.941  10.494 -1.2866 -0.8992 -1.3019
 5060TIP3   OH236594   2.016   0.333  13.748  0.0759  0.0568  0.1391
 5060TIP3    H136595   1.952   0.377  13.692 -0.3933 -0.1819  0.4763
 5060TIP3    H236596   2.095   0.386  13.741  0.8240 -1.2371 -2.6350
 5061TIP3   OH236597   1.232   3.939   6.665  0.6594 -0.1033 -0.1847
 5061TIP3    H136598   1.143   3.919   6.693  1.2826 -2.6438  0.2685
 5061TIP3    H236599   1.241   4.034   6.677 -0.7107 -0.2747  3.6970
 5062TIP3   OH236600   3.034   6.516  13.581  0.0072 -0.2195  0.2545
 5062TIP3    H136601   2.963   6.462  13.545 -0.6429  0.8645 -0.1483
 5062TIP3    H236602   3.113   6.486  13.536 -0.2563 -1.1510  0.3903
 5063TIP3   OH236603   4.076   1.417   5.829  0.4669 -0.3575 -0.2458
 5063TIP3    H136604   4.154   1.471   5.839  0.0975  0.2735 -0.6658
 5063TIP3    H236605   4.014   1.452   5.894  0.7370 -1.2698  0.5393
 5064TIP3   OH236606   5.199   6.096  16.770 -0.0395 -0.0524 -0.1341
 5064TIP3    H136607   5.264   6.058  16.712  1.4813  1.2013  0.6710
 5064TIP3    H236608   5.141   6.023  16.793  1.1530 -1.2348 -0.7728
 5065TIP3   OH236609   1.729   0.130   0.089 -0.4383  0.4592  0.8808
 5065TIP3    H136610   1.814   0.173   0.104 -1.1380  1.7936  1.1471
 5065TIP3    H236611   1.725   0.118  -0.005 -0.4000  1.3803  0.7509
 5066TIP3   OH236612   6.039   5.582  14.637 -0.1633  0.4510  0.2933
 5066TIP3    H136613   6.061   5.580  14.544  0.5670  0.5765  0.4629
 5066TIP3    H236614   6.015   5.673  14.654  0.5922  0.6248  0.4327
 5067TIP3   OH236615   5.491   5.423   4.099  0.3431 -0.2807 -0.4061
 5067TIP3    H136616   5.514   5.505   4.055 -1.3380 -0.6415 -2.0872
 5067TIP3    H236617   5.395   5.419   4.092  0.1392 -1.1188  2.0187
 5068TIP3   OH236618   6.193   2.594   4.248  0.5201 -0.0221  0.1434
 5068TIP3    H136619   6.210   2.575   4.156  1.7349  0.2278  0.3049
 5068TIP3    H236620   6.147   2.678   4.246  1.2814  0.3969 -0.2026
 5069TIP3   OH236621   3.735   6.466  11.995 -0.6465  0.4675  0.5145
 5069TIP3    H136622   3.693   6.381  12.006  1.0823 -0.5929 -0.6632
 5069TIP3    H236623   3.736   6.481  11.901  2.4807 -0.1024  0.3358
 5070TIP3   OH236624   0.882   0.184   1.442  0.5517 -0.9519 -0.1073
 5070TIP3    H136625   0.868   0.109   1.500 -0.8874 -0.1178  0.6770
 5070TIP3    H236626   0.951   0.234   1.485 -0.0270 -0.6963  0.5525
 5071TIP3   OH236627   5.779   0.490  13.161 -0.7091  1.0403  0.2843
 5071TIP3    H136628   5.706   0.521  13.107 -0.3283  1.8596  0.2188
 5071TIP3    H236629   5.761   0.526  13.248 -0.5154  1.0499  0.3217
 5072TIP3   OH236630   1.917   5.022   3.860 -0.0425 -0.0826 -0.1539
 5072TIP3    H136631   1.845   5.054   3.805 -0.2317  0.3757  0.3494
 5072TIP3    H236632   1.877   4.956   3.917  0.0144 -0.0981 -0.1316
 5073TIP3   OH236633   0.374   0.330   1.439 -0.4830 -0.0276  0.1434
 5073TIP3    H136634   0.457   0.319   1.393 -0.1231  0.1812  0.7391
 5073TIP3    H236635   0.391   0.301   1.528 -1.6709 -2.1999 -0.2738
 5074TIP3   OH236636   3.105   4.209  15.863  0.0161 -0.2503  0.5773
 5074TIP3    H136637   3.135   4.184  15.951  1.3137 -1.7700 -0.2498
 5074TIP3    H236638   3.017   4.244  15.877  1.3752  2.7385  2.9206
 5075TIP3   OH236639   5.749   2.506  16.131 -0.0092  0.3085 -0.4448
 5075TIP3    H136640   5.829   2.559  16.139 -0.0771  0.3609 -0.1112
 5075TIP3    H236641   5.777   2.429  16.081  0.1053  0.6266 -0.8765
 5076TIP3   OH236642   1.760   2.856  17.058  0.1126 -0.3515  0.1327
 5076TIP3    H136643   1.742   2.779  17.111 -1.4009  0.5379  1.0010
 5076TIP3    H236644   1.726   2.834  16.971 -2.2557  0.0166  0.8836
 5077TIP3   OH236645   4.748   0.586  16.619 -0.0275  0.2058  0.0128
 5077TIP3    H136646   4.727   0.671  16.581  1.3706 -0.3751 -2.2702
 5077TIP3    H236647   4.675   0.530  16.594  0.3964  0.0785 -0.9847
 5078TIP3   OH236648   1.746   0.750  14.243 -0.3859 -0.1314  0.6861
 5078TIP3    H136649   1.810   0.805  14.198 -1.3569 -0.7440 -1.5655
 5078TIP3    H236650   1.685   0.724  14.175 -1.0375 -2.4630  2.0568
 5079TIP3   OH236651   4.523   1.643   1.161 -0.0009  0.1098  0.0056
 5079TIP3    H136652   4.484   1.613   1.243 -1.2280  1.4085 -0.0629
 5079TIP3    H236653   4.598   1.696   1.187 -1.4525  2.0708  0.4449
 5080TIP3   OH236654   5.736   1.369   2.383  0.3937  0.2110  0.1110
 5080TIP3    H136655   5.731   1.299   2.448  0.5277 -0.1099 -0.2248
 5080TIP3    H236656   5.671   1.345   2.317 -0.3353  0.9585  0.5274
 5081TIP3   OH236657   4.494   1.902   2.537 -0.6191 -0.4144 -0.1706
 5081TIP3    H136658   4.412   1.922   2.582 -1.4333  1.4878 -2.2877
 5081TIP3    H236659   4.550   1.978   2.553 -0.0865 -0.7229 -0.5252
 5082TIP3   OH236660   2.740   5.064   1.794  0.7260  0.0165  0.2325
 5082TIP3    H136661   2.699   5.138   1.839 -0.8198  0.6711 -2.0901
 5082TIP3    H236662   2.828   5.094   1.775  1.1509  0.0264  1.9920
 5083TIP3   OH236663   2.261   5.847   1.106 -0.1274 -0.1739  0.1442
 5083TIP3    H136664   2.177   5.834   1.152 -1.0361  0.5852 -1.2381
 5083TIP3    H236665   2.243   5.821   1.016  1.6965 -1.8906  0.2021
 5084TIP3   OH236666   0.569   4.485   1.503 -0.8928 -0.2037  0.2999
 5084TIP3    H136667   0.580   4.412   1.442  0.5406 -1.2896  1.7606
 5084TIP3    H236668   0.600   4.451   1.587 -0.7285  1.9112  1.1619
 5085TIP3   OH236669   3.178   1.009  10.688  0.0613  0.0987  0.0151
 5085TIP3    H136670   3.258   1.040  10.730 -0.3447  0.5520  0.4705
 5085TIP3    H236671   3.203   0.992  10.598  0.1446  2.4819 -0.4668
 5086TIP3   OH236672   2.936   1.930   2.245 -0.1734 -0.0825 -0.3556
 5086TIP3    H136673   2.850   1.970   2.234 -0.8879 -1.1547  1.0375
 5086TIP3    H236674   2.938   1.859   2.181  0.0780  0.5184 -1.0373
 5087TIP3   OH236675   4.051   1.088  14.444  0.2014 -0.4732  0.8989
 5087TIP3    H136676   4.074   1.019  14.382  0.9920 -0.6771  1.4079
 5087TIP3    H236677   4.085   1.168  14.403 -0.2696 -0.4480  0.5473
 5088TIP3   OH236678   2.787   3.776  12.440 -0.0941  0.6875  0.1294
 5088TIP3    H136679   2.862   3.805  12.492  1.0844 -0.3092 -0.9519
 5088TIP3    H236680   2.741   3.713  12.496 -0.7446  2.0473  1.1850
 5089TIP3   OH236681   3.950   2.755  13.667  0.1131  0.2025  0.4799
 5089TIP3    H136682   4.021   2.694  13.688  0.1506 -0.1783 -0.6895
 5089TIP3    H236683   3.875   2.699  13.649  0.4758  0.3789 -1.8974
 5090TIP3   OH236684   6.453   3.991  15.447 -0.0657  0.0446  0.1435
 5090TIP3    H136685   6.516   4.041  15.500  1.9336  0.0084 -2.0639
 5090TIP3    H236686   6.498   3.909  15.428 -1.2570 -0.4583 -0.5657
 5091TIP3   OH236687   4.047   3.469   4.902  0.3715  0.5935 -0.5275
 5091TIP3    H136688   3.964   3.457   4.947  0.4115  1.0533 -0.3358
 5091TIP3    H236689   4.078   3.555   4.929  0.9009  0.4353 -0.6149
 5092TIP3   OH236690   1.774   0.852  13.446  0.1136 -0.0454 -0.3784
 5092TIP3    H136691   1.857   0.807  13.460  0.8205  0.7875 -1.6514
 5092TIP3    H236692   1.781   0.933  13.496 -0.3539 -0.4338  0.3267
 5093TIP3   OH236693   4.162   4.087  16.078 -0.3973 -0.6345 -0.9971
 5093TIP3    H136694   4.235   4.028  16.057 -0.7353 -1.3297 -0.2904
 5093TIP3    H236695   4.103   4.080  16.004 -1.3528 -2.6977 -0.1208
 5094TIP3   OH236696   6.051   3.235   1.075 -0.2942  0.5311  0.2458
 5094TIP3    H136697   6.074   3.175   1.146 -0.2548 -0.0180 -0.2280
 5094TIP3    H236698   6.042   3.320   1.118 -0.4847  0.1650  0.9434
 5095TIP3   OH236699   0.438   4.348  13.065  1.0270 -0.1403 -0.0349
 5095TIP3    H136700   0.358   4.327  13.113  0.9543 -1.7895 -0.8031
 5095TIP3    H236701   0.435   4.443  13.053 -1.3614 -0.2492 -0.9497
 5096TIP3   OH236702   4.815   0.543  12.101 -0.0881  0.2526 -0.5266
 5096TIP3    H136703   4.794   0.460  12.145  2.7962  0.5883  1.8643
 5096TIP3    H236704   4.773   0.610  12.155 -0.8906  0.4558 -1.3888
 5097TIP3   OH236705   2.796   2.971  14.277 -0.4133  0.4520 -0.1660
 5097TIP3    H136706   2.831   3.059  14.262  0.0080  0.0400 -1.9160
 5097TIP3    H236707   2.841   2.917  14.212 -0.3019 -1.1700  1.2040
 5098TIP3   OH236708   6.505   0.946   3.471  0.3519 -0.1391 -0.3755
 5098TIP3    H136709   6.461   0.867   3.502  1.9105 -0.3756  1.4706
 5098TIP3    H236710   6.465   0.965   3.386 -2.1806 -1.1358  0.5206
 5099TIP3   OH236711   4.135   3.978  13.880  0.5791  0.3133  0.2678
 5099TIP3    H136712   4.102   3.957  13.968 -0.4691  1.2619  0.1279
 5099TIP3    H236713   4.221   3.936  13.876  0.0936 -0.8634  1.2641
 5100TIP3   OH236714   6.456   2.890   3.977  0.3799 -0.2568 -0.4333
 5100TIP3    H136715   6.546   2.857   3.976  0.8459  0.2334  3.9342
 5100TIP3    H236716   6.453   2.950   4.052 -3.5513 -0.0551 -0.5281
 5101TIP3   OH236717   3.061   0.775  12.256  0.4355  0.2125  0.4738
 5101TIP3    H136718   3.130   0.787  12.321  1.6929 -0.1142 -0.7464
 5101TIP3    H236719   2.980   0.770  12.307  1.2175  1.3266  1.8895
 5102TIP3   OH236720   5.557   4.987   3.299 -0.6635 -0.2500  0.1157
 5102TIP3    H136721   5.563   5.028   3.385 -2.9419  1.2847 -0.3567
 5102TIP3    H236722   5.463   4.983   3.281 -0.2352  0.1595 -2.6204
 5103TIP3   OH236723   1.733   1.950  11.941 -0.3332 -0.0078  0.1303
 5103TIP3    H136724   1.672   1.898  11.888  1.9277 -0.5293 -2.1929
 5103TIP3    H236725   1.812   1.896  11.947  0.4449  1.2322  1.7321
 5104TIP3   OH236726   6.345   4.636  11.800 -0.1148 -0.0521 -0.0277
 5104TIP3    H136727   6.333   4.624  11.706 -1.2607  1.3790 -0.1084
 5104TIP3    H236728   6.267   4.596  11.839  1.2163 -2.2878  0.5036
 5105TIP3   OH236729   5.372   4.707   5.710 -0.1464  0.1480 -0.2169
 5105TIP3    H136730   5.419   4.790   5.703  3.2411 -1.7110 -1.9844
 5105TIP3    H236731   5.312   4.708   5.635  1.0704  0.3498 -1.2165
 5106TIP3   OH236732   6.302   3.446   0.461 -0.1617 -0.1874  0.1074
 5106TIP3    H136733   6.329   3.532   0.495 -0.4824 -0.0310 -0.0245
 5106TIP3    H236734   6.267   3.465   0.373 -1.3889 -0.2667  0.5570
 5107TIP3   OH236735   1.077   5.378   1.227 -0.3553 -0.7390  0.2557
 5107TIP3    H136736   1.140   5.345   1.291  0.3569 -1.1966 -0.6643
 5107TIP3    H236737   1.061   5.469   1.254  0.8916 -0.5337  0.3671
 5108TIP3   OH236738   4.297   6.674  11.820 -0.1102  0.5708 -0.0379
 5108TIP3    H136739   4.337   6.720  11.894  0.9974 -0.7240  0.2131
 5108TIP3    H236740   4.364   6.675  11.752 -0.2127 -0.2813 -0.1714
 5109TIP3   OH236741   4.103   2.138  11.171 -0.2798  0.3832 -0.1671
 5109TIP3    H136742   4.141   2.210  11.121 -1.0126  1.6198  0.9995
 5109TIP3    H236743   4.126   2.156  11.262 -1.2590 -0.3491  0.2528
 5110TIP3   OH236744   5.963   1.916   3.227  0.0333 -0.6892  0.0916
 5110TIP3    H136745   5.945   1.824   3.247 -1.6256 -1.0517 -2.5658
 5110TIP3    H236746   5.898   1.965   3.278 -1.7272 -1.3336 -1.3989
 5111TIP3   OH236747   5.654   0.199  10.328 -0.4605 -0.1715 -0.0728
 5111TIP3    H136748   5.676   0.110  10.355  0.4203  0.3349  0.9924
 5111TIP3    H236749   5.732   0.250  10.350  0.1441  0.4215 -3.1830
 5112TIP3   OH236750   1.950   3.182  16.120 -0.4227  0.2649 -0.3741
 5112TIP3    H136751   1.910   3.249  16.064 -1.4166 -1.2177 -1.5197
 5112TIP3    H236752   1.906   3.101  16.095 -0.9980 -0.4681  2.6520
 5113TIP3   OH236753   6.353   1.380   3.291 -0.3533 -0.4080 -0.2401
 5113TIP3    H136754   6.290   1.384   3.363 -0.4486 -0.9901 -0.2908
 5113TIP3    H236755   6.300   1.374   3.212 -0.2406 -0.2779 -0.3270
 5114TIP3   OH236756   0.676   6.035  15.843  0.1495 -0.7850 -0.1470
 5114TIP3    H136757   0.608   5.968  15.843  0.1159 -0.7518 -0.0262
 5114TIP3    H236758   0.721   6.024  15.760 -1.5570  0.7808 -1.3500
 5115TIP3   OH236759   0.262   5.366  10.988 -0.4290 -0.0088  0.1606
 5115TIP3    H136760   0.261   5.272  10.968  2.9589  0.1388 -1.3682
 5115TIP3    H236761   0.195   5.403  10.931 -0.8733 -1.3170 -0.2160
 5116TIP3   OH236762   4.694   3.158   3.839  0.3768  0.1275 -0.1988
 5116TIP3    H136763   4.601   3.134   3.834  0.5049 -0.2192 -1.1331
 5116TIP3    H236764   4.732   3.125   3.757  1.1928  0.8365 -0.1236
 5117TIP3   OH236765   6.599   0.841  14.523 -0.1115 -0.6285 -0.1728
 5117TIP3    H136766   6.599   0.919  14.579  0.2243 -1.0213  0.3876
 5117TIP3    H236767   6.508   0.813  14.520  0.0029 -1.1963  1.0377
 5118TIP3   OH236768   4.400   3.013  16.058  0.5014 -0.0571  0.2110
 5118TIP3    H136769   4.424   3.033  16.149 -0.2398 -2.1502  0.9282
 5118TIP3    H236770   4.309   3.041  16.051  0.7737  0.7631 -0.1230
 5119TIP3   OH236771   6.363   0.860  16.702  0.1670  0.0482  0.5052
 5119TIP3    H136772   6.442   0.821  16.664  1.0600  1.5718  0.7069
 5119TIP3    H236773   6.301   0.865  16.630  0.9733  0.6515 -0.1705
 5120TIP3   OH236774   4.030   3.245  16.383 -0.1304  0.3369 -0.0465
 5120TIP3    H136775   4.047   3.329  16.426 -0.8533  0.2534  0.4086
 5120TIP3    H236776   3.985   3.268  16.302  0.3829  0.4333 -0.3096
 5121TIP3   OH236777   1.645   3.994  11.835 -0.4783  0.2607 -0.3351
 5121TIP3    H136778   1.571   3.960  11.784 -0.2794  0.2822 -0.6415
 5121TIP3    H236779   1.647   4.088  11.815 -0.2794  0.2340 -0.4407
 5122TIP3   OH236780   3.978   0.444   6.066  0.0146  0.3042 -0.2072
 5122TIP3    H136781   3.998   0.494   6.146 -1.2070  0.5569 -0.0351
 5122TIP3    H236782   3.910   0.382   6.093 -0.7190  0.6743 -1.1225
 5123TIP3   OH236783   6.602   2.425  13.492 -0.1305  0.3650  0.6446
 5123TIP3    H136784   6.687   2.449  13.454  0.7767 -0.5077  2.0498
 5123TIP3    H236785   6.551   2.506  13.489  0.3814  0.6754 -1.0953
 5124TIP3   OH236786   2.674   2.298  16.363 -0.2141  0.0902 -0.0116
 5124TIP3    H136787   2.651   2.216  16.408 -1.4349 -0.5331 -1.6661
 5124TIP3    H236788   2.698   2.358  16.433  0.2151 -1.5208  1.2930
 5125TIP3   OH236789   3.826   2.117  11.141 -0.3627 -0.4033  0.4053
 5125TIP3    H136790   3.784   2.140  11.224  0.5812 -0.9786  1.0639
 5125TIP3    H236791   3.919   2.131  11.157 -0.1422 -0.8586 -0.4463
 5126TIP3   OH236792   3.181   1.181  16.869  0.1955  0.0930 -0.0560
 5126TIP3    H136793   3.114   1.221  16.924  0.1715 -0.7547  0.5626
 5126TIP3    H236794   3.163   1.087  16.874 -0.3586  0.0175 -2.2370
 5127TIP3   OH236795   1.343   3.286  11.832 -0.2133 -0.2735 -0.1468
 5127TIP3    H136796   1.283   3.283  11.757  0.1771  0.2739 -0.4952
 5127TIP3    H236797   1.377   3.197  11.840  0.0891 -0.2386 -0.9220
 5128TIP3   OH236798   0.753   2.486   2.934  0.3060 -0.0879 -0.1684
 5128TIP3    H136799   0.804   2.449   3.007 -0.1793  0.1419  0.2958
 5128TIP3    H236800   0.748   2.414   2.871  0.9651 -0.2022 -0.1015
 5129TIP3   OH236801   4.116   4.864  12.187  0.1388 -0.5315 -0.4096
 5129TIP3    H136802   4.158   4.779  12.200  0.6695 -0.2371 -0.1626
 5129TIP3    H236803   4.047   4.866  12.254  1.2258 -0.0737  0.7273
 5130TIP3   OH236804   2.335   2.862  16.838  0.1979  0.2281 -0.3520
 5130TIP3    H136805   2.360   2.772  16.816 -0.7067 -0.3646  0.9278
 5130TIP3    H236806   2.395   2.887  16.908  0.2329  0.4896 -0.4773
 5131TIP3   OH236807   2.538   4.890  12.128  0.0749 -0.0538  0.2799
 5131TIP3    H136808   2.578   4.918  12.046 -1.1589  0.3078 -0.2293
 5131TIP3    H236809   2.519   4.972  12.175  0.7462 -0.2567  0.9154
 5132TIP3   OH236810   6.719   0.578   2.118  0.0562  0.4631 -0.3045
 5132TIP3    H136811   6.736   0.484   2.118 -0.1085  0.4019 -1.7829
 5132TIP3    H236812   6.720   0.603   2.210  0.8676 -0.8448  0.0701
 5133TIP3   OH236813   1.457   6.769   1.607 -0.2633  0.0919  0.0599
 5133TIP3    H136814   1.368   6.766   1.642 -0.6441  2.1984 -0.5812
 5133TIP3    H236815   1.505   6.825   1.668  0.1682  0.3402 -0.4923
 5134TIP3   OH236816   1.471   1.646  10.519 -0.0541 -0.1645  0.5357
 5134TIP3    H136817   1.428   1.670  10.437 -0.1314 -1.0689  0.3016
 5134TIP3    H236818   1.402   1.604  10.570 -0.0722  0.6178  1.1795
 5135TIP3   OH236819   6.551   5.133   2.821 -0.4321 -0.0830 -0.2917
 5135TIP3    H136820   6.553   5.132   2.916 -1.2498 -0.5895 -0.2723
 5135TIP3    H236821   6.555   5.226   2.798 -0.3733  0.0483  0.2388
 5136TIP3   OH236822   6.408   3.568   3.014 -0.9206  0.1934  0.8072
 5136TIP3    H136823   6.387   3.613   2.933  0.8661 -0.0928  0.1336
 5136TIP3    H236824   6.443   3.483   2.987 -1.3109 -0.3482  1.9208
 5137TIP3   OH236825   6.720   4.535   4.027  0.2673 -0.1272  0.3713
 5137TIP3    H136826   6.677   4.620   4.014  1.0035  0.2763  0.5243
 5137TIP3    H236827   6.699   4.485   3.948  0.3997  0.4410 -0.0260
 5138TIP3   OH236828   5.820   3.435   2.005  0.0931  0.0463 -0.0720
 5138TIP3    H136829   5.761   3.434   2.081 -0.7724  1.3336 -0.6919
 5138TIP3    H236830   5.762   3.424   1.930  0.0060  4.7346 -1.0017
 5139TIP3   OH236831   1.307   3.521  15.032  0.5034  0.0929 -0.0619
 5139TIP3    H136832   1.383   3.473  15.067  0.9658  0.0202 -1.1157
 5139TIP3    H236833   1.234   3.460  15.041  0.4689  0.3246  1.3637
 5140TIP3   OH236834   4.758   2.422  12.757  0.1340  0.1974  0.1932
 5140TIP3    H136835   4.807   2.340  12.764  1.7169  1.1940  1.4583
 5140TIP3    H236836   4.684   2.411  12.817  0.2520 -0.3504  0.2420
 5141TIP3   OH236837   3.766   5.327   3.817  0.4709 -0.5969 -0.0589
 5141TIP3    H136838   3.775   5.413   3.859  1.4684 -0.8087  0.1966
 5141TIP3    H236839   3.776   5.264   3.889  0.1460 -0.9371 -0.3047
 5142TIP3   OH236840   6.423   6.123  16.588  0.2985 -0.0164  0.0031
 5142TIP3    H136841   6.331   6.148  16.596  0.0193 -1.0014 -0.0752
 5142TIP3    H236842   6.422   6.036  16.549  1.3281  0.6123 -1.5103
 5143TIP3   OH236843   2.100   3.404   0.720  0.5839 -0.0111 -0.2065
 5143TIP3    H136844   2.176   3.406   0.778  0.7427  1.4290 -0.4108
 5143TIP3    H236845   2.030   3.445   0.771 -0.0286 -1.1530 -0.0861
 5144TIP3   OH236846   5.471   4.169   2.529 -0.0092 -0.7022 -0.0283
 5144TIP3    H136847   5.489   4.231   2.599 -1.7698 -2.1540  1.8113
 5144TIP3    H236848   5.442   4.223   2.456 -0.3643  0.7272  1.1161
 5145TIP3   OH236849   3.927   2.547   2.388 -0.7286  0.2976  0.2393
 5145TIP3    H136850   4.011   2.551   2.434 -1.5598  0.3751  1.8163
 5145TIP3    H236851   3.950   2.556   2.295  1.2838 -2.5475  0.3156
 5146TIP3   OH236852   6.724   0.131   6.079 -0.9814 -0.1584  0.2310
 5146TIP3    H136853   6.770   0.055   6.045  2.6886  2.0769 -0.3279
 5146TIP3    H236854   6.732   0.197   6.010 -1.7802  1.5367  1.6776
 5147TIP3   OH236855   0.835   4.677   2.940 -0.0250 -0.1752  0.1323
 5147TIP3    H136856   0.830   4.596   2.889  0.8788  0.5112 -1.1121
 5147TIP3    H236857   0.878   4.652   3.022 -0.5409 -1.1115  0.1225
 5148TIP3   OH236858   2.206   0.363   2.684 -0.3822 -0.0248 -0.3164
 5148TIP3    H136859   2.191   0.393   2.594  0.0363  1.0052 -0.0551
 5148TIP3    H236860   2.297   0.386   2.703 -1.0998  1.9172  1.1361
 5149TIP3   OH236861   1.724   1.949  16.913  0.0600  0.3077 -0.0142
 5149TIP3    H136862   1.767   2.028  16.879  1.1381 -0.0663  0.4248
 5149TIP3    H236863   1.643   1.981  16.954  0.6966  1.2505  0.5453
 5150TIP3   OH236864   6.413   4.799  10.504  0.4174 -0.0892 -0.3440
 5150TIP3    H136865   6.342   4.805  10.569  0.6521 -0.1220 -0.0843
 5150TIP3    H236866   6.387   4.860  10.435 -1.8748 -2.8987 -2.2003
 5151TIP3   OH236867   3.150   6.496   6.252 -0.6152  0.2219 -0.1694
 5151TIP3    H136868   3.166   6.521   6.161  1.1753  0.7699  0.2771
 5151TIP3    H236869   3.226   6.528   6.300 -2.4615  1.8000  1.9026
 5152TIP3   OH236870   6.657   3.013  16.600  0.1869  0.7509  0.9689
 5152TIP3    H136871   6.682   2.962  16.677  1.2336  1.5319  1.1722
 5152TIP3    H236872   6.562   3.010  16.599  0.2019 -0.5579  1.4072
 5153TIP3   OH236873   2.133   6.276  12.687 -0.4800  0.0110 -0.1348
 5153TIP3    H136874   2.078   6.200  12.668 -0.7792  0.5581 -1.5652
 5153TIP3    H236875   2.105   6.342  12.624  1.6390  0.3706 -0.7803
 5154TIP3   OH236876   4.395   3.890  16.964 -0.6404  0.0690 -0.1978
 5154TIP3    H136877   4.445   3.809  16.950 -1.1786  0.0236 -2.1421
 5154TIP3    H236878   4.304   3.865  16.947 -0.7526  1.1606 -1.3172
 5155TIP3   OH236879   5.718   1.049   0.726 -0.1619  0.5852  0.0234
 5155TIP3    H136880   5.695   0.979   0.665  0.8457  0.8986 -0.7430
 5155TIP3    H236881   5.633   1.083   0.756 -0.6695 -0.1137 -0.5735
 5156TIP3   OH236882   4.699   6.640  14.868  0.7854  0.2370 -0.2345
 5156TIP3    H136883   4.686   6.727  14.830  0.6454  0.3187 -0.0026
 5156TIP3    H236884   4.693   6.580  14.794  1.5237  0.4771 -0.4976
 5157TIP3   OH236885   5.351   2.875  16.510 -0.2558  0.0977  0.6391
 5157TIP3    H136886   5.390   2.885  16.423 -2.4658 -0.4619 -0.5074
 5157TIP3    H236887   5.371   2.785  16.535  0.8096  0.4123  0.9599
 5158TIP3   OH236888   2.743   1.475  11.340 -0.0025 -0.0118  0.8060
 5158TIP3    H136889   2.793   1.549  11.375  1.6794 -0.4616 -0.5164
 5158TIP3    H236890   2.670   1.516  11.294 -0.0066  0.7425  1.4555
 5159TIP3   OH236891   3.547   5.600   4.888 -0.1144  0.4119 -0.6036
 5159TIP3    H136892   3.575   5.665   4.952 -0.4938 -1.3573  1.4949
 5159TIP3    H236893   3.629   5.563   4.854  0.1762 -0.6903  1.1563
 5160TIP3   OH236894   5.327   0.603   5.436 -0.6523 -0.0078  0.5067
 5160TIP3    H136895   5.378   0.628   5.513 -0.6638 -0.6304  0.7243
 5160TIP3    H236896   5.373   0.527   5.401 -0.3793  0.5579 -0.3840
 5161TIP3   OH236897   2.184   4.503   1.973 -0.1827  0.1900  0.2146
 5161TIP3    H136898   2.221   4.591   1.968 -1.0933  0.5193 -1.1237
 5161TIP3    H236899   2.100   4.515   2.018 -1.0824  0.3004 -1.4265
 5162TIP3   OH236900   0.491   6.606  16.694 -0.2744 -0.3146 -0.4957
 5162TIP3    H136901   0.497   6.557  16.612 -2.0049 -0.4815 -0.5711
 5162TIP3    H236902   0.406   6.649  16.690  0.5338  1.4677  0.2680
 5163TIP3   OH236903   1.774   1.099  13.599  0.7547  0.4410 -0.4960
 5163TIP3    H136904   1.849   1.065  13.648  1.2323  0.9111 -0.8902
 5163TIP3    H236905   1.812   1.161  13.537 -0.0227  1.1204 -0.3103
 5164TIP3   OH236906   5.472   1.549   4.558 -0.1919  0.2487 -0.2774
 5164TIP3    H136907   5.487   1.530   4.465  2.8803 -0.4317  0.2337
 5164TIP3    H236908   5.421   1.474   4.589  1.6723 -1.3098 -0.7769
 5165TIP3   OH236909   6.663   6.360  12.668  0.3265 -0.7253 -0.0623
 5165TIP3    H136910   6.705   6.345  12.584  1.0989 -0.2416  0.2260
 5165TIP3    H236911   6.634   6.451  12.665 -0.4576 -0.9747 -0.1498
 5166TIP3   OH236912   5.021   6.173   2.232  0.3014  0.1595  0.6636
 5166TIP3    H136913   4.959   6.245   2.220  0.9760  0.6134 -0.2704
 5166TIP3    H236914   4.966   6.097   2.252 -0.5064  0.6799  0.4824
 5167TIP3   OH236915   2.880   1.526   1.248 -0.0949 -0.0782  0.1145
 5167TIP3    H136916   2.864   1.453   1.308  0.6317 -0.2475  0.1122
 5167TIP3    H236917   2.957   1.500   1.198  1.0992  1.3132  1.1303
 5168TIP3   OH236918   5.166   0.002   0.671 -0.1767  0.4757  0.2618
 5168TIP3    H136919   5.220   0.056   0.729  1.3873  0.6151 -1.2676
 5168TIP3    H236920   5.091   0.058   0.650 -0.4248  0.6673  1.5818
 5169TIP3   OH236921   5.021   4.004   5.441 -0.0321 -0.0647  0.1209
 5169TIP3    H136922   4.935   3.972   5.415  0.1560  1.0081 -2.0409
 5169TIP3    H236923   5.034   4.083   5.389  2.3239 -0.2987  0.2539
 5170TIP3   OH236924   2.756   0.755   4.218  0.1264 -0.4034  0.2587
 5170TIP3    H136925   2.720   0.688   4.276 -1.6076 -0.6903 -1.0579
 5170TIP3    H236926   2.791   0.706   4.143  2.6110 -0.0604  1.1275
 5171TIP3   OH236927   0.563   6.086  11.305  0.4433  0.5905 -0.3332
 5171TIP3    H136928   0.549   6.002  11.350  0.0868  1.6792  1.7243
 5171TIP3    H236929   0.475   6.123  11.295  0.7443  1.9644  1.4607
 5172TIP3   OH236930   6.544   4.076   1.952 -0.1617 -0.0023  0.0886
 5172TIP3    H136931   6.464   4.128   1.950 -0.8017 -0.9676 -0.7657
 5172TIP3    H236932   6.558   4.056   2.045 -1.6887 -0.9579  0.1453
 5173TIP3   OH236933   5.572   5.547  16.888 -0.2212 -0.3954 -0.5236
 5173TIP3    H136934   5.656   5.592  16.885  0.5473 -1.7744 -0.6179
 5173TIP3    H236935   5.584   5.478  16.954 -0.7758 -1.5530 -1.5859
 5174TIP3   OH236936   2.813   3.142   4.582  0.3107  0.2079 -0.2178
 5174TIP3    H136937   2.822   3.096   4.498 -0.3059  0.2517 -0.3111
 5174TIP3    H236938   2.810   3.235   4.557 -1.9471  0.1571 -0.3611
 5175TIP3   OH236939   4.643   1.972  15.128 -0.3679 -0.2274  0.3406
 5175TIP3    H136940   4.635   1.948  15.220 -2.2874 -0.0288  0.2629
 5175TIP3    H236941   4.736   1.991  15.117 -0.2833  0.9838  2.5413
 5176TIP3   OH236942   2.406   1.283  12.147  0.3604  0.0732  0.1344
 5176TIP3    H136943   2.332   1.226  12.128 -0.2944  0.8812  0.2073
 5176TIP3    H236944   2.385   1.322  12.232 -0.3556  2.2071 -0.9660
 5177TIP3   OH236945   4.083   5.513  13.410 -0.2066 -0.3865 -0.5000
 5177TIP3    H136946   4.151   5.460  13.368  0.0293 -0.1107 -0.4729
 5177TIP3    H236947   4.019   5.450  13.442  1.3332 -0.8830  1.8732
 5178TIP3   OH236948   2.669   3.867  12.800 -0.2544 -0.3854  0.0373
 5178TIP3    H136949   2.594   3.848  12.744  0.2150  2.7046 -1.8688
 5178TIP3    H236950   2.651   3.955  12.835  1.1801 -0.7635  1.8833
 5179TIP3   OH236951   6.159   3.710   0.822 -0.6549 -0.7632 -0.5512
 5179TIP3    H136952   6.117   3.787   0.859 -0.9265 -0.2889 -1.7993
 5179TIP3    H236953   6.232   3.692   0.881 -2.2627 -1.3093  1.3861
 5180TIP3   OH236954   1.217   0.703  17.085  0.1364  0.1613 -0.0979
 5180TIP3    H136955   1.234   0.793  17.112  0.8515 -0.2429  0.8666
 5180TIP3    H236956   1.267   0.692  17.004 -2.2607  1.4753 -1.8769
 5181TIP3   OH236957   5.198   3.830  14.693  0.2005  0.0193  0.0057
 5181TIP3    H136958   5.200   3.842  14.598  0.2647  0.4071  0.0548
 5181TIP3    H236959   5.268   3.886  14.726  0.4508 -0.4331  0.2506
 5182TIP3   OH236960   0.008   1.627   3.807  0.2309  0.6018  0.3971
 5182TIP3    H136961  -0.059   1.652   3.871 -0.4344 -0.0956 -0.0137
 5182TIP3    H236962   0.077   1.587   3.860  0.4717  1.5839  0.8552
 5183TIP3   OH236963   5.933   3.827  15.560  0.0362  0.9373 -0.1151
 5183TIP3    H136964   5.957   3.735  15.564  0.4156  1.0486  3.1798
 5183TIP3    H236965   6.014   3.872  15.535 -0.1507  0.4323 -1.7296
 5184TIP3   OH236966   5.598   5.234  12.468  0.0538  0.0420 -0.1324
 5184TIP3    H136967   5.555   5.309  12.508 -0.2378  0.4811 -1.2269
 5184TIP3    H236968   5.690   5.243  12.494 -0.2853 -0.2554  1.2474
 5185TIP3   OH236969   3.176   2.834  16.693 -0.1399  0.0322  0.2297
 5185TIP3    H136970   3.100   2.831  16.751  0.1077 -1.8614  0.5018
 5185TIP3    H236971   3.248   2.800  16.745  0.4807  0.0064 -0.6249
 5186TIP3   OH236972   2.904   4.764  16.859  0.6162  0.7290 -0.5071
 5186TIP3    H136973   2.842   4.693  16.841 -0.9775  2.3982 -2.0270
 5186TIP3    H236974   2.878   4.797  16.945 -0.6834  1.4402 -1.1495
 5187TIP3   OH236975   0.449   5.898  11.993  0.2684 -0.2947 -0.1283
 5187TIP3    H136976   0.494   5.944  12.063  1.9669 -1.6673 -0.2716
 5187TIP3    H236977   0.465   5.952  11.915 -1.7924  1.3405  0.4812
 5188TIP3   OH236978   0.337   6.507   1.949  0.2350 -0.6508 -0.2771
 5188TIP3    H136979   0.372   6.583   1.903 -1.3891  1.7462  2.1647
 5188TIP3    H236980   0.409   6.478   2.006  0.5935 -0.4188 -0.6050
 5189TIP3   OH236981   6.548   3.249   1.505 -0.6387 -0.4629  0.1400
 5189TIP3    H136982   6.541   3.292   1.591  0.5548 -2.8293  1.5350
 5189TIP3    H236983   6.514   3.313   1.443 -0.8228  1.6516  2.2855
 5190TIP3   OH236984   4.638   4.061  11.079  0.0326  0.4202 -0.3816
 5190TIP3    H136985   4.648   3.968  11.059 -2.4397  0.1523 -0.6387
 5190TIP3    H236986   4.647   4.067  11.174 -0.4428 -0.2017 -0.2929
 5191TIP3   OH236987   4.263   3.969   4.060 -0.3906  0.5965  0.0061
 5191TIP3    H136988   4.239   4.026   3.987 -1.3363  0.2443  0.0315
 5191TIP3    H236989   4.211   4.002   4.134  0.4811  0.8853  0.5081
 5192TIP3   OH236990   6.408   2.809  15.602  0.8078  0.1511 -0.4447
 5192TIP3    H136991   6.502   2.793  15.603  0.9000  0.6881 -0.5731
 5192TIP3    H236992   6.391   2.845  15.516  0.1918 -1.6648 -1.1387
 5193TIP3   OH236993   4.579   3.018  14.146  0.1860  0.3573  0.8100
 5193TIP3    H136994   4.630   3.041  14.067 -1.6437  0.6194 -0.3482
 5193TIP3    H236995   4.624   2.941  14.181  3.4862  2.5387  1.9257
 5194TIP3   OH236996   0.099   4.414  15.194 -0.0126  0.0905  0.1073
 5194TIP3    H136997   0.148   4.444  15.117  1.0885 -1.9114 -0.0344
 5194TIP3    H236998   0.024   4.368  15.158  0.5298 -0.8920  0.1783
 5195TIP3   OH236999   1.173   6.557  11.977 -0.0481  0.1693  0.5092
 5195TIP3    H137000   1.221   6.475  11.964  2.1208  1.6862 -1.9980
 5195TIP3    H237001   1.102   6.554  11.914 -0.0898  0.1367  0.5578
 5196TIP3   OH237002   1.254   1.557   5.267 -0.0143 -0.1742  0.4136
 5196TIP3    H137003   1.175   1.600   5.301 -0.1452 -0.4860  0.5123
 5196TIP3    H237004   1.242   1.465   5.291  0.5045 -0.1774  0.6612
 5197TIP3   OH237005   5.561   3.105   3.909  0.2089  0.0190 -0.0294
 5197TIP3    H137006   5.609   3.175   3.865  0.1146  1.1470  1.5563
 5197TIP3    H237007   5.595   3.025   3.870  3.4411  0.7305  0.9688
 5198TIP3   OH237008   1.476   0.593   1.404  0.6070 -0.3752 -0.1689
 5198TIP3    H137009   1.396   0.642   1.385  0.1296 -0.5663  1.1903
 5198TIP3    H237010   1.535   0.615   1.333 -0.5917 -0.0825 -1.1083
 5199TIP3   OH237011   4.326   2.043  14.666 -0.1385 -0.2536  0.1198
 5199TIP3    H137012   4.281   2.126  14.680  0.2540  0.2598 -1.3997
 5199TIP3    H237013   4.417   2.060  14.690  0.0101 -0.1264 -0.5058
 5200TIP3   OH237014   3.991   3.592  15.453 -0.0489  0.0723 -0.2701
 5200TIP3    H137015   3.987   3.648  15.375  0.3175 -0.3468 -0.5917
 5200TIP3    H237016   3.961   3.507  15.423 -1.1498  0.2232  0.3557
 5201TIP3   OH237017   5.923   0.899  15.793  0.2195 -0.0780  0.1715
 5201TIP3    H137018   5.831   0.923  15.783  0.3122 -0.0548 -0.7751
 5201TIP3    H237019   5.960   0.965  15.851 -0.2396  0.2299  0.1144
 5202TIP3   OH237020   3.838   2.840  12.396  0.4853 -0.0985 -0.2704
 5202TIP3    H137021   3.811   2.926  12.425  1.3278 -0.4619  1.7983
 5202TIP3    H237022   3.788   2.824  12.316 -0.6163  1.7634 -0.0061
 5203TIP3   OH237023   6.722   2.878   2.550 -0.4009 -0.0673 -0.1697
 5203TIP3    H137024   6.670   2.936   2.493  1.9256  1.7841 -0.5609
 5203TIP3    H237025   6.730   2.926   2.632  1.0772 -0.0405 -0.2966
 5204TIP3   OH237026   4.436   2.948   2.248 -0.0578  0.2262 -0.0058
 5204TIP3    H137027   4.499   2.877   2.239 -0.3492  0.1526 -1.7175
 5204TIP3    H237028   4.358   2.907   2.285 -0.0800 -0.2727 -0.5950
 5205TIP3   OH237029   2.351   0.638   5.272 -0.1480 -0.3128 -0.1562
 5205TIP3    H137030   2.396   0.667   5.193 -0.0193  0.0530  0.0506
 5205TIP3    H237031   2.382   0.548   5.285  1.2674  0.2371  0.5067
 5206TIP3   OH237032   0.432   0.537  15.173 -0.0896 -0.3974  0.4388
 5206TIP3    H137033   0.401   0.550  15.084  0.0855 -0.6523  0.3408
 5206TIP3    H237034   0.438   0.625  15.210  1.0510 -0.1944 -0.2007
 5207TIP3   OH237035   3.325   4.393  11.548 -0.0898 -0.5668 -0.1535
 5207TIP3    H137036   3.356   4.444  11.622  0.9175 -2.1118  0.5109
 5207TIP3    H237037   3.254   4.340  11.583  1.2829 -2.3138  0.0804
 5208TIP3   OH237038   5.515   6.237   5.697  0.4432 -0.5567  0.2774
 5208TIP3    H137039   5.427   6.215   5.665  1.0940  0.1999 -2.2406
 5208TIP3    H237040   5.573   6.179   5.647  1.6184  1.6144 -1.0161
 5209TIP3   OH237041   2.890   2.768  16.564  0.2450 -0.1974 -0.2326
 5209TIP3    H137042   2.820   2.784  16.627 -0.4894 -1.9177 -0.5497
 5209TIP3    H237043   2.914   2.855  16.532 -0.5237  0.5595  1.1732
 5210TIP3   OH237044   5.528   0.325  15.874 -0.4027 -0.1097 -0.1422
 5210TIP3    H137045   5.444   0.363  15.899 -0.9802 -1.1633 -0.4357
 5210TIP3    H237046   5.506   0.250  15.819  0.6437 -1.4400  1.1318
 5211TIP3   OH237047   6.350   5.881  12.665 -0.0729 -0.0642 -0.0069
 5211TIP3    H137048   6.426   5.879  12.724  1.1103 -1.1166 -1.5092
 5211TIP3    H237049   6.384   5.912  12.582 -1.2465 -0.7852 -0.7875
 5212TIP3   OH237050   2.229   4.155  17.117 -0.3714  0.4390  0.4067
 5212TIP3    H137051   2.310   4.162  17.167 -0.8716 -1.2369  1.5323
 5212TIP3    H237052   2.256   4.112  17.035 -0.2849 -1.5514  1.4053
 5213TIP3   OH237053   3.045   2.146   3.683  0.0461  0.2728  0.3292
 5213TIP3    H137054   3.009   2.212   3.624  2.3442 -0.9978 -2.7502
 5213TIP3    H237055   3.105   2.196   3.739 -0.2753  1.1811 -0.1064
 5214TIP3   OH237056   1.320   3.815  16.728  0.6286 -0.0338  0.7147
 5214TIP3    H137057   1.402   3.861  16.746 -0.8681  2.7162  1.1164
 5214TIP3    H237058   1.299   3.839  16.638  0.5806 -1.3103  0.3704
 5215TIP3   OH237059   2.959   2.580   4.527  0.4472  0.3165 -0.8367
 5215TIP3    H137060   2.961   2.485   4.518 -0.2910  0.3366 -1.3226
 5215TIP3    H237061   3.019   2.599   4.598 -1.3630 -0.7247  1.0763
 5216TIP3   OH237062   4.410   4.203  12.136 -0.2768 -0.2671  0.4274
 5216TIP3    H137063   4.338   4.173  12.082  1.0234 -1.0752 -0.9205
 5216TIP3    H237064   4.459   4.124  12.157 -1.0147 -0.0749  3.3132
 5217TIP3   OH237065   5.502   3.289   6.713  0.0214 -0.1595 -1.0362
 5217TIP3    H137066   5.485   3.295   6.808  3.5212  1.7984 -0.3724
 5217TIP3    H237067   5.513   3.195   6.697 -0.7829 -0.5442  0.4516
 5218TIP3   OH237068   4.322   5.582   5.558  0.5720  0.9791  0.0491
 5218TIP3    H137069   4.340   5.558   5.649 -1.2097  1.1726  0.4816
 5218TIP3    H237070   4.228   5.570   5.548  0.7805  0.6256 -1.8863
 5219TIP3   OH237071   5.158   6.258   5.581  0.2656 -0.2386 -0.2953
 5219TIP3    H137072   5.177   6.186   5.521  2.4422  0.0250 -0.0103
 5219TIP3    H237073   5.105   6.218   5.650 -1.4922 -0.7478 -1.8740
 5220TIP3   OH237074   0.844   5.191  12.995  0.6018  0.0021  0.4034
 5220TIP3    H137075   0.850   5.109  13.043  3.6231  0.2350  0.5944
 5220TIP3    H237076   0.789   5.247  13.051 -2.3865 -2.0502 -0.2030
 5221TIP3   OH237077   1.657   5.689   1.640  0.6877  0.0990  0.1194
 5221TIP3    H137078   1.614   5.612   1.676  0.3383  0.9178  1.5218
 5221TIP3    H237079   1.742   5.657   1.608  1.9540 -0.4015  3.5333
 5222TIP3   OH237080   6.167   5.637  10.834 -0.3607 -0.2366 -0.3471
 5222TIP3    H137081   6.110   5.693  10.782  0.8091 -0.6273 -2.1167
 5222TIP3    H237082   6.252   5.680  10.833  0.4204 -1.7346 -1.2976
 5223TIP3   OH237083   1.329   3.636   2.265  0.5843 -0.0871 -0.5646
 5223TIP3    H137084   1.381   3.658   2.342  0.4576 -0.2334 -0.4363
 5223TIP3    H237085   1.263   3.574   2.297 -0.4709  1.0569 -0.4761
 5224TIP3   OH237086   5.230   0.020  14.881 -0.1164 -0.5999  0.1369
 5224TIP3    H137087   5.258   0.104  14.845  1.1974  0.5935  3.4928
 5224TIP3    H237088   5.296  -0.042  14.852  1.5907  0.5589  1.3588
 5225TIP3   OH237089   3.559   1.846   1.006 -0.2010  0.2791  0.2851
 5225TIP3    H137090   3.649   1.855   0.974 -0.0551  0.2732  0.6873
 5225TIP3    H237091   3.556   1.899   1.085 -0.6372  0.5169  0.1170
 5226TIP3   OH237092   2.997   5.845  13.361 -0.3642  0.0524  0.2394
 5226TIP3    H137093   2.969   5.761  13.323  1.3294  0.3118 -1.7078
 5226TIP3    H237094   3.092   5.846  13.349 -0.2786  1.9708  0.8474
 5227TIP3   OH237095   3.918   1.527   4.785  0.2207  0.2017  0.3776
 5227TIP3    H137096   3.879   1.610   4.812  0.2405  0.3550 -0.0646
 5227TIP3    H237097   3.903   1.523   4.691 -0.9465 -0.9050  0.5826
 5228TIP3   OH237098   0.048   6.539  10.764 -0.0136 -0.0409 -0.1769
 5228TIP3    H137099  -0.037   6.561  10.726 -1.2656 -0.8813  1.9544
 5228TIP3    H237100   0.036   6.453  10.804  2.4677 -1.1238 -1.5021
 5229TIP3   OH237101   3.350   1.100   5.698 -0.6934  0.1665 -0.0150
 5229TIP3    H137102   3.354   1.010   5.732  0.8298 -0.5191 -1.8458
 5229TIP3    H237103   3.257   1.116   5.683 -0.8926 -1.6143 -0.9165
 5230TIP3   OH237104   1.608   4.853  10.915  0.5706 -0.1637  0.6715
 5230TIP3    H137105   1.526   4.897  10.891  1.1273  0.6301  0.1876
 5230TIP3    H237106   1.592   4.819  11.003 -0.4629 -0.4881  0.3781
 5231TIP3   OH237107   0.374   5.589  12.880  0.0750  0.0969 -0.9709
 5231TIP3    H137108   0.424   5.605  12.960 -0.8455  1.3901 -0.6115
 5231TIP3    H237109   0.327   5.507  12.897  0.2303  0.1272 -0.3661
 5232TIP3   OH237110   2.221   0.917   4.213  0.1142 -1.0511 -0.3950
 5232TIP3    H137111   2.216   0.964   4.129 -1.3007 -1.0721 -0.3468
 5232TIP3    H237112   2.210   0.985   4.279 -1.2412 -1.3174 -0.3099
 5233TIP3   OH237113   2.914   4.480  16.428  0.6402  0.1975  0.4121
 5233TIP3    H137114   2.822   4.472  16.451  0.3588  0.1644 -0.6566
 5233TIP3    H237115   2.958   4.412  16.480 -0.4284 -2.2291 -1.6374
 5234TIP3   OH237116   0.246   6.370   0.481  0.0011  0.4127  0.1775
 5234TIP3    H137117   0.249   6.464   0.495  1.2086  0.2775  0.9783
 5234TIP3    H237118   0.311   6.334   0.542 -1.0679 -1.0218  0.5509
 5235TIP3   OH237119   0.282   3.609   2.621 -0.1543  0.5427  0.0561
 5235TIP3    H137120   0.252   3.695   2.591 -1.3112 -0.1014 -0.7386
 5235TIP3    H237121   0.263   3.609   2.715 -1.0474  0.8296 -0.1056
 5236TIP3   OH237122   0.024   2.537   5.467 -0.9739 -0.5917  0.3748
 5236TIP3    H137123   0.029   2.576   5.555 -3.3636  1.3233 -0.2277
 5236TIP3    H237124  -0.060   2.491   5.466 -0.2156 -2.0038 -0.4077
 5237TIP3   OH237125   1.703   6.012   1.017  0.4220  0.3159 -0.4158
 5237TIP3    H137126   1.772   6.051   1.069  0.2756  3.0020 -2.0521
 5237TIP3    H237127   1.749   5.960   0.951  0.7258 -0.1910  0.1813
 5238TIP3   OH237128   3.879   1.819   4.838 -0.2565 -0.1285 -0.2149
 5238TIP3    H137129   3.923   1.840   4.756  0.9932 -2.7784 -0.3263
 5238TIP3    H237130   3.949   1.817   4.903 -0.9165 -0.0101  0.5151
 5239TIP3   OH237131   4.515   0.377   4.538  0.1754  0.1718 -0.2575
 5239TIP3    H137132   4.528   0.348   4.628 -0.1219 -2.0864 -0.8794
 5239TIP3    H237133   4.603   0.397   4.506  0.5969 -1.4485 -0.1888
 5240TIP3   OH237134   2.481   0.376   4.659  0.0795  0.1520 -0.0958
 5240TIP3    H137135   2.389   0.352   4.656  0.1424 -0.4612  1.7895
 5240TIP3    H237136   2.507   0.384   4.567 -1.7455 -0.0072 -0.6551
 5241TIP3   OH237137   4.298   5.913   1.150  0.3941  0.2174 -0.3668
 5241TIP3    H137138   4.214   5.903   1.106  1.0589  0.4520 -1.7446
 5241TIP3    H237139   4.307   6.007   1.165  0.5186  0.2225 -0.4663
 5242TIP3   OH237140   6.512   5.583   0.992 -0.1314  0.0046 -0.3079
 5242TIP3    H137141   6.541   5.579   0.900  0.2403 -1.7232 -0.1605
 5242TIP3    H237142   6.474   5.669   1.001  2.1093  1.2141 -1.4040
 5243TIP3   OH237143   1.191   5.416  14.819 -0.2051  0.0464  0.5853
 5243TIP3    H137144   1.205   5.322  14.813  0.4641  0.0858  1.2937
 5243TIP3    H237145   1.271   5.450  14.859 -0.8850  0.7611  1.3975
 5244TIP3   OH237146   0.795   2.489  16.487 -0.1672  0.4542  0.5258
 5244TIP3    H137147   0.748   2.474  16.404 -0.0141  1.4589  0.2497
 5244TIP3    H237148   0.809   2.401  16.522  0.7311 -0.0714 -1.0558
 5245TIP3   OH237149   1.417   2.252  15.953 -0.5772 -0.5530  0.0771
 5245TIP3    H137150   1.418   2.228  15.861  3.1132  3.1791 -1.1589
 5245TIP3    H237151   1.364   2.333  15.956 -0.2245 -0.3446  1.1186
 5246TIP3   OH237152   4.620   5.473   0.820  0.3015  0.3334  0.1858
 5246TIP3    H137153   4.685   5.435   0.879  0.6388 -0.0650 -0.4257
 5246TIP3    H237154   4.600   5.402   0.758 -0.0603  0.7366 -0.1619
 5247TIP3   OH237155   3.900   1.305   1.183 -0.5475 -0.5277  0.0801
 5247TIP3    H137156   3.955   1.328   1.257  0.3271  1.0365 -0.9831
 5247TIP3    H237157   3.813   1.290   1.220 -0.3828  1.2750  1.3074
 5248TIP3   OH237158   2.232   1.098   3.987 -0.3595  0.1077  0.0238
 5248TIP3    H137159   2.175   1.172   3.967  0.3837  0.3021 -1.5954
 5248TIP3    H237160   2.193   1.024   3.939 -0.3382 -0.2222  0.5101
 5249TIP3   OH237161   0.321   2.686  12.240  0.2788  0.2261 -0.6018
 5249TIP3    H137162   0.317   2.780  12.224  0.2288  0.7426  1.9034
 5249TIP3    H237163   0.241   2.651  12.202  0.7146  1.0269 -2.3354
 5250TIP3   OH237164   5.907   2.231   5.999  0.3018 -0.1129 -0.3682
 5250TIP3    H137165   5.846   2.168   6.037  0.3095 -0.3126 -0.6817
 5250TIP3    H237166   5.852   2.307   5.979  0.0057 -0.5501 -1.2928
 5251TIP3   OH237167   6.178   1.692  11.278  0.1268 -0.1130 -0.0059
 5251TIP3    H137168   6.232   1.743  11.338  1.1016 -0.8596 -0.2219
 5251TIP3    H237169   6.176   1.604  11.317 -1.0510 -0.0727  0.0646
 5252TIP3   OH237170   2.510   3.592   0.325 -0.7659  0.0897  0.0790
 5252TIP3    H137171   2.418   3.570   0.340 -0.7258  1.4116  2.8413
 5252TIP3    H237172   2.559   3.521   0.367 -0.4608 -0.7737 -1.6514
 5253TIP3   OH237173   2.056   2.945  16.849  0.1821 -0.1811  0.5713
 5253TIP3    H137174   2.047   2.972  16.757  0.1301 -0.1014  0.5998
 5253TIP3    H237175   2.150   2.928  16.859  0.0086 -1.4233  0.1639
 5254TIP3   OH237176   3.649   0.720   5.736  0.4045 -0.0973 -0.6573
 5254TIP3    H137177   3.589   0.782   5.776 -0.3780 -1.2773  0.0631
 5254TIP3    H237178   3.594   0.664   5.682  1.0537 -0.3432 -1.0759
 5255TIP3   OH237179   3.141   1.804   1.336  0.1922  0.3698  0.7342
 5255TIP3    H137180   3.070   1.792   1.400  0.5215 -1.8822  0.7421
 5255TIP3    H237181   3.183   1.719   1.330 -0.4506  0.1518 -3.2637
 5256TIP3   OH237182   2.589   0.804   5.534 -0.2830 -0.1320  0.3385
 5256TIP3    H137183   2.532   0.728   5.546 -0.6107  0.1522  0.6242
 5256TIP3    H237184   2.560   0.866   5.601 -1.2219  0.9526 -1.0109
 5257TIP3   OH237185   0.179   1.677   0.842  0.5277 -0.0984  0.2136
 5257TIP3    H137186   0.208   1.593   0.878  1.7062 -0.0329 -0.5227
 5257TIP3    H237187   0.165   1.732   0.919 -1.2381 -1.2273  0.7695
 5258TIP3   OH237188   1.208   3.737   0.045 -0.0841  0.3828 -0.1753
 5258TIP3    H137189   1.298   3.729   0.015 -0.1955  0.0813 -0.4372
 5258TIP3    H237190   1.213   3.729   0.140  0.3244  1.8407 -0.0481
 5259TIP3   OH237191   4.589   6.323   0.574  0.3466 -0.1311 -0.2443
 5259TIP3    H137192   4.501   6.349   0.600  0.2752  0.5595 -1.1233
 5259TIP3    H237193   4.633   6.301   0.656 -0.3236  0.5241  0.3023
 5260TIP3   OH237194   1.312   0.247  12.696  0.2428 -0.5035  0.1622
 5260TIP3    H137195   1.362   0.178  12.740 -0.1333  0.8999  3.0448
 5260TIP3    H237196   1.264   0.290  12.766 -1.3854  1.2112 -1.8612
 5261TIP3   OH237197   0.712   1.081   1.120  0.5993 -0.4820 -0.1193
 5261TIP3    H137198   0.617   1.093   1.123  0.8389  1.6558  1.8179
 5261TIP3    H237199   0.743   1.144   1.055  0.9653  2.4900  2.6514
 5262TIP3   OH237200   0.059   0.187  13.944 -0.4190  0.2010  0.2507
 5262TIP3    H137201   0.079   0.142  14.026 -2.8056 -0.1380  0.7207
 5262TIP3    H237202   0.051   0.117  13.879  0.4428  0.3780 -0.0535
 5263TIP3   OH237203   3.185   4.402   4.909 -0.3975 -0.2515 -0.7104
 5263TIP3    H137204   3.228   4.412   4.994  0.8776 -1.4931 -1.1512
 5263TIP3    H237205   3.205   4.483   4.862  2.6016 -1.2083 -1.3190
 5264TIP3   OH237206   2.793   3.348   5.813  0.3752 -0.3939  0.1735
 5264TIP3    H137207   2.862   3.287   5.840  1.8067  1.3739  0.6430
 5264TIP3    H237208   2.839   3.429   5.793 -1.4782  0.5379 -0.5023
 5265TIP3   OH237209   0.315   2.825   5.271 -0.5147  0.3041  0.0522
 5265TIP3    H137210   0.359   2.814   5.186  0.6271  0.3415  0.6072
 5265TIP3    H237211   0.228   2.787   5.259  0.1502 -1.0598 -0.7107
 5266TIP3   OH237212   4.129   5.829   5.237  0.3439  0.0028 -0.4824
 5266TIP3    H137213   4.077   5.749   5.225 -1.1751  0.9641 -0.5549
 5266TIP3    H237214   4.143   5.834   5.332 -1.8233  0.9877 -0.1728
 5267TIP3   OH237215   6.783   4.940  11.766 -0.4338 -0.5420 -0.4399
 5267TIP3    H137216   6.775   5.013  11.705 -2.1040  2.0972  2.6131
 5267TIP3    H237217   6.704   4.888  11.753 -1.8578  1.1987  0.7202
 5268TIP3   OH237218   2.529   5.919  11.031  0.6245  0.5560 -0.0713
 5268TIP3    H137219   2.507   5.839  11.079 -1.2495  0.7339 -0.5493
 5268TIP3    H237220   2.470   5.985  11.066  0.4487  1.1234 -1.3778
 5269TIP3   OH237221   3.668   2.686   5.633  0.7127  0.4776 -0.1740
 5269TIP3    H137222   3.621   2.615   5.676 -1.4633  2.1258  0.3846
 5269TIP3    H237223   3.672   2.756   5.699 -0.6241  2.2195 -1.8084
 5270TIP3   OH237224   2.051   1.235   5.728  0.5894 -0.1482  0.1512
 5270TIP3    H137225   2.062   1.175   5.654 -1.6297  0.0349 -0.3968
 5270TIP3    H237226   2.070   1.322   5.691 -2.0910  0.1399 -0.7155
 5271TIP3   OH237227   0.124   5.725   3.827  0.7413 -0.4165  0.4787
 5271TIP3    H137228   0.128   5.699   3.919  2.5685 -0.5069  0.4142
 5271TIP3    H237229   0.039   5.693   3.796 -0.3926  0.5418  2.3753
 5272TIP3   OH237230   3.536   1.702   4.568 -0.1197  0.1300 -0.4124
 5272TIP3    H137231   3.579   1.703   4.654  0.1809 -0.6642 -0.5444
 5272TIP3    H237232   3.538   1.610   4.541  0.3804  0.4507 -1.5566
 5273TIP3   OH237233   2.945   5.666  14.661 -0.0580 -0.4353 -0.0231
 5273TIP3    H137234   2.961   5.600  14.728 -2.8262 -0.3149  0.8811
 5273TIP3    H237235   2.859   5.645  14.626  1.1901 -0.3966 -3.5253
 5274TIP3   OH237236   1.413   3.505  12.482  0.5720 -0.0145 -0.0726
 5274TIP3    H137237   1.404   3.440  12.413 -3.0950  0.9632 -0.7409
 5274TIP3    H237238   1.438   3.455  12.559 -0.9997 -2.0751 -0.8145
 5275TIP3   OH237239   0.541   2.551  12.085 -0.7579 -0.1312 -0.2546
 5275TIP3    H137240   0.468   2.599  12.124 -1.1138 -0.3498 -0.6423
 5275TIP3    H237241   0.552   2.589  11.999 -1.8621 -1.5346 -1.0693
 5276TIP3   OH237242   6.335   0.229   1.527 -0.7227  0.2045  0.1090
 5276TIP3    H137243   6.386   0.238   1.446  2.0993  2.3770  1.9346
 5276TIP3    H237244   6.356   0.141   1.558  1.1524  0.6500  0.2425
 5277TIP3   OH237245   1.179   6.108  16.707 -0.1808  0.4416 -0.2632
 5277TIP3    H137246   1.109   6.137  16.649 -1.7862  1.7774  2.1443
 5277TIP3    H237247   1.165   6.014  16.716 -0.1371  0.2809 -1.6823
 5278TIP3   OH237248   1.021   4.172   0.938  0.3292 -0.2177 -1.1034
 5278TIP3    H137249   1.084   4.109   0.903 -1.7320 -1.2236 -3.3121
 5278TIP3    H237250   1.035   4.170   1.032  1.3135 -2.9647 -1.2084
 5279TIP3   OH237251   5.561   6.118   2.498  0.0069  0.1889 -0.1898
 5279TIP3    H137252   5.591   6.183   2.561 -0.5294  0.2997 -0.0474
 5279TIP3    H237253   5.495   6.163   2.446  0.7667  0.2393 -1.1410
 5280TIP3   OH237254   1.928   4.103  12.776 -0.2881  0.3874 -0.0637
 5280TIP3    H137255   1.936   4.193  12.808 -2.1521  0.3028  0.7640
 5280TIP3    H237256   1.842   4.100  12.734  0.5460 -0.5367 -1.7904
 5281TIP3   OH237257   0.016   6.050  16.952  0.6301 -0.4069 -0.2697
 5281TIP3    H137258  -0.020   6.138  16.956  1.0766 -0.2599  1.2649
 5281TIP3    H237259  -0.056   5.994  16.982  0.6368 -0.4643 -0.3608
 5282TIP3   OH237260   1.599   5.600  13.796 -0.0159 -0.4840  0.7370
 5282TIP3    H137261   1.599   5.630  13.705  0.3588 -0.3078  0.7922
 5282TIP3    H237262   1.691   5.600  13.820 -0.1060 -0.6561  1.0772
 5283TIP3   OH237263   0.270   6.074   3.474 -0.1747  0.3082  0.3099
 5283TIP3    H137264   0.293   6.149   3.531 -0.4827  0.4539  0.2439
 5283TIP3    H237265   0.342   6.012   3.486  0.8110  1.2137 -0.7166
 5284TIP3   OH237266   0.713   4.370  17.237  0.2028  0.0499  0.3401
 5284TIP3    H137267   0.726   4.327  17.152  0.8585 -0.6128  0.7669
 5284TIP3    H237268   0.630   4.335  17.269 -0.2730  0.6349 -0.2101
 5285TIP3   OH237269   5.194   4.850  16.852  0.0664  0.2621 -0.6828
 5285TIP3    H137270   5.264   4.790  16.876  0.0909  0.6598  0.2729
 5285TIP3    H237271   5.113   4.800  16.863  0.0026  0.7305  1.2759
 5286TIP3   OH237272   0.413   5.196   5.246  0.3851  0.3977  0.1060
 5286TIP3    H137273   0.501   5.234   5.241  1.6670 -2.3255 -0.2992
 5286TIP3    H237274   0.392   5.172   5.156  0.0973 -0.6579  0.4341
 5287TIP3   OH237275   2.421   1.914  16.302 -0.0676  0.3304  0.5771
 5287TIP3    H137276   2.435   1.819  16.307 -2.4199 -0.2151 -1.5555
 5287TIP3    H237277   2.328   1.926  16.319 -0.2067  2.0423 -1.1412
 5288TIP3   OH237278   2.315   4.267  14.190 -0.4447  0.4410 -0.7062
 5288TIP3    H137279   2.253   4.232  14.125  1.3526 -1.4688 -1.4998
 5288TIP3    H237280   2.342   4.351  14.153 -2.6585  1.4415 -0.2273
 5289TIP3   OH237281   1.487   6.011  14.638  0.5689  0.0561  0.3559
 5289TIP3    H137282   1.538   6.092  14.629 -0.5679  0.5576 -2.5685
 5289TIP3    H237283   1.553   5.941  14.638  1.4505  0.8741  0.3085
 5290TIP3   OH237284   0.363   6.100  15.937 -0.0979  0.0553 -0.3513
 5290TIP3    H137285   0.270   6.086  15.953 -0.6832  0.1110 -3.0955
 5290TIP3    H237286   0.391   6.024  15.886  1.2950  0.1793  0.1735
 5291TIP3   OH237287   1.668   1.389   1.449  0.1424  0.4147 -0.3371
 5291TIP3    H137288   1.618   1.462   1.413 -0.2228  0.4318  0.1928
 5291TIP3    H237289   1.624   1.368   1.531  0.0004 -0.6681 -0.6719
 5292TIP3   OH237290   3.328   5.700   2.060 -0.6779 -0.1039 -0.1601
 5292TIP3    H137291   3.278   5.775   2.028  0.2957  0.6077 -0.0374
 5292TIP3    H237292   3.338   5.644   1.984 -1.7721 -0.3342 -0.1579
 5293TIP3   OH237293   5.737   0.513   0.269  0.2535  0.0770  0.2007
 5293TIP3    H137294   5.789   0.591   0.287  0.6856 -0.3166  0.6699
 5293TIP3    H237295   5.661   0.521   0.327  0.4602 -0.0123  0.4836
 5294TIP3   OH237296   2.537   5.828  14.344 -0.5135 -0.6938  1.1408
 5294TIP3    H137297   2.512   5.894  14.409 -0.5774 -1.3766  1.8194
 5294TIP3    H237298   2.631   5.842  14.331 -0.9895  1.2957 -0.7579
 5295TIP3   OH237299   0.947   1.816  11.676 -0.3704 -0.1133  0.0912
 5295TIP3    H137300   0.937   1.828  11.581 -1.4440  0.6120  0.2777
 5295TIP3    H237301   0.862   1.785  11.706  0.8376 -3.5314  0.4133
 5296TIP3   OH237302   2.592   0.031   1.427 -0.4454  0.2719 -0.7050
 5296TIP3    H137303   2.618   0.123   1.430 -0.4580  0.2553 -0.0178
 5296TIP3    H237304   2.647  -0.011   1.492 -3.0381  0.4586  1.7823
 5297TIP3   OH237305   2.472   2.160  16.177 -0.2774 -0.0229  0.2028
 5297TIP3    H137306   2.549   2.202  16.216 -0.9251  0.3881  1.0717
 5297TIP3    H237307   2.468   2.074  16.219 -1.7511  0.9234  2.1375
 5298TIP3   OH237308   1.812   1.129   1.761 -0.3260  0.0808 -0.1873
 5298TIP3    H137309   1.884   1.189   1.740 -1.5136  1.2503 -1.0510
 5298TIP3    H237310   1.735   1.171   1.724 -1.4901 -1.0781  0.8614
 5299TIP3   OH237311   2.085   5.684   1.699  0.1000  0.1103  0.2564
 5299TIP3    H137312   2.043   5.635   1.629 -0.2843 -2.0724  1.9158
 5299TIP3    H237313   2.178   5.660   1.693  0.1419  0.2714  0.2424
 5300TIP3   OH237314   3.074   5.254  15.253 -0.2644  0.3875  0.0604
 5300TIP3    H137315   3.104   5.332  15.208  0.6300  1.5831  2.5563
 5300TIP3    H237316   2.982   5.271  15.272 -1.7481 -1.5868 -4.0550
 5301TIP3   OH237317   3.930   3.934  12.268  0.1301 -0.1583 -0.0688
 5301TIP3    H137318   3.884   4.008  12.307  0.2421 -0.0581 -0.1289
 5301TIP3    H237319   3.891   3.925  12.180 -1.8633 -1.8870  0.8926
 5302TIP3   OH237320   5.098   5.116   2.743  0.0132 -0.4133 -0.4873
 5302TIP3    H137321   5.004   5.100   2.738  0.2088 -1.8286 -0.0734
 5302TIP3    H237322   5.136   5.030   2.761  1.2685  0.3561  0.7166
 5303TIP3   OH237323   2.053   4.903  11.321  0.4476  0.1801  0.0924
 5303TIP3    H137324   2.102   4.909  11.239  0.5956  2.0401  0.2761
 5303TIP3    H237325   2.042   4.809  11.335  0.3267 -0.1958 -2.1014
 5304TIP3   OH237326   4.685   5.606   4.706 -0.4919 -0.1824 -0.1283
 5304TIP3    H137327   4.735   5.525   4.698 -0.3560 -0.0958 -0.1474
 5304TIP3    H237328   4.730   5.656   4.774 -0.4025  0.0082 -0.3261
 5305TIP3   OH237329   1.891   0.770  13.203 -0.1370  0.2312  0.0253
 5305TIP3    H137330   1.842   0.773  13.286  0.6824  1.3491  0.4915
 5305TIP3    H237331   1.823   0.767  13.136 -0.8285 -2.1514  0.7308
 5306TIP3   OH237332   2.455   6.549  14.801  0.1196  0.1440 -0.0583
 5306TIP3    H137333   2.468   6.454  14.801 -0.1807  0.0827  1.1994
 5306TIP3    H237334   2.360   6.560  14.813  0.2474  0.5893  0.6157
 5307TIP3   OH237335   3.364   3.530   4.921 -0.4719  0.2353  0.1339
 5307TIP3    H137336   3.367   3.611   4.870 -1.1869 -0.1719 -0.5668
 5307TIP3    H237337   3.333   3.463   4.860  0.3369 -0.6323  0.6437
 5308TIP3   OH237338   4.486   5.733  16.170  0.0492 -0.2699 -0.4397
 5308TIP3    H137339   4.534   5.651  16.177 -0.1804 -0.6075 -2.3210
 5308TIP3    H237340   4.395   5.710  16.188  0.1760 -0.1549  0.3790
 5309TIP3   OH237341   5.413   4.867  11.183  0.2341  0.4667  0.4281
 5309TIP3    H137342   5.429   4.876  11.089  2.7737  2.0341  0.9233
 5309TIP3    H237343   5.384   4.954  11.211 -2.3312 -0.4232  0.9006
 5310TIP3   OH237344   2.711   3.080   1.345  0.2386  0.2064  0.2296
 5310TIP3    H137345   2.806   3.073   1.354  0.5232  3.1012  0.5126
 5310TIP3    H237346   2.696   3.171   1.320 -2.4903 -0.1271  0.3350
 5311TIP3   OH237347   2.590   4.373   4.530  0.4749  0.1345 -0.2185
 5311TIP3    H137348   2.615   4.390   4.439 -1.4424 -0.2334 -0.8769
 5311TIP3    H237349   2.501   4.408   4.536  1.4192  2.4310  2.2661
 5312TIP3   OH237350   3.289   6.002  13.364  0.3516  0.5036 -0.6517
 5312TIP3    H137351   3.224   5.991  13.433 -0.3031  2.8138 -0.8256
 5312TIP3    H237352   3.370   6.026  13.409  1.1799 -2.2693 -0.4431
 5313TIP3   OH237353   3.537   2.928  16.266 -0.2112 -0.0409  0.4449
 5313TIP3    H137354   3.510   2.852  16.213  0.2893  0.0514  0.0557
 5313TIP3    H237355   3.454   2.968  16.292 -0.5497 -1.6686  2.0783
 5314TIP3   OH237356   0.240   4.081  15.142  0.2611  0.4510 -0.2094
 5314TIP3    H137357   0.147   4.099  15.157  0.4695  1.2530  0.1549
 5314TIP3    H237358   0.281   4.097  15.227  1.1299  2.8797 -1.0156
 5315TIP3   OH237359   3.072   3.390  16.977 -0.3897 -0.1775 -0.2755
 5315TIP3    H137360   3.044   3.439  17.054 -1.4921  1.6211 -1.7380
 5315TIP3    H237361   3.133   3.449  16.932 -0.3229 -0.8822 -1.1509
 5316TIP3   OH237362   1.536   3.427  10.903 -0.2454  0.0302  0.4923
 5316TIP3    H137363   1.629   3.419  10.883 -0.4874 -1.7182 -0.0205
 5316TIP3    H237364   1.491   3.379  10.834 -1.5331  0.7089  0.8189
 5317TIP3   OH237365   5.605   0.628  16.238  0.1744 -0.4070  0.0454
 5317TIP3    H137366   5.528   0.574  16.254  0.5228 -0.4134  1.9406
 5317TIP3    H237367   5.679   0.567  16.239  0.2889 -0.3065 -1.0477
 5318TIP3   OH237368   0.036   2.095  13.146  0.0829 -0.0549 -0.1401
 5318TIP3    H137369   0.087   2.052  13.077 -1.2697 -1.7827 -0.1506
 5318TIP3    H237370   0.102   2.122  13.210  1.0561 -2.5483  0.0482
 5319TIP3   OH237371   1.293   4.295  13.884 -0.3107 -0.1752  0.2165
 5319TIP3    H137372   1.238   4.252  13.819 -0.2885  1.3153 -0.8458
 5319TIP3    H237373   1.309   4.382  13.848  0.9914  0.1622  1.5066
 5320TIP3   OH237374   3.337   3.881  13.545 -0.0687  0.0650 -0.9443
 5320TIP3    H137375   3.419   3.859  13.589  0.8717  1.3732 -1.9382
 5320TIP3    H237376   3.281   3.917  13.614  0.3186 -0.5349 -0.3148
 5321TIP3   OH237377   0.138   1.180  14.812 -0.3201 -0.0254 -0.0605
 5321TIP3    H137378   0.151   1.106  14.871 -2.3606 -2.0636 -1.9391
 5321TIP3    H237379   0.226   1.208  14.788  0.5403 -0.0469  2.7506
 5322TIP3   OH237380   3.884   0.540  12.202 -0.0095 -0.1332  0.6940
 5322TIP3    H137381   3.971   0.558  12.167 -1.3012  2.1772 -1.6103
 5322TIP3    H237382   3.847   0.626  12.223 -2.0512 -0.9598  0.7882
 5323TIP3   OH237383   4.823   6.255   5.501  0.1031  0.2601 -0.4008
 5323TIP3    H137384   4.766   6.178   5.510 -0.2660  0.4432 -1.1049
 5323TIP3    H237385   4.769   6.320   5.457 -0.2804  1.6678  1.9452
 5324TIP3   OH237386   5.951   0.355   1.135 -0.4885 -0.0628  0.0514
 5324TIP3    H137387   5.885   0.395   1.193  1.5478  1.9775  1.1375
 5324TIP3    H237388   5.906   0.280   1.096 -3.7086  1.6520  0.0841
 5325TIP3   OH237389   0.930   4.800   2.712 -0.7479 -0.2175  0.1693
 5325TIP3    H137390   0.914   4.769   2.801 -0.4419 -0.6194  0.0866
 5325TIP3    H237391   0.975   4.884   2.724  1.1770 -1.2189  0.4277
 5326TIP3   OH237392   4.529   2.660   3.472  0.1561  0.2476  0.4000
 5326TIP3    H137393   4.594   2.591   3.483  0.1143  0.5411  3.0904
 5326TIP3    H237394   4.463   2.622   3.414  1.1892 -1.1740  0.1110
 5327TIP3   OH237395   2.918   6.058   3.117 -0.1136  0.4606  0.0175
 5327TIP3    H137396   2.963   6.137   3.148  0.0635 -0.0100  0.9860
 5327TIP3    H237397   2.978   6.020   3.053  0.6549  0.1117  0.9231
 5328TIP3   OH237398   4.012   6.323   5.269  0.0939  0.0786  0.0577
 5328TIP3    H137399   3.992   6.335   5.176 -2.8828 -1.7107  0.3695
 5328TIP3    H237400   3.937   6.360   5.316  1.6260  1.1444  1.8534
 5329TIP3   OH237401   1.754   1.436   2.673  0.5152 -0.4558  0.0781
 5329TIP3    H137402   1.709   1.520   2.681 -0.7525 -1.1404  0.3841
 5329TIP3    H237403   1.789   1.418   2.760  1.9178  0.3414 -0.2913
 5330TIP3   OH237404   6.503   1.453   3.832  0.3399 -0.4642 -0.2039
 5330TIP3    H137405   6.523   1.360   3.835 -0.4191 -0.6127  0.4825
 5330TIP3    H237406   6.409   1.458   3.818  0.3958  0.2036 -0.4063
 5331TIP3   OH237407   0.743   0.482  10.860  0.0959 -0.6746 -0.4198
 5331TIP3    H137408   0.665   0.428  10.845 -2.0072  1.9806  0.2287
 5331TIP3    H237409   0.714   0.572  10.843  2.4276  0.6614  1.8905
 5332TIP3   OH237410   6.453   5.642  12.483 -0.0280  0.7448 -0.1723
 5332TIP3    H137411   6.547   5.649  12.503  0.0053  1.1169 -0.4625
 5332TIP3    H237412   6.410   5.684  12.557  0.0753  1.5490 -0.5642
 5333TIP3   OH237413   2.641   6.553   3.645 -0.3246  0.3599 -0.3796
 5333TIP3    H137414   2.723   6.561   3.596 -0.0090  0.1927  0.1158
 5333TIP3    H237415   2.665   6.506   3.725 -0.6377  1.4908  0.4038
 5334TIP3   OH237416   4.938   3.806   6.547  0.3232  0.0521  0.2049
 5334TIP3    H137417   4.861   3.815   6.490 -1.1223  0.7978  2.1907
 5334TIP3    H237418   4.962   3.714   6.539 -0.4411 -0.0897 -0.8343
 5335TIP3   OH237419   2.172   5.492   4.911 -0.1573  0.2380 -0.2589
 5335TIP3    H137420   2.206   5.404   4.925 -1.1116 -0.1754 -0.4871
 5335TIP3    H237421   2.090   5.494   4.959 -0.3801  0.8395 -0.6518
 5336TIP3   OH237422   5.154   4.799   4.249 -0.4421  0.4472 -0.2834
 5336TIP3    H137423   5.170   4.751   4.331  2.4507  0.3936 -0.7942
 5336TIP3    H237424   5.185   4.888   4.268 -1.2136  0.8474 -0.8659
 5337TIP3   OH237425   6.631   3.560  15.537 -0.0544 -0.2105 -0.4621
 5337TIP3    H137426   6.673   3.646  15.533  0.0341 -0.1235  1.5716
 5337TIP3    H237427   6.703   3.498  15.547 -0.2080 -0.3570 -0.2338
 5338TIP3   OH237428   3.704   2.343   3.162 -0.0337 -0.5413  0.1251
 5338TIP3    H137429   3.618   2.362   3.125  0.0788  1.3315  0.7156
 5338TIP3    H237430   3.754   2.307   3.089 -0.2682  1.6741 -1.2363
 5339TIP3   OH237431   6.174   1.658   3.024  0.1068 -0.3071  0.1572
 5339TIP3    H137432   6.211   1.570   3.030 -0.5119 -0.5070  1.3820
 5339TIP3    H237433   6.080   1.645   3.039 -0.2458  0.3744 -1.3462
 5340TIP3   OH237434   6.268   2.666   6.503  0.3323 -0.1477 -0.7605
 5340TIP3    H137435   6.182   2.664   6.545  0.6970 -1.8897  0.0014
 5340TIP3    H237436   6.255   2.717   6.423 -0.5311  2.8064  1.1068
 5341TIP3   OH237437   0.914   3.188  12.421  0.0484 -0.0593  0.2921
 5341TIP3    H137438   0.904   3.142  12.504  0.0563  0.1233  0.3929
 5341TIP3    H237439   0.827   3.223  12.402 -0.8144 -2.8144 -1.3711
 5342TIP3   OH237440   6.688   5.100   3.102 -0.3656  0.2330 -0.0684
 5342TIP3    H137441   6.766   5.152   3.119 -0.5776  0.8621 -0.9330
 5342TIP3    H237442   6.719   5.010   3.098  0.6043  0.5985 -1.9440
 5343TIP3   OH237443   2.806   2.771  13.699  0.4895 -0.2381  0.4099
 5343TIP3    H137444   2.738   2.799  13.638 -0.5085  0.3002  1.7189
 5343TIP3    H237445   2.886   2.813  13.667 -0.5999  2.6523  1.1950
 5344TIP3   OH237446   0.474   4.656  13.451  0.0535  0.0803  0.2023
 5344TIP3    H137447   0.480   4.695  13.538  0.3669  1.3463 -0.3528
 5344TIP3    H237448   0.463   4.731  13.392  0.7375 -0.6712 -0.9299
 5345TIP3   OH237449   3.770   3.695   2.781 -0.1792  0.1174 -0.2080
 5345TIP3    H137450   3.697   3.638   2.755  0.5057 -0.3188 -1.2503
 5345TIP3    H237451   3.728   3.770   2.823 -1.1527 -0.7172  0.3558
 5346TIP3   OH237452   5.476   3.075  13.977 -0.5823  0.0943 -0.0393
 5346TIP3    H137453   5.485   3.113  13.890 -0.6720  0.5340  0.1401
 5346TIP3    H237454   5.392   3.029  13.975 -1.8325  2.2129  0.5794
 5347TIP3   OH237455   2.998   3.399  15.574  0.7970 -0.2577 -0.0708
 5347TIP3    H137456   2.974   3.466  15.638 -0.5868  1.3587 -2.1328
 5347TIP3    H237457   2.930   3.332  15.582 -0.2694  0.6959 -0.8451
 5348TIP3   OH237458   2.249   3.758  16.054  0.5515 -0.2543  0.6836
 5348TIP3    H137459   2.174   3.801  16.014  0.7843 -1.4492 -1.1674
 5348TIP3    H237460   2.213   3.711  16.129 -0.2365  0.5300  0.8159
 5349TIP3   OH237461   6.464   1.418   0.562  0.2341  0.0215  0.0503
 5349TIP3    H137462   6.493   1.406   0.653 -1.0741 -2.6468  0.2087
 5349TIP3    H237463   6.448   1.512   0.555 -0.2251  0.2420  2.8002
 5350TIP3   OH237464   3.551   6.755   1.687  0.2650  0.3385  0.5107
 5350TIP3    H137465   3.592   6.814   1.624 -1.2223  0.5205 -0.3377
 5350TIP3    H237466   3.608   6.759   1.764  0.9937  1.7456 -0.0553
 5351TIP3   OH237467   6.498   6.407   3.313  0.3788  0.1652  0.8600
 5351TIP3    H137468   6.410   6.373   3.327  0.4224  0.0954  0.9626
 5351TIP3    H237469   6.494   6.449   3.227  0.5958 -1.0202  0.2351
 5352TIP3   OH237470   4.117   6.333   0.700 -0.6519  1.2698  0.0311
 5352TIP3    H137471   4.186   6.369   0.756  0.4383 -0.7607  0.0806
 5352TIP3    H237472   4.064   6.278   0.757 -0.4258  0.3621 -0.5993
 5353TIP3   OH237473   1.098   1.554   2.237 -0.3726 -0.2906 -0.3705
 5353TIP3    H137474   1.188   1.548   2.207  0.1466 -1.7086  1.3067
 5353TIP3    H237475   1.104   1.568   2.332 -1.7725 -3.9088  0.4471
 5354TIP3   OH237476   2.793   4.247   0.708 -0.1004  0.0261 -0.3129
 5354TIP3    H137477   2.856   4.193   0.757 -0.8846 -1.3812 -0.8028
 5354TIP3    H237478   2.744   4.294   0.776 -0.7518 -1.4163  0.2664
 5355TIP3   OH237479   4.455   0.449   4.841  0.6919 -0.8504 -0.5335
 5355TIP3    H137480   4.482   0.538   4.863  1.9617 -1.6655  1.5524
 5355TIP3    H237481   4.367   0.441   4.879  1.1342 -0.8902  0.5144
 5356TIP3   OH237482   5.789   2.709  11.888 -0.6053  0.6643 -0.0609
 5356TIP3    H137483   5.830   2.707  11.975 -1.0342 -1.5257  0.1599
 5356TIP3    H237484   5.847   2.657  11.833 -1.7520 -0.3296 -0.3704
 5357TIP3   OH237485   5.724   2.829   4.880 -0.1383  0.1996  0.0574
 5357TIP3    H137486   5.808   2.828   4.925 -0.4024  1.4513  0.6176
 5357TIP3    H237487   5.737   2.772   4.804  0.4873 -1.5165  1.3744
 5358TIP3   OH237488   0.454   6.351  14.188  0.2252  0.0031  0.6430
 5358TIP3    H137489   0.453   6.257  14.206  1.2749 -0.0797  0.3675
 5358TIP3    H237490   0.540   6.380  14.220  0.9328  0.3960 -1.4617
 5359TIP3   OH237491   5.044   2.612  15.510  0.1705  0.3502 -0.4060
 5359TIP3    H137492   4.980   2.682  15.517  2.3346  2.3381  1.0809
 5359TIP3    H237493   5.129   2.656  15.509  1.6302 -2.2096 -0.2895
 5360TIP3   OH237494   1.270   0.421   2.862  0.6938 -0.0079 -0.5717
 5360TIP3    H137495   1.319   0.355   2.814  2.8613  1.1132 -0.0138
 5360TIP3    H237496   1.312   0.504   2.839 -1.7605  1.2024 -1.0424
 5361TIP3   OH237497   2.376   4.612  11.893  0.4317  0.6023  0.3268
 5361TIP3    H137498   2.455   4.666  11.884  1.5030 -1.1191 -1.2988
 5361TIP3    H237499   2.392   4.536  11.838 -1.4302 -0.9525  1.7872
 5362TIP3   OH237500   3.923   0.985   5.162 -0.4473  0.3760  0.3591
 5362TIP3    H137501   3.986   0.950   5.100  0.5471  0.7723  1.1283
 5362TIP3    H237502   3.861   1.035   5.108 -0.8055 -0.9898 -0.5292
 5363TIP3   OH237503   3.381   1.796   4.982 -0.2670  0.7099 -0.1100
 5363TIP3    H137504   3.357   1.849   5.058  2.4744  2.1037 -0.1230
 5363TIP3    H237505   3.307   1.735   4.971 -2.2076  2.5881  1.6650
 5364TIP3   OH237506   6.375   4.705  15.654  0.3794 -0.2926 -0.2934
 5364TIP3    H137507   6.352   4.797  15.670 -2.1679 -1.0828  1.2449
 5364TIP3    H237508   6.376   4.665  15.741  0.8445 -1.8582 -0.9836
 5365TIP3   OH237509   5.934   2.927  16.982  0.1541 -0.0861 -0.5105
 5365TIP3    H137510   5.887   2.974  17.050 -1.2815  0.2734 -1.7065
 5365TIP3    H237511   5.944   2.990  16.911  1.3382 -0.5454 -0.7809
 5366TIP3   OH237512   2.648   0.624  16.473 -0.3299 -0.3566  0.5553
 5366TIP3    H137513   2.690   0.541  16.497  0.5113 -0.8289 -2.1405
 5366TIP3    H237514   2.714   0.691  16.491 -0.7858 -0.3161  2.1634
 5367TIP3   OH237515   0.943   3.088   0.618 -0.1367  0.2120  0.3598
 5367TIP3    H137516   0.975   3.172   0.651 -0.4078  0.6503 -0.4734
 5367TIP3    H237517   0.852   3.104   0.594 -0.4662 -0.5667  1.0320
 5368TIP3   OH237518   0.009   6.231   0.510 -0.5521  1.4223  0.4781
 5368TIP3    H137519   0.040   6.144   0.535  0.0649  1.8082  1.0909
 5368TIP3    H237520   0.087   6.277   0.479 -1.1663  1.1997 -1.5701
 5369TIP3   OH237521   2.096   6.785   4.546 -0.1739 -0.0674  0.7645
 5369TIP3    H137522   2.033   6.840   4.592 -1.5653 -0.6680 -0.3649
 5369TIP3    H237523   2.174   6.841   4.536 -1.7834  2.0353 -1.0072
 5370TIP3   OH237524   0.085   1.771  12.751  1.1643  0.3885  0.1626
 5370TIP3    H137525   0.179   1.786  12.754  1.3707 -0.8242  0.1695
 5370TIP3    H237526   0.072   1.708  12.681  0.2801  0.9871 -0.2362
 5371TIP3   OH237527   0.716   0.340   1.667  0.0862  0.7947  0.4566
 5371TIP3    H137528   0.777   0.276   1.702  2.2990  2.2710 -0.4549
 5371TIP3    H237529   0.630   0.299   1.676  1.2143 -1.5264  1.4939
 5372TIP3   OH237530   5.992   1.695  13.130 -0.0312 -0.1509  0.3637
 5372TIP3    H137531   6.042   1.758  13.079 -2.6616  0.5802 -1.5233
 5372TIP3    H237532   6.058   1.642  13.174  2.3097  2.2616 -0.0110
 5373TIP3   OH237533   6.289   6.267  12.713 -0.0939 -0.1181  0.2245
 5373TIP3    H137534   6.223   6.227  12.656 -0.4825 -1.2618  1.4209
 5373TIP3    H237535   6.286   6.360  12.692 -1.9032 -0.1861  0.0567
 5374TIP3   OH237536   5.209   5.934  14.212 -0.3059  0.0276  0.3269
 5374TIP3    H137537   5.236   5.911  14.301 -1.0581 -0.5627  0.4105
 5374TIP3    H237538   5.267   6.007  14.187  1.1113 -0.9467  0.6343
 5375TIP3   OH237539   4.883   0.553   4.323 -0.1270  0.0001  0.2930
 5375TIP3    H137540   4.921   0.550   4.235  2.1333  0.2444  1.1995
 5375TIP3    H237541   4.805   0.497   4.317 -0.6136  0.8224 -2.0892
 5376TIP3   OH237542   2.323   0.757  13.256  0.0955 -0.1308 -0.1137
 5376TIP3    H137543   2.392   0.767  13.191 -0.3149 -1.5210 -0.7918
 5376TIP3    H237544   2.265   0.689  13.221  0.1522 -1.3336  1.9037
 5377TIP3   OH237545   3.941   1.983  15.603  0.0162  0.7583  0.5990
 5377TIP3    H137546   3.913   1.951  15.688 -0.8765 -0.2552 -0.0581
 5377TIP3    H237547   3.861   1.987  15.551  0.6724  0.5250 -0.4601
 5378TIP3   OH237548   2.599   4.961   3.889  0.2302  0.1692 -0.3506
 5378TIP3    H137549   2.597   4.946   3.984  0.8638  2.5527  0.1084
 5378TIP3    H237550   2.508   4.953   3.861  0.2135 -2.0385  0.1365
 5379TIP3   OH237551   3.470   5.688  13.159  0.3753  0.3033  0.6864
 5379TIP3    H137552   3.539   5.743  13.197  0.2474  0.9970 -0.0387
 5379TIP3    H237553   3.516   5.612  13.124  0.5437 -0.1262  1.8062
 5380TIP3   OH237554   4.721   3.253   1.790  0.0688  0.3487  0.5201
 5380TIP3    H137555   4.681   3.335   1.821 -1.2716  0.8317 -2.1678
 5380TIP3    H237556   4.813   3.275   1.775 -0.1019  1.1495  0.6140
 5381TIP3   OH237557   3.039   2.489   5.358 -0.6601 -0.2332 -0.6705
 5381TIP3    H137558   3.111   2.439   5.319 -0.3886  0.6272 -1.3152
 5381TIP3    H237559   2.962   2.463   5.308 -0.2486  1.1675 -2.1382
 5382TIP3   OH237560   6.567   5.514   4.335 -0.0867 -0.0517 -0.1280
 5382TIP3    H137561   6.582   5.503   4.428  0.9069  1.2003 -0.0969
 5382TIP3    H237562   6.630   5.582   4.309 -0.5401 -0.1676 -1.6429
 5383TIP3   OH237563   3.975   1.153   4.735 -0.5220 -0.1549  0.1746
 5383TIP3    H137564   4.007   1.147   4.646 -0.8856 -2.3575  0.1217
 5383TIP3    H237565   4.003   1.071   4.776 -2.3647 -0.2560  1.3610
 5384TIP3   OH237566   3.498   6.111  13.519 -0.0579 -0.5516 -0.4770
 5384TIP3    H137567   3.456   6.122  13.604  1.1530  0.4162  0.0205
 5384TIP3    H237568   3.588   6.142  13.532  0.5119 -1.5437 -1.7885
 5385TIP3   OH237569   0.984   5.245   1.549  0.1410  0.0475 -0.4450
 5385TIP3    H137570   1.068   5.256   1.505  0.6093  0.4919  0.5367
 5385TIP3    H237571   0.991   5.160   1.593  0.3046  0.3503  0.1195
 5386TIP3   OH237572   4.338   5.688   0.661  0.3610  0.2084  0.0623
 5386TIP3    H137573   4.402   5.746   0.619  0.3609 -0.0059 -0.2446
 5386TIP3    H237574   4.386   5.606   0.673  0.1849  0.0880 -0.0510
 5387TIP3   OH237575   2.742   1.732   0.375  0.8514  0.5568  0.6970
 5387TIP3    H137576   2.698   1.671   0.316  1.7581 -0.8263  1.3994
 5387TIP3    H237577   2.683   1.808   0.379 -0.2764 -0.2353 -0.2510
 5388TIP3   OH237578   3.176   3.402  16.308 -0.5304 -0.0625 -0.3537
 5388TIP3    H137579   3.083   3.380  16.310 -0.3034 -1.0041  0.6841
 5388TIP3    H237580   3.180   3.492  16.340 -0.9922 -0.4123  0.7277
 5389TIP3   OH237581   5.679   2.716   0.339 -0.1823 -0.2906  0.5110
 5389TIP3    H137582   5.623   2.649   0.378  1.0862 -1.4412  0.4398
 5389TIP3    H237583   5.618   2.775   0.294 -1.4160 -0.7622  1.5007
 5390TIP3   OH237584   5.359   3.211   2.401  0.1972  0.0777 -0.2106
 5390TIP3    H137585   5.390   3.150   2.333  0.4085  0.0582 -0.0953
 5390TIP3    H237586   5.352   3.158   2.480 -0.2863  0.0425 -0.2699
 5391TIP3   OH237587   4.357   4.174   4.620  0.1466  0.7174  0.1121
 5391TIP3    H137588   4.406   4.256   4.617  1.5076 -0.0565  0.2584
 5391TIP3    H237589   4.302   4.181   4.698 -0.6133  1.9377 -0.5077
 5392TIP3   OH237590   0.528   1.406   4.171 -0.0503 -0.1466  0.3744
 5392TIP3    H137591   0.466   1.428   4.101  1.1322 -0.3576 -0.7918
 5392TIP3    H237592   0.578   1.486   4.185 -1.3243  0.3932  2.1617
 5393TIP3   OH237593   0.932   3.701   3.523 -0.0852  0.1694  0.4698
 5393TIP3    H137594   0.972   3.641   3.586 -1.3302 -0.4353  0.7205
 5393TIP3    H237595   0.876   3.644   3.470  1.1195  0.6089 -1.3810
 5394TIP3   OH237596   3.372   2.291  15.880 -0.2085 -0.0490  0.3556
 5394TIP3    H137597   3.405   2.242  15.956 -0.7773  0.5587  1.0028
 5394TIP3    H237598   3.306   2.234  15.842 -0.6275  0.0617  0.9068
 5395TIP3   OH237599   3.265   3.754   3.051  0.8127 -0.2538  0.7753
 5395TIP3    H137600   3.271   3.678   3.109  2.9509  0.3968  1.4954
 5395TIP3    H237601   3.289   3.828   3.107  0.3831  0.7377 -0.3207
 5396TIP3   OH237602   6.016   2.418   0.028  0.2056 -0.9442 -0.4900
 5396TIP3    H137603   5.948   2.437   0.092  1.3384 -2.9677  1.4688
 5396TIP3    H237604   6.034   2.502  -0.015 -0.2176  0.6617  2.2664
 5397TIP3   OH237605   4.107   3.833   3.726 -0.1575 -0.1092  0.4179
 5397TIP3    H137606   4.041   3.819   3.794 -0.7915 -0.2237 -0.2161
 5397TIP3    H237607   4.058   3.836   3.644  0.5760  0.2340 -0.0232
 5398TIP3   OH237608   2.897   5.649   3.351 -0.1640  0.4937 -0.3605
 5398TIP3    H137609   2.950   5.720   3.314 -0.2673  0.5026 -0.4928
 5398TIP3    H237610   2.955   5.573   3.349 -0.2201  0.4581 -0.6884
 5399TIP3   OH237611   1.487   3.122   0.128 -0.7283  0.1379 -0.0160
 5399TIP3    H137612   1.534   3.085   0.054 -1.0485 -1.0991  0.3705
 5399TIP3    H237613   1.554   3.166   0.180 -0.0428 -1.1967  0.2803
 5400TIP3   OH237614   1.942   1.859   2.281  0.5357  0.3071 -0.4990
 5400TIP3    H137615   1.954   1.931   2.219 -1.5619  0.1200 -1.2067
 5400TIP3    H237616   2.025   1.855   2.329  1.4555  1.8353 -1.8359
 5401TIP3   OH237617   5.471   6.660  11.303 -0.0117 -0.1750 -0.1809
 5401TIP3    H137618   5.457   6.652  11.209 -1.0026  0.1733 -0.0840
 5401TIP3    H237619   5.397   6.714  11.333  1.1691  1.1105  0.5544
 5402TIP3   OH237620   4.649   3.700   5.181  0.5340 -0.3768 -0.0326
 5402TIP3    H137621   4.654   3.629   5.245 -1.5845 -0.7059 -0.1442
 5402TIP3    H237622   4.668   3.659   5.097  0.0566 -0.6728 -0.0024
 5403TIP3   OH237623   5.816   2.272   4.836 -0.3512 -0.1405  0.3631
 5403TIP3    H137624   5.856   2.356   4.859  0.0881 -0.2748  0.0890
 5403TIP3    H237625   5.747   2.295   4.773 -1.4644  0.2153  1.6646
 5404TIP3   OH237626   0.278   2.111  16.411 -0.1839 -0.5181 -0.3188
 5404TIP3    H137627   0.308   2.200  16.427 -0.5740 -0.4264 -0.0787
 5404TIP3    H237628   0.355   2.065  16.378  0.1509 -0.2242  0.0444
 5405TIP3   OH237629   2.299   0.461  11.675  0.0854  0.3582 -0.2657
 5405TIP3    H137630   2.392   0.445  11.693  0.4032  2.7185  0.5297
 5405TIP3    H237631   2.277   0.537  11.728 -2.4034 -0.2708 -0.2476
 5406TIP3   OH237632   4.955   4.337  15.994  0.4605  0.3683 -0.0626
 5406TIP3    H137633   4.961   4.289  15.911  0.1356  0.8959 -0.3951
 5406TIP3    H237634   4.863   4.363  16.000  0.3630 -0.1178  0.7225
 5407TIP3   OH237635   4.704   3.920   2.124  0.0597  0.3362 -0.7042
 5407TIP3    H137636   4.728   3.963   2.041 -0.0484 -0.3179 -1.0796
 5407TIP3    H237637   4.787   3.910   2.171  0.5750 -1.7851 -1.9340
 5408TIP3   OH237638   4.637   0.750   5.986 -0.4923  0.2502 -0.0451
 5408TIP3    H137639   4.580   0.734   6.061 -0.0118 -0.1058  0.2563
 5408TIP3    H237640   4.668   0.662   5.961  0.5618  0.5066  0.3141
 5409TIP3   OH237641   3.794   4.181   1.923  0.4534 -0.3152  0.0173
 5409TIP3    H137642   3.872   4.228   1.894  1.7939 -2.1931  0.3252
 5409TIP3    H237643   3.745   4.163   1.843  0.5719  0.4714 -0.2371
 5410TIP3   OH237644   0.354   2.872  12.682 -0.3306 -0.1972 -0.5055
 5410TIP3    H137645   0.312   2.816  12.747 -0.2207 -0.1661 -0.4084
 5410TIP3    H237646   0.448   2.856  12.693 -0.3255 -0.4276 -0.8652
 5411TIP3   OH237647   5.850   1.785  16.134 -0.1809 -0.9181  0.4452
 5411TIP3    H137648   5.871   1.767  16.042  0.1807 -0.8921  0.5200
 5411TIP3    H237649   5.857   1.880  16.142 -1.3476 -0.8025  0.2316
 5412TIP3   OH237650   5.035   2.278   5.836  0.5095  0.1365  0.5232
 5412TIP3    H137651   5.129   2.296   5.838  0.3523  1.0147  0.3407
 5412TIP3    H237652   5.026   2.194   5.881  1.5555 -0.7734 -0.8934
 5413TIP3   OH237653   6.184   3.151   2.497  0.6439  0.0463  0.4838
 5413TIP3    H137654   6.147   3.102   2.423  0.1216 -1.4076  1.6614
 5413TIP3    H237655   6.145   3.238   2.490 -0.5147 -0.4969 -0.1390
 5414TIP3   OH237656   3.421   1.497  12.963  0.5517 -0.0098 -0.1714
 5414TIP3    H137657   3.371   1.441  12.903  2.6959 -0.7142 -1.4194
 5414TIP3    H237658   3.356   1.557  12.999 -1.5571 -2.1417 -0.1256
 5415TIP3   OH237659   3.915   5.367   1.597  0.8395  0.1243 -0.7341
 5415TIP3    H137660   3.968   5.290   1.575  0.1208 -0.0441 -1.9963
 5415TIP3    H237661   3.831   5.351   1.553 -0.2070  0.4732  1.0423
 5416TIP3   OH237662   3.310   4.465   2.493 -0.1036 -0.2855 -0.6745
 5416TIP3    H137663   3.247   4.393   2.486 -3.0022  1.9137  0.7837
 5416TIP3    H237664   3.278   4.531   2.433  2.4709 -0.0357 -1.9347
 5417TIP3   OH237665   0.238   6.312   4.346  0.5490  0.9517  0.2414
 5417TIP3    H137666   0.175   6.255   4.392  0.8755 -0.6013 -1.1648
 5417TIP3    H237667   0.186   6.388   4.320 -0.3934  0.3904  0.4256
 5418TIP3   OH237668   2.805   2.774  15.526  0.7129  0.2183 -0.0383
 5418TIP3    H137669   2.865   2.714  15.482 -1.8591 -0.2358 -3.3344
 5418TIP3    H237670   2.741   2.716  15.568 -0.4307  0.5804 -1.2136
 5419TIP3   OH237671   0.288   1.691   4.386 -0.0288  0.1527  0.4964
 5419TIP3    H137672   0.273   1.746   4.463  0.8706 -1.3194  1.7936
 5419TIP3    H237673   0.282   1.601   4.419 -0.0778 -0.5403 -1.2658
 5420TIP3   OH237674   6.603   0.385  16.511  0.0810  0.1237  0.2375
 5420TIP3    H137675   6.541   0.362  16.441  0.2698  1.3191 -0.3476
 5420TIP3    H237676   6.660   0.309  16.519 -0.9373 -0.6612  0.2016
 5421TIP3   OH237677   4.228   4.694   5.511 -0.3302  0.2638  0.4162
 5421TIP3    H137678   4.218   4.623   5.448  0.2266  0.5639 -0.0263
 5421TIP3    H237679   4.159   4.679   5.575 -1.0643  0.0798 -0.3880
 5422TIP3   OH237680   5.659   0.952   5.161 -0.1604  0.2622  0.2171
 5422TIP3    H137681   5.755   0.949   5.161 -0.1636  0.0053 -0.0555
 5422TIP3    H237682   5.636   0.962   5.069 -0.4151 -0.7928  0.1459
 5423TIP3   OH237683   6.544   4.864  14.350 -0.0528  0.0984  0.4088
 5423TIP3    H137684   6.487   4.835  14.421 -0.2948  0.2311  0.2700
 5423TIP3    H237685   6.517   4.812  14.274 -0.3588  0.5398  0.2079
 5424TIP3   OH237686   5.854   2.317  15.967 -0.5529 -0.1021  0.5235
 5424TIP3    H137687   5.842   2.227  15.936  0.8151 -1.1023  2.6917
 5424TIP3    H237688   5.949   2.328  15.972 -0.6757  0.4045  3.0444
 5425TIP3   OH237689   5.786   6.015  12.392  0.3340  0.3733  0.3505
 5425TIP3    H137690   5.757   5.971  12.312  0.5931  0.4405  0.2177
 5425TIP3    H237691   5.733   6.095  12.396  0.7003  0.6446 -0.0493
 5426TIP3   OH237692   5.432   2.036   0.898 -0.6799 -0.0911  0.1411
 5426TIP3    H137693   5.438   1.952   0.944  0.8322 -0.7393 -1.1669
 5426TIP3    H237694   5.405   2.098   0.965 -1.3030 -1.5141  1.2604
 5427TIP3   OH237695   1.123   5.286  13.614  0.4146  0.0479  0.5464
 5427TIP3    H137696   1.073   5.206  13.627 -1.5661  1.3127  0.9962
 5427TIP3    H237697   1.169   5.272  13.531  0.1142 -1.5409  0.6240
 5428TIP3   OH237698   0.278   5.001   1.609  0.2672 -0.1820 -0.3584
 5428TIP3    H137699   0.320   5.085   1.624 -0.5664  0.4042 -1.2113
 5428TIP3    H237700   0.235   5.010   1.524 -0.8334 -1.0500  0.0745
 5429TIP3   OH237701   4.854   1.737  13.821  0.1752 -0.9212 -0.5026
 5429TIP3    H137702   4.801   1.660  13.803  0.2970 -0.6629 -2.1313
 5429TIP3    H237703   4.943   1.710  13.799  0.1669 -0.2257 -1.4801
 5430TIP3   OH237704   5.688   0.304   5.797  0.0139  0.3617  0.0133
 5430TIP3    H137705   5.763   0.342   5.843 -0.2764 -0.1737  0.9594
 5430TIP3    H237706   5.711   0.310   5.705  0.1605  2.4125  0.1359
 5431TIP3   OH237707   0.973   3.517  16.587 -0.0138  0.3715  0.6271
 5431TIP3    H137708   0.924   3.561  16.657  0.3964 -2.5529  2.9524
 5431TIP3    H237709   1.065   3.535  16.606  0.0822  2.9057 -1.6679
 5432TIP3   OH237710   5.302   1.175  17.223  0.7912 -0.2183 -0.3170
 5432TIP3    H137711   5.209   1.162  17.204  1.3111 -1.9103 -2.1940
 5432TIP3    H237712   5.344   1.096  17.187  2.9357  0.4541  0.5695
 5433TIP3   OH237713   6.370   2.218   4.650  0.0877 -0.2777  0.0848
 5433TIP3    H137714   6.390   2.310   4.667 -0.3636  0.1343 -1.4974
 5433TIP3    H237715   6.442   2.186   4.596  0.6132 -1.0889  1.2061
 5434TIP3   OH237716   2.638   6.173   4.052  0.2557 -0.0355 -0.0958
 5434TIP3    H137717   2.668   6.084   4.036  0.8229 -0.2079  1.6565
 5434TIP3    H237718   2.547   6.162   4.083 -0.1519  0.1249 -1.2044
 5435TIP3   OH237719   5.451   2.138   5.342  0.1617 -0.3244  0.3227
 5435TIP3    H137720   5.520   2.204   5.342  1.4552 -1.6246 -0.1262
 5435TIP3    H237721   5.415   2.141   5.254 -0.0024  0.0028  0.4006
 5436TIP3   OH237722   5.889   2.054  12.961 -0.0702  0.0667  0.1301
 5436TIP3    H137723   5.969   2.018  12.922 -0.6561  1.0816 -2.1714
 5436TIP3    H237724   5.887   2.145  12.932 -1.3534  0.4580  1.3408
 5437TIP3   OH237725   1.369   6.313  10.597  0.1834  0.9080 -0.5446
 5437TIP3    H137726   1.462   6.292  10.608  0.3106  0.6436 -1.9200
 5437TIP3    H237727   1.368   6.402  10.562 -0.0096  0.5241 -1.5628
 5438TIP3   OH237728   2.328   3.461   1.656  0.4080  0.6554  0.7230
 5438TIP3    H137729   2.337   3.381   1.605 -0.0340  1.0637 -0.0177
 5438TIP3    H237730   2.330   3.531   1.591 -0.4855  1.1698  1.2302
 5439TIP3   OH237731   3.820   6.664  13.458 -0.4469  0.0625  0.3669
 5439TIP3    H137732   3.729   6.686  13.478 -1.0685 -1.8561 -0.0825
 5439TIP3    H237733   3.842   6.593  13.519  1.8175  2.4410  2.5480
 5440TIP3   OH237734   2.443   4.302   2.747  0.4452 -0.0713  0.8678
 5440TIP3    H137735   2.381   4.342   2.808  1.7698 -0.2939  2.4119
 5440TIP3    H237736   2.419   4.339   2.662  0.4120  2.5961  1.9275
 5441TIP3   OH237737   0.096   5.442   5.033 -0.7071  0.2100 -0.0660
 5441TIP3    H137738   0.101   5.486   4.948  0.8079 -1.8783 -1.1492
 5441TIP3    H237739   0.044   5.363   5.017 -0.6814 -0.0542  1.0251
 5442TIP3   OH237740   3.576   4.490  16.248  0.1364 -0.6104  0.2875
 5442TIP3    H137741   3.539   4.556  16.308  0.5211 -1.8562  1.9753
 5442TIP3    H237742   3.651   4.455  16.296  0.9999 -1.0399 -1.3414
 5443TIP3   OH237743   2.887   5.999   4.318  0.0221 -0.4461 -0.3892
 5443TIP3    H137744   2.843   5.918   4.344  0.7814 -0.5592  0.6018
 5443TIP3    H237745   2.838   6.068   4.363  1.4536 -0.6577  1.6207
 5444TIP3   OH237746   1.063   0.894  10.928  0.0251  0.1847 -0.3467
 5444TIP3    H137747   1.069   0.980  10.969 -1.0266 -0.5652  1.5570
 5444TIP3    H237748   1.115   0.837  10.984  1.6979 -0.2770 -2.2460
 5445TIP3   OH237749   1.928   5.194   5.818 -0.0535 -0.1143  0.3781
 5445TIP3    H137750   1.933   5.139   5.740 -0.1600 -1.6335  1.3961
 5445TIP3    H237751   1.834   5.210   5.831 -0.0836 -0.4062  0.5399
 5446TIP3   OH237752   1.422   1.513   4.005 -0.4835  0.8111  0.4858
 5446TIP3    H137753   1.400   1.603   3.981  0.3568  1.0861  0.7147
 5446TIP3    H237754   1.517   1.513   4.014 -0.4052 -0.2748 -0.2156
 5447TIP3   OH237755   5.159   4.754  14.619 -0.0064  0.0929 -0.5863
 5447TIP3    H137756   5.185   4.843  14.644 -0.2243  0.7373 -2.4730
 5447TIP3    H237757   5.231   4.698  14.649 -0.4651  0.6911  1.8001
 5448TIP3   OH237758   0.212   2.599   0.681 -0.4091 -0.0964  0.5628
 5448TIP3    H137759   0.162   2.680   0.690  0.4340  0.2970  2.1176
 5448TIP3    H237760   0.147   2.533   0.658 -0.9974  1.1433 -1.5688
 5449TIP3   OH237761   5.712   4.699   1.979  0.4527  0.0379  0.0647
 5449TIP3    H137762   5.672   4.719   1.894 -0.5647 -0.7801  0.3253
 5449TIP3    H237763   5.806   4.699   1.962  0.2686 -0.1048 -1.0646
 5450TIP3   OH237764   6.720   3.331  15.123  0.5623 -0.4380 -0.1174
 5450TIP3    H137765   6.804   3.363  15.159  0.8077 -0.8021 -0.3658
 5450TIP3    H237766   6.726   3.348  15.029 -0.5161  1.5101  0.1025
 5451TIP3   OH237767   3.661   0.155   4.415 -0.3182 -0.2301  0.4041
 5451TIP3    H137768   3.613   0.185   4.338  0.1834  1.3230  0.6540
 5451TIP3    H237769   3.605   0.089   4.455 -1.7384  0.7379  0.0712
 5452TIP3   OH237770   1.099   4.682   1.915 -0.3377 -1.1847 -0.4309
 5452TIP3    H137771   1.184   4.724   1.917  0.3250 -2.4963  0.5752
 5452TIP3    H237772   1.080   4.669   1.822  0.9480 -1.6359 -0.6387
 5453TIP3   OH237773   3.671   3.395   4.502 -0.4718  0.2602 -0.3909
 5453TIP3    H137774   3.746   3.360   4.455 -0.1931  0.8584 -0.3893
 5453TIP3    H237775   3.685   3.489   4.505 -0.3387  0.2130  1.1366
 5454TIP3   OH237776   6.331   2.345   3.968 -0.0542  0.2123  0.4263
 5454TIP3    H137777   6.361   2.321   4.056 -0.5799 -0.6318  0.3814
 5454TIP3    H237778   6.255   2.290   3.952 -0.2663  0.7129 -0.3686
 5455TIP3   OH237779   1.802   6.676   2.123 -0.3159  0.5240 -0.2817
 5455TIP3    H137780   1.772   6.757   2.163  1.3492  0.4343  1.2764
 5455TIP3    H237781   1.898   6.680   2.130 -0.1126 -0.8521 -1.6399
 5456TIP3   OH237782   5.965   4.643  11.035  0.0578  0.3559  0.1650
 5456TIP3    H137783   6.007   4.688  11.108  0.7951  0.8174 -0.5199
 5456TIP3    H237784   6.002   4.685  10.957  1.3848 -1.9370 -0.5497
 5457TIP3   OH237785   4.612   6.027  14.442 -0.3535 -0.4498 -0.5696
 5457TIP3    H137786   4.687   5.972  14.465  0.0715 -0.4101 -1.8015
 5457TIP3    H237787   4.603   6.087  14.516  0.1691 -1.1402  0.0683
 5458TIP3   OH237788   4.913   2.351   2.922 -0.3810 -0.7351  0.1990
 5458TIP3    H137789   4.989   2.301   2.952  0.5309  0.1588 -0.5691
 5458TIP3    H237790   4.853   2.285   2.887  0.8952 -1.3107 -1.0106
 5459TIP3   OH237791   0.871   0.845  15.605  0.6152 -0.3081 -0.0912
 5459TIP3    H137792   0.889   0.752  15.591  0.9849 -0.1961 -0.3940
 5459TIP3    H237793   0.780   0.848  15.634  0.2876 -0.6753 -1.0605
 5460TIP3   OH237794   4.554   4.048   2.787 -0.2620  0.4284 -0.7004
 5460TIP3    H137795   4.477   4.100   2.765  0.0823  0.6073 -1.5175
 5460TIP3    H237796   4.550   4.037   2.882 -1.5847 -0.0154 -0.7860
 5461TIP3   OH237797   3.531   3.680   2.503 -0.1252  0.4147 -0.1799
 5461TIP3    H137798   3.593   3.613   2.475 -0.5509  0.2045 -0.6301
 5461TIP3    H237799   3.446   3.635   2.506 -0.3308  0.8102 -0.0195
 5462TIP3   OH237800   2.530   5.785  13.020  0.0167  0.3258 -0.0536
 5462TIP3    H137801   2.497   5.824  12.939 -0.8104  1.3081  0.7276
 5462TIP3    H237802   2.625   5.784  13.009 -0.0387  1.1652 -0.7227
 5463TIP3   OH237803   4.812   1.444   1.433 -0.3154 -0.3681  0.2944
 5463TIP3    H137804   4.796   1.488   1.516 -1.4543 -1.4816  0.7067
 5463TIP3    H237805   4.826   1.515   1.370  1.3170  0.4748  1.5506
 5464TIP3   OH237806   4.135   3.908   3.063  0.0455 -0.1393  0.5593
 5464TIP3    H137807   4.043   3.897   3.089 -0.1389  1.8479  0.9464
 5464TIP3    H237808   4.135   3.889   2.969 -0.9196  0.4636  0.4150
 5465TIP3   OH237809   2.675   3.490  16.423  0.2371  0.0772 -0.4055
 5465TIP3    H137810   2.622   3.411  16.417  0.5433 -0.1655  0.0611
 5465TIP3    H237811   2.765   3.460  16.415  0.4492  0.1741  1.3336
 5466TIP3   OH237812   2.739   5.593  15.299  0.1479  0.2392  0.2902
 5466TIP3    H137813   2.806   5.572  15.364 -0.6427 -1.1209  0.6944
 5466TIP3    H237814   2.770   5.674  15.257  1.9432 -0.2665  0.5858
 5467TIP3   OH237815   2.097   0.282  13.056 -0.1474 -0.6707  0.3364
 5467TIP3    H137816   2.044   0.311  13.130  1.3570  3.5326  0.0066
 5467TIP3    H237817   2.044   0.303  12.979  0.1572 -0.6977  0.1174
 5468TIP3   OH237818   3.193   5.731   3.338 -0.5621 -0.2261  0.7620
 5468TIP3    H137819   3.225   5.762   3.253 -1.0888 -1.3389  0.1353
 5468TIP3    H237820   3.263   5.751   3.399 -1.1356  2.8327  0.5602
 5469TIP3   OH237821   4.250   3.526   0.485 -0.0225  0.6876 -0.3607
 5469TIP3    H137822   4.207   3.545   0.569 -0.7657 -0.1157 -0.5376
 5469TIP3    H237823   4.218   3.594   0.426 -0.8385  0.2704 -0.4124
 5470TIP3   OH237824   6.647   0.205  14.197  0.4048 -0.3196  0.1558
 5470TIP3    H137825   6.729   0.159  14.178 -0.0517 -0.6726 -1.0603
 5470TIP3    H237826   6.610   0.224  14.111 -1.3385 -1.1886  0.6711
 5471TIP3   OH237827   0.783   5.659  13.049  0.2070  0.2156  0.1513
 5471TIP3    H137828   0.845   5.586  13.055 -0.4599 -0.3060  1.0136
 5471TIP3    H237829   0.823   5.728  13.103  0.6720  0.3742 -0.3850
 5472TIP3   OH237830   1.984   3.837  16.763 -0.1772 -0.9907  0.4167
 5472TIP3    H137831   1.952   3.810  16.849 -0.6768 -1.0682  0.2117
 5472TIP3    H237832   2.014   3.756  16.722  1.5820 -0.7536  1.1142
 5473TIP3   OH237833   6.637   4.867   0.550  0.2774 -0.0360  0.0105
 5473TIP3    H137834   6.599   4.805   0.611  0.1461  0.2233  0.1920
 5473TIP3    H237835   6.731   4.849   0.554  0.2956  0.1540  0.4816
 5474TIP3   OH237836   3.414   6.473   0.822 -0.2551 -0.6395  0.3545
 5474TIP3    H137837   3.417   6.377   0.829  0.8806 -0.4979  2.5830
 5474TIP3    H237838   3.437   6.504   0.909 -1.7418  1.6942 -0.0087
 5475TIP3   OH237839   4.254   1.623   4.892 -0.4788  0.1836 -0.0239
 5475TIP3    H137840   4.225   1.714   4.880 -0.9850  0.3356  2.0521
 5475TIP3    H237841   4.313   1.626   4.967 -0.1360 -1.1507 -0.2125
 5476TIP3   OH237842   2.213   1.528   1.940 -0.3344 -0.1271 -0.3044
 5476TIP3    H137843   2.178   1.440   1.949 -1.4256  0.2381 -0.7525
 5476TIP3    H237844   2.191   1.553   1.850 -0.2821  0.6966 -0.0935
 5477TIP3   OH237845   3.713   1.498   1.830 -0.0558  0.2507  0.3388
 5477TIP3    H137846   3.780   1.448   1.878 -0.3440  0.0748  0.5590
 5477TIP3    H237847   3.631   1.475   1.873 -0.4903 -0.8972 -1.0249
 5478TIP3   OH237848   1.788   0.807  11.047 -0.2245 -0.6022  0.0171
 5478TIP3    H137849   1.830   0.787  11.130 -0.7061 -2.4354 -0.1331
 5478TIP3    H237850   1.705   0.848  11.071 -0.2527 -0.9050  0.4407
 5479TIP3   OH237851   2.222   5.519  10.740  0.1288  0.5091  0.0602
 5479TIP3    H137852   2.223   5.437  10.689  0.0224  0.2817  0.4216
 5479TIP3    H237853   2.135   5.556  10.723  0.1329  0.4876 -0.0106
 5480TIP3   OH237854   3.049   2.072  16.474 -0.3353 -0.1186 -0.5527
 5480TIP3    H137855   3.105   2.150  16.478 -0.2241 -0.2292  0.3456
 5480TIP3    H237856   3.025   2.055  16.565 -2.2048  0.1745 -0.9432
 5481TIP3   OH237857   5.095   1.299   6.217  0.0727  0.2221  0.3339
 5481TIP3    H137858   5.111   1.218   6.169 -1.7670 -0.5581  0.9762
 5481TIP3    H237859   5.155   1.363   6.178  1.3750 -1.3692 -0.3455
 5482TIP3   OH237860   4.045   1.500  15.917  0.0150  0.2088 -0.1150
 5482TIP3    H137861   4.082   1.445  15.986 -0.2211 -1.0151 -0.9381
 5482TIP3    H237862   4.099   1.580  15.919  0.9213 -0.3993  0.5360
 5483TIP3   OH237863   2.953   0.222  12.265 -0.0223 -0.6267  0.0778
 5483TIP3    H137864   3.044   0.214  12.235  0.4191  2.5788  0.2273
 5483TIP3    H237865   2.959   0.266  12.350 -1.7198 -1.0145  0.4484
 5484TIP3   OH237866   3.885   0.537  13.031  0.4294  0.2625 -0.3838
 5484TIP3    H137867   3.839   0.510  12.952  0.4872 -0.0649 -0.3076
 5484TIP3    H237868   3.891   0.633  13.024 -0.6960  0.3664 -0.1581
 5485TIP3   OH237869   6.549   1.481   4.238 -0.3159 -0.3763  0.3880
 5485TIP3    H137870   6.473   1.540   4.242 -0.9422 -1.1507  0.1222
 5485TIP3    H237871   6.580   1.476   4.328  1.0089  1.9458  0.1387
 5486TIP3   OH237872   2.320   1.875   6.692 -0.0900  0.3735 -0.1149
 5486TIP3    H137873   2.241   1.861   6.744  0.2920 -0.8351  0.1606
 5486TIP3    H237874   2.309   1.818   6.615  1.0274 -0.7244  0.5081
 5487TIP3   OH237875   1.869   5.090  11.427  0.3603  0.1881  0.3672
 5487TIP3    H137876   1.934   5.044  11.374 -0.6887 -1.3273  0.3196
 5487TIP3    H237877   1.811   5.021  11.458 -0.8355  1.4142  0.9520
 5488TIP3   OH237878   0.426   6.016   1.746  0.0566  0.1953  0.5033
 5488TIP3    H137879   0.466   6.101   1.765 -0.4312  0.6152 -0.2946
 5488TIP3    H237880   0.492   5.970   1.695 -0.6207  1.0953 -1.2856
 5489TIP3   OH237881   6.340   4.586   0.214  0.2049 -0.2187  0.2392
 5489TIP3    H137882   6.336   4.576   0.119 -0.5574  0.5101  0.1812
 5489TIP3    H237883   6.323   4.498   0.248  0.5060 -0.4836 -0.2996
 5490TIP3   OH237884   4.956   3.068  12.004 -0.9130  0.1011 -0.2261
 5490TIP3    H137885   5.003   3.131  11.948 -1.9298  0.3280 -0.8428
 5490TIP3    H237886   4.867   3.104  12.011 -0.8738 -0.0234  1.3848
 5491TIP3   OH237887   6.052   0.549   5.182 -0.9074  0.5391 -0.1638
 5491TIP3    H137888   6.027   0.514   5.267 -2.1451  2.1398  0.1783
 5491TIP3    H237889   6.092   0.634   5.201  2.5239 -0.7082 -0.9240
 5492TIP3   OH237890   6.241   6.357   4.194 -0.2360  0.2442 -0.1427
 5492TIP3    H137891   6.324   6.364   4.242  0.7107 -1.4415 -1.4407
 5492TIP3    H237892   6.185   6.306   4.251  0.7947 -1.5279 -0.6379
 5493TIP3   OH237893   2.976   4.905  11.469  0.1863 -0.1175 -0.2030
 5493TIP3    H137894   3.063   4.875  11.444  0.0193 -0.9627  0.1908
 5493TIP3    H237895   2.926   4.905  11.387  1.5123  4.0939 -1.2443
 5494TIP3   OH237896   2.545   0.909   1.010  0.5603  0.0354 -0.2326
 5494TIP3    H137897   2.459   0.923   0.970  0.2071  2.2954  1.1418
 5494TIP3    H237898   2.599   0.981   0.975  0.6384  1.2036  2.0887
 5495TIP3   OH237899   6.581   4.567  15.503  0.3489  0.1702  0.2525
 5495TIP3    H137900   6.622   4.652  15.488 -1.2809  0.9291 -0.0870
 5495TIP3    H237901   6.530   4.579  15.584 -1.5726  0.2169 -0.9030
 5496TIP3   OH237902   6.030   4.140  16.400  0.3100  0.0476  0.8146
 5496TIP3    H137903   6.119   4.108  16.418  0.8874  1.2803  0.2033
 5496TIP3    H237904   6.025   4.224  16.445 -1.4626 -1.1082  3.0728
 5497TIP3   OH237905   1.523   6.515  12.033 -0.2407  0.4008 -0.2300
 5497TIP3    H137906   1.543   6.581  11.967 -0.9967  2.1925  1.2374
 5497TIP3    H237907   1.532   6.431  11.987 -2.8106  1.5631 -3.2190
 5498TIP3   OH237908   2.190   3.936   2.059  0.1206  0.0618  0.1300
 5498TIP3    H137909   2.101   3.918   2.090 -0.0896  1.4680  0.4319
 5498TIP3    H237910   2.190   4.031   2.043  0.8097 -0.2796 -2.2828
 5499TIP3   OH237911   0.545   6.523  13.811 -0.2599 -0.0175 -0.3307
 5499TIP3    H137912   0.589   6.586  13.868 -1.7325  1.8882 -1.2035
 5499TIP3    H237913   0.615   6.489  13.755  0.8287 -0.3509  1.1570
 5500TIP3   OH237914   5.980   0.792  16.604  0.1263 -0.0282 -0.1216
 5500TIP3    H137915   5.998   0.876  16.647 -0.4186  0.5748 -1.0247
 5500TIP3    H237916   6.057   0.777  16.549  1.3271 -1.3379  1.7895
 5501TIP3   OH237917   6.434   6.091   1.599  0.2773  0.1436  0.2084
 5501TIP3    H137918   6.482   6.030   1.544 -0.4792 -1.0294  0.8194
 5501TIP3    H237919   6.361   6.122   1.545 -0.4894 -1.0364  0.5484
 5502TIP3   OH237920   5.139   5.812  16.018 -0.0754  0.1761  0.2152
 5502TIP3    H137921   5.204   5.845  15.957 -0.2966 -1.7451 -1.1347
 5502TIP3    H237922   5.057   5.855  15.993 -0.2742 -0.9884 -1.2432
 5503TIP3   OH237923   3.844   2.063  13.903 -0.2317 -0.1770  0.0292
 5503TIP3    H137924   3.770   2.121  13.917  1.0299  1.3442  0.6570
 5503TIP3    H237925   3.904   2.112  13.847  0.3459 -1.3522 -0.4321
 5504TIP3   OH237926   3.772   0.497  14.836 -0.0022 -0.0635 -0.1571
 5504TIP3    H137927   3.808   0.445  14.765 -0.1084  0.7384 -0.8057
 5504TIP3    H237928   3.847   0.546  14.870 -0.1681  0.4192 -0.4765
 5505TIP3   OH237929   5.712   6.468  15.666  0.6953 -0.3369 -0.3503
 5505TIP3    H137930   5.803   6.499  15.661 -0.4093  3.3892 -0.5651
 5505TIP3    H237931   5.661   6.548  15.679 -2.6132 -2.2540 -0.6101
 5506TIP3   OH237932   4.784   1.012   0.128 -0.2604 -0.0227 -0.5702
 5506TIP3    H137933   4.744   0.930   0.097  0.8177 -0.7622 -0.0814
 5506TIP3    H237934   4.847   0.984   0.194  1.5916  1.0241 -1.8277
 5507TIP3   OH237935   3.995   5.785   3.574  0.0133  0.2233  1.0098
 5507TIP3    H137936   3.907   5.807   3.603 -0.2370 -0.3572  0.6873
 5507TIP3    H237937   4.047   5.785   3.655  0.4920  3.9669  0.9110
 5508TIP3   OH237938   3.708   3.649   4.125 -0.0305 -0.2040  0.1361
 5508TIP3    H137939   3.769   3.630   4.054  0.9931 -1.3403  1.2596
 5508TIP3    H237940   3.660   3.726   4.096  2.1629  0.9287 -0.6734
 5509TIP3   OH237941   3.534   4.177  12.691  0.0456  0.5513  0.1896
 5509TIP3    H137942   3.598   4.207  12.627  0.0590  0.7316  0.2879
 5509TIP3    H237943   3.585   4.147  12.766  0.1433 -1.5366 -0.6407
 5510TIP3   OH237944   2.005   1.913  16.718 -0.6116  0.3295 -0.5980
 5510TIP3    H137945   2.002   1.854  16.794 -1.1330  1.5465  0.3623
 5510TIP3    H237946   2.072   1.875  16.661  0.9787  0.2301  1.2293
 5511TIP3   OH237947   4.592   4.183   4.040  0.1638 -0.2703 -0.5764
 5511TIP3    H137948   4.643   4.142   3.970 -0.8320 -2.4821 -0.0797
 5511TIP3    H237949   4.502   4.181   4.008 -0.1208 -0.0496  0.2010
 5512TIP3   OH237950   5.019   2.399   0.970  0.3394  0.2660  0.6117
 5512TIP3    H137951   4.985   2.408   1.059  1.4808  0.4774  1.0437
 5512TIP3    H237952   5.021   2.489   0.936 -0.5465  0.1319  0.1945
 5513TIP3   OH237953   3.949   2.831   5.123 -0.7277  0.4037  0.7898
 5513TIP3    H137954   3.873   2.773   5.116  1.0057 -2.0302  0.6370
 5513TIP3    H237955   3.976   2.824   5.214 -0.2947  0.6725  0.6819
 5514TIP3   OH237956   1.190   3.659  15.518 -0.1723 -0.4743  0.0715
 5514TIP3    H137957   1.232   3.573  15.521 -1.6019 -1.1945 -0.1055
 5514TIP3    H237958   1.096   3.641  15.523 -0.4712  1.2258  3.0801
 5515TIP3   OH237959   0.878   5.367  15.745 -0.2584  0.1476  0.1209
 5515TIP3    H137960   0.825   5.357  15.824  1.2538 -1.7491  0.9923
 5515TIP3    H237961   0.949   5.303  15.756  1.2014  1.3313 -1.7937
 5516TIP3   OH237962   2.969   3.583   5.831  0.4736  0.0341  0.0569
 5516TIP3    H137963   3.054   3.538   5.833 -0.0285 -0.9128  0.6296
 5516TIP3    H237964   2.992   3.676   5.830  1.5233 -0.2095 -0.5410
 5517TIP3   OH237965   5.371   6.529   6.050  0.1458 -0.0006 -0.3681
 5517TIP3    H137966   5.458   6.569   6.050 -0.0759  0.4937 -0.1902
 5517TIP3    H237967   5.334   6.552   6.135  1.0782 -3.0003  0.9713
 5518TIP3   OH237968   3.089   3.677   0.181  0.2342  0.8006  0.4463
 5518TIP3    H137969   3.182   3.661   0.193  0.4954  1.7026 -0.2828
 5518TIP3    H237970   3.051   3.662   0.268  1.1853  1.3280  0.9664
 5519TIP3   OH237971   1.475   5.306  11.523 -0.5840  0.4662 -0.0901
 5519TIP3    H137972   1.416   5.323  11.449 -0.8087  0.7848  0.1613
 5519TIP3    H237973   1.425   5.248  11.580 -0.3568  0.1058 -0.2514
 5520TIP3   OH237974   2.774   6.789   1.223 -0.1131 -0.0550  0.0780
 5520TIP3    H137975   2.689   6.806   1.263  0.3832 -0.3591  1.2960
 5520TIP3    H237976   2.838   6.821   1.286  0.7140 -1.3999 -0.0336
 5521TIP3   OH237977   5.249   1.538   2.426 -0.3246 -0.3765  0.1382
 5521TIP3    H137978   5.264   1.444   2.426 -2.2984 -0.7438  1.5377
 5521TIP3    H237979   5.222   1.558   2.516 -1.7378  1.2038 -0.5860
 5522TIP3   OH237980   2.280   3.142   4.418 -0.0309  0.2441  0.4686
 5522TIP3    H137981   2.301   3.124   4.509 -0.5374  3.0531  1.2408
 5522TIP3    H237982   2.361   3.176   4.381  0.0120 -0.3335  0.0185
 5523TIP3   OH237983   3.051   6.699   2.323 -0.4283  0.6784  0.1606
 5523TIP3    H137984   3.098   6.710   2.241 -1.4404  0.7273 -0.4292
 5523TIP3    H237985   2.990   6.627   2.307 -0.4441  0.4939  0.9650
 5524TIP3   OH237986   1.670   4.502   0.659 -0.5622 -0.5658 -0.4152
 5524TIP3    H137987   1.675   4.508   0.755 -0.3931 -0.4397 -0.4311
 5524TIP3    H237988   1.583   4.537   0.638 -0.7228 -0.8816 -0.2861
 5525TIP3   OH237989   2.333   3.388   0.202 -0.1794 -0.3959  0.3970
 5525TIP3    H137990   2.296   3.405   0.115  2.4007  0.0805 -0.7074
 5525TIP3    H237991   2.389   3.311   0.188  1.1690  0.3946  1.3468
 5526TIP3   OH237992   0.773   0.603   3.439 -0.2097 -0.2871 -0.5465
 5526TIP3    H137993   0.825   0.681   3.417 -0.1444 -0.2951 -0.4218
 5526TIP3    H237994   0.782   0.595   3.534  0.1650 -0.7224 -0.6182
 5527TIP3   OH237995   3.485   0.033   4.658  0.4985  0.4223  0.5226
 5527TIP3    H137996   3.502   0.049   4.750  0.2259  0.4142  0.5751
 5527TIP3    H237997   3.482  -0.063   4.650 -2.6584  0.3542  1.1227
 5528TIP3   OH237998   0.879   2.078   5.884  0.0964  0.7248  0.1671
 5528TIP3    H137999   0.841   2.163   5.861 -2.7445 -0.2668  0.7868
 5528TIP3    H238000   0.881   2.030   5.800  0.7444  1.0425 -0.0035
 5529TIP3   OH238001   4.112   1.601   1.618  0.0265  0.0622  0.2976
 5529TIP3    H138002   4.080   1.654   1.691  0.9229  1.3421 -0.2015
 5529TIP3    H238003   4.206   1.615   1.618  0.3868 -2.0349  0.4937
 5530TIP3   OH238004   6.043   0.595  16.878 -0.2815  0.2232  0.5243
 5530TIP3    H138005   6.011   0.516  16.920  0.0430 -0.9291 -1.2714
 5530TIP3    H238006   5.970   0.624  16.823  0.0466  0.4270  0.1874
 5531TIP3   OH238007   5.881   5.220   2.876 -0.2263  0.6928 -0.8037
 5531TIP3    H138008   5.933   5.140   2.869  0.5704  1.2888 -2.3032
 5531TIP3    H238009   5.806   5.196   2.930  2.2031  0.1453  2.6164
 5532TIP3   OH238010   1.655   4.329  16.439  0.0215 -0.2147  0.0542
 5532TIP3    H138011   1.632   4.397  16.377 -0.9768  0.0417  0.6910
 5532TIP3    H238012   1.593   4.258  16.422 -1.0794  0.3497  1.5574
 5533TIP3   OH238013   2.068   6.605  15.567  0.0469  0.7905 -0.3981
 5533TIP3    H138014   2.040   6.542  15.501 -0.1292 -0.4919  0.8601
 5533TIP3    H238015   1.990   6.624  15.618  0.8807 -1.1054  1.7353
 5534TIP3   OH238016   6.338   2.022  15.423  0.0679  0.5822  0.5531
 5534TIP3    H138017   6.298   2.041  15.508 -1.1565  0.0509  0.1261
 5534TIP3    H238018   6.302   1.937  15.398  0.5203  0.6652 -0.4272
 5535TIP3   OH238019   0.218   4.208   1.980  0.3936  0.0824 -0.0903
 5535TIP3    H138020   0.161   4.203   1.903  0.6606 -1.5535 -0.2264
 5535TIP3    H238021   0.202   4.295   2.017 -0.5318  0.4911 -1.3767
 5536TIP3   OH238022   6.717   1.517  12.279 -0.3788  0.0725  1.0170
 5536TIP3    H138023   6.641   1.551  12.327 -1.4302 -1.4989  0.5633
 5536TIP3    H238024   6.688   1.432  12.246  1.7040 -0.7119  1.0634
 5537TIP3   OH238025   6.497   5.023   2.571  0.2055 -0.1982 -0.2468
 5537TIP3    H138026   6.445   5.074   2.510 -1.1043 -1.6358 -0.4042
 5537TIP3    H238027   6.510   5.080   2.647 -0.7416  0.5424 -0.6338
 5538TIP3   OH238028   0.937   2.935  15.955 -0.1315  0.1023 -0.1492
 5538TIP3    H138029   0.971   2.943  15.866  1.7601 -1.1541  0.4011
 5538TIP3    H238030   0.960   2.846  15.982  0.3912  0.8099  1.9667
 5539TIP3   OH238031   3.051   1.605  14.897  0.0240  0.1477 -0.4800
 5539TIP3    H138032   3.113   1.545  14.856  0.4474  0.6062 -0.5212
 5539TIP3    H238033   2.986   1.622  14.829  0.6534  0.8047 -0.9319
 5540TIP3   OH238034   4.578   1.006   2.681 -0.3246  0.0201  0.1367
 5540TIP3    H138035   4.593   1.099   2.662 -1.0042  0.1329  0.1290
 5540TIP3    H238036   4.665   0.970   2.698 -0.1647  0.8889  1.2233
 5541TIP3   OH238037   3.031   2.939   5.582  0.5171  0.1919  0.0121
 5541TIP3    H138038   3.125   2.928   5.598  0.0368 -1.2377  2.2938
 5541TIP3    H238039   3.003   2.857   5.542 -0.0555 -0.1285  1.0347
 5542TIP3   OH238040   3.216   0.098   0.665  0.3620 -0.0423  0.1049
 5542TIP3    H138041   3.191   0.053   0.585 -1.1144  0.1741  0.4283
 5542TIP3    H238042   3.200   0.035   0.735 -0.7416  0.6156  0.4594
 5543TIP3   OH238043   0.008   0.308   4.167 -0.2956  0.0063 -0.3303
 5543TIP3    H138044   0.094   0.302   4.207 -1.1631 -1.6290  1.4659
 5543TIP3    H238045   0.017   0.374   4.099  2.0338  0.7502  0.6263
 5544TIP3   OH238046   4.415   2.919   1.782 -0.0349  0.5696  0.1143
 5544TIP3    H138047   4.449   2.884   1.699 -0.7990  0.7353 -0.2710
 5544TIP3    H238048   4.381   2.842   1.828 -1.9215  0.7971 -0.8296
 5545TIP3   OH238049   0.309   3.465   4.354 -0.0867 -0.5560 -0.1050
 5545TIP3    H138050   0.308   3.506   4.268 -0.2055 -1.0378 -0.3355
 5545TIP3    H238051   0.259   3.384   4.343 -0.0467 -0.6541  0.3981
 5546TIP3   OH238052   5.283   5.558  14.900 -0.3617  0.6427 -0.6901
 5546TIP3    H138053   5.375   5.537  14.914 -0.5415  0.9601  1.1410
 5546TIP3    H238054   5.261   5.513  14.818  0.9039 -1.0410 -0.1581
 5547TIP3   OH238055   1.483   0.146   5.560  0.1634 -0.1872 -0.2252
 5547TIP3    H138056   1.389   0.128   5.565 -0.0721  0.8911 -0.6070
 5547TIP3    H238057   1.494   0.231   5.602  0.6273  0.7531 -2.1179
 5548TIP3   OH238058   2.605   5.627   4.555  0.0932 -0.2457 -0.5380
 5548TIP3    H138059   2.627   5.595   4.468 -1.8809 -0.1883 -1.0866
 5548TIP3    H238060   2.687   5.618   4.605  1.0185 -1.0814 -2.1374
 5549TIP3   OH238061   5.766   1.810   5.323  0.2613  0.0789  0.4581
 5549TIP3    H138062   5.759   1.756   5.245  0.2819 -1.4677  1.4719
 5549TIP3    H238063   5.808   1.890   5.293  0.5789 -0.6140 -1.0507
 5550TIP3   OH238064   0.062   2.072  11.467  0.4326  0.1674  0.8274
 5550TIP3    H138065   0.144   2.106  11.429  0.4571  0.5593  1.2165
 5550TIP3    H238066   0.088   1.991  11.510  0.1369 -1.1205 -1.2473
 5551TIP3   OH238067   5.897   0.844   4.503 -0.0801  0.0596 -0.3211
 5551TIP3    H138068   5.845   0.892   4.438  0.3043  2.1858  0.8480
 5551TIP3    H238069   5.849   0.854   4.585 -0.4210 -2.3551 -0.1397
 5552TIP3   OH238070   6.355   4.411  11.131 -0.5560  0.2402 -0.5258
 5552TIP3    H138071   6.392   4.326  11.107 -1.0214  0.0601 -0.6343
 5552TIP3    H238072   6.267   4.409  11.093 -1.0401  0.2549  0.5540
 5553TIP3   OH238073   6.750   1.904   0.364  0.0326 -0.0991 -0.0380
 5553TIP3    H138074   6.769   1.887   0.272 -0.1114  0.1775 -0.1194
 5553TIP3    H238075   6.774   1.823   0.409 -1.0306 -0.6730 -0.4735
 5554TIP3   OH238076   0.664   1.772   1.807 -0.5941 -0.1968 -0.2858
 5554TIP3    H138077   0.735   1.752   1.868 -1.4612 -1.7303  0.2919
 5554TIP3    H238078   0.590   1.720   1.839 -1.4144 -0.1368 -1.9774
 5555TIP3   OH238079   0.988   3.667  15.107  0.0730 -0.6031 -0.2526
 5555TIP3    H138080   1.028   3.636  15.188  0.1496 -1.7242 -0.6962
 5555TIP3    H238081   0.975   3.761  15.120 -0.6487 -0.8955  1.3682
 5556TIP3   OH238082   6.369   6.092  15.245 -0.1980  0.4552 -0.1173
 5556TIP3    H138083   6.446   6.041  15.221 -0.8219  0.3468 -2.1250
 5556TIP3    H238084   6.384   6.118  15.336  2.0327  0.1642 -0.3448
 5557TIP3   OH238085   1.451   6.176  14.079 -0.3128  0.0464 -0.6320
 5557TIP3    H138086   1.394   6.110  14.039 -0.1096 -1.0657  0.8158
 5557TIP3    H238087   1.392   6.231  14.130 -0.3874  0.5184 -1.2188
 5558TIP3   OH238088   2.933   6.696  12.938  0.1865  0.2513  0.3856
 5558TIP3    H138089   2.841   6.677  12.922  0.1893 -1.4240  2.1296
 5558TIP3    H238090   2.933   6.753  13.015  0.6057  0.5660  0.1581
 5559TIP3   OH238091   0.209   3.000  13.228 -0.1345  0.0392  0.1957
 5559TIP3    H138092   0.150   3.038  13.293 -0.7719  1.2378 -1.0341
 5559TIP3    H238093   0.193   3.051  13.149  1.6697 -0.4415 -0.5195
 5560TIP3   OH238094   0.276   1.875  14.613 -0.5499 -0.0363 -0.4530
 5560TIP3    H138095   0.252   1.808  14.549 -3.1064  0.8293 -0.4866
 5560TIP3    H238096   0.270   1.958  14.565 -0.3163  0.4570  0.3480
 5561TIP3   OH238097   5.099   5.517   2.962 -0.1157 -0.4838  0.4948
 5561TIP3    H138098   5.172   5.456   2.950 -0.0393 -0.1917 -0.6228
 5561TIP3    H238099   5.046   5.476   3.031  1.5877 -0.2203  2.0711
 5562TIP3   OH238100   0.971   6.492   5.132 -0.3555  0.1860  0.4481
 5562TIP3    H138101   0.890   6.533   5.161 -0.7763  0.4582 -1.0265
 5562TIP3    H238102   1.004   6.549   5.063  0.6047 -0.4136  0.3904
 5563TIP3   OH238103   0.072   1.597  14.184 -0.5953 -0.4002 -0.0678
 5563TIP3    H138104   0.034   1.558  14.263 -1.8993  0.6263 -0.1563
 5563TIP3    H238105   0.126   1.669  14.215  0.3400 -1.0961 -0.0245
 5564TIP3   OH238106   2.112   3.431  12.054 -0.4128 -0.2238  0.4915
 5564TIP3    H138107   2.025   3.470  12.053 -0.7465 -0.8940 -2.2039
 5564TIP3    H238108   2.173   3.505  12.048 -0.8083  0.1603  1.0947
 5565TIP3   OH238109   3.834   5.678   2.639 -0.4123  0.2187 -0.1527
 5565TIP3    H138110   3.867   5.648   2.724 -1.9247 -0.3813  0.2439
 5565TIP3    H238111   3.816   5.598   2.590  0.6898  0.5618 -1.1688
 5566TIP3   OH238112   6.550   5.393  14.439  0.2239  0.3162  0.4575
 5566TIP3    H138113   6.544   5.306  14.401 -1.1056  0.7047 -0.3027
 5566TIP3    H238114   6.620   5.436  14.392 -0.0893  0.1294 -0.1878
 5567TIP3   OH238115   3.196   5.603  11.352 -0.3173 -0.5674  0.3281
 5567TIP3    H138116   3.221   5.665  11.284  0.0204 -0.4508  0.5566
 5567TIP3    H238117   3.132   5.651  11.405  1.2212  0.2342  1.5438
 5568TIP3   OH238118   2.172   5.098  11.518 -0.2740  0.3534 -0.3515
 5568TIP3    H138119   2.094   5.058  11.481  0.3249 -1.4800  0.2367
 5568TIP3    H238120   2.223   5.024  11.552  1.7263  1.4858 -0.7292
 5569TIP3   OH238121   1.665   6.059   4.181  0.5138  0.4148 -0.6548
 5569TIP3    H138122   1.753   6.095   4.177  0.1093  1.3525 -2.2864
 5569TIP3    H238123   1.612   6.120   4.130 -0.5237 -1.6225 -2.2019
 5570TIP3   OH238124   5.300   4.744   1.774 -1.1776  0.1320 -0.0543
 5570TIP3    H138125   5.331   4.736   1.865 -0.1055  3.7670  0.0619
 5570TIP3    H238126   5.322   4.659   1.734  0.6828 -0.6757  2.4086
 5571TIP3   OH238127   3.869   1.796  13.905  0.3363 -0.0033 -0.4903
 5571TIP3    H138128   3.901   1.773  13.993  0.7801  1.8953 -0.1080
 5571TIP3    H238129   3.876   1.891  13.902 -0.9124  0.0627 -2.1374
 5572TIP3   OH238130   6.513   1.468   1.981 -0.1994  0.1344 -0.3766
 5572TIP3    H138131   6.584   1.485   2.043  1.8677  1.2400 -2.8594
 5572TIP3    H238132   6.448   1.536   1.999 -1.0836 -1.2818  2.3728
 5573TIP3   OH238133   0.998   1.450  16.351 -0.4538  0.1525  0.4027
 5573TIP3    H138134   0.903   1.443  16.340 -0.3822  0.6781 -0.6728
 5573TIP3    H238135   1.008   1.502  16.431 -1.0368 -1.2000  1.3975
 5574TIP3   OH238136   1.508   2.713  12.784 -0.0940  0.1198  0.2942
 5574TIP3    H138137   1.581   2.770  12.807 -0.6098  1.1012 -0.4363
 5574TIP3    H238138   1.471   2.686  12.868  2.1465 -1.8476  0.7610
 5575TIP3   OH238139   1.184   4.789  16.112 -0.8319  0.0250  0.5592
 5575TIP3    H138140   1.228   4.739  16.043  0.4436 -0.2461  1.5247
 5575TIP3    H238141   1.156   4.870  16.069 -0.4756 -0.3378 -0.3866
 5576TIP3   OH238142   0.435   6.331   5.507 -0.1928 -0.2144  0.5909
 5576TIP3    H138143   0.502   6.264   5.520 -0.7166 -1.0278 -0.6942
 5576TIP3    H238144   0.355   6.291   5.541 -0.4658 -0.1632  0.0155
 5577TIP3   OH238145   5.593   1.417   1.057  0.1397 -0.0032  0.3912
 5577TIP3    H138146   5.577   1.322   1.061  0.2765 -0.0061  0.9189
 5577TIP3    H238147   5.506   1.456   1.058  0.0961 -0.0867  1.3972
 5578TIP3   OH238148   0.218   6.517   5.127 -0.2022  0.6064 -0.3696
 5578TIP3    H138149   0.197   6.428   5.155  1.9958  0.5020  1.2174
 5578TIP3    H238150   0.133   6.556   5.107 -1.3981 -1.2806  0.6747
 5579TIP3   OH238151   5.644   6.206  17.073 -0.0097 -0.6590  0.6127
 5579TIP3    H138152   5.558   6.172  17.097  1.2903 -4.4546  0.6156
 5579TIP3    H238153   5.654   6.182  16.981 -0.0542  2.5633 -0.3524
 5580TIP3   OH238154   1.776   3.187   1.476 -0.1881 -0.0932 -0.2197
 5580TIP3    H138155   1.750   3.219   1.563  0.8434  0.3854 -0.0749
 5580TIP3    H238156   1.759   3.093   1.480 -1.1172  0.0731  0.1386
 5581TIP3   OH238157   5.447   6.347   4.885 -0.3308 -0.1019 -0.5650
 5581TIP3    H138158   5.517   6.284   4.871 -0.3576 -0.1559 -0.4585
 5581TIP3    H238159   5.407   6.321   4.968  0.9708  1.2751  0.5282
 5582TIP3   OH238160   2.375   0.305   1.831  0.9304  0.2722 -0.0332
 5582TIP3    H138161   2.348   0.388   1.792 -3.3641 -0.8842 -0.0752
 5582TIP3    H238162   2.359   0.317   1.925  1.8748 -0.0085  0.1684
 5583TIP3   OH238163   1.526   0.458  13.655  0.3542 -0.0851  0.5676
 5583TIP3    H138164   1.537   0.447  13.560  0.8886 -1.4260  0.7555
 5583TIP3    H238165   1.471   0.536  13.664  0.1146 -0.0588 -0.8478
 5584TIP3   OH238166   4.828   0.638  14.012 -0.0696  0.0441  0.1840
 5584TIP3    H138167   4.786   0.688  13.942 -0.8042 -0.8909 -0.0654
 5584TIP3    H238168   4.918   0.623  13.980 -0.5551 -0.8504 -0.8337
 5585TIP3   OH238169   6.141   1.263   2.539 -0.9627  0.2462 -0.1911
 5585TIP3    H138170   6.114   1.328   2.474  0.5423  0.1545 -0.9719
 5585TIP3    H238171   6.148   1.181   2.489  2.2352  0.5712 -0.5061
 5586TIP3   OH238172   5.613   5.367   4.352  0.0116  0.4810  0.1908
 5586TIP3    H138173   5.563   5.374   4.271  1.6337  0.3834 -0.8572
 5586TIP3    H238174   5.694   5.416   4.335  0.0580  1.1365  2.0373
 5587TIP3   OH238175   1.658   5.633  16.452  0.0496 -0.2995  0.0298
 5587TIP3    H138176   1.639   5.631  16.545 -0.2638  0.7286 -0.0085
 5587TIP3    H238177   1.688   5.722  16.435  0.4318 -0.5729 -0.7871
 5588TIP3   OH238178   2.652   0.360  14.612  0.6022  0.3723  0.2735
 5588TIP3    H138179   2.656   0.281  14.558  0.5651 -0.9879  2.1602
 5588TIP3    H238180   2.743   0.386  14.623  0.7270 -0.2241  0.7438
 5589TIP3   OH238181   1.040   5.934   0.498  0.0762  0.4983 -0.1465
 5589TIP3    H138182   1.027   5.861   0.558  1.6504  0.0960 -0.2355
 5589TIP3    H238183   1.062   5.893   0.414  1.0184  1.0536 -0.1866
 5590TIP3   OH238184   0.939   1.436  16.705 -0.0680  0.3185 -0.1413
 5590TIP3    H138185   0.925   1.358  16.651 -0.0727  0.0128  0.2918
 5590TIP3    H238186   0.862   1.439  16.763  0.5721 -0.1285  0.7629
 5591TIP3   OH238187   6.727   5.008   1.739  0.3602  0.1169 -0.3305
 5591TIP3    H138188   6.636   4.986   1.758  0.5990 -0.3750  0.3213
 5591TIP3    H238189   6.724   5.094   1.698 -0.3624  0.3343  0.1624
 5592TIP3   OH238190   4.139   3.681  12.603  0.1177  0.0203 -0.1523
 5592TIP3    H138191   4.096   3.675  12.688 -0.8423  0.7008 -0.5793
 5592TIP3    H238192   4.095   3.753  12.558 -0.8821 -1.6939 -2.0679
 5593TIP3   OH238193   0.141   2.361  15.242 -0.0478 -0.0145  0.2246
 5593TIP3    H138194   0.213   2.371  15.180 -0.8266 -0.3603 -0.7686
 5593TIP3    H238195   0.157   2.429  15.308  0.8802  0.2728 -0.2734
 5594TIP3   OH238196   1.621   2.034  11.403  0.0954 -0.4127 -0.0544
 5594TIP3    H138197   1.690   2.009  11.342  0.0031 -2.2105  0.5381
 5594TIP3    H238198   1.558   2.083  11.349  1.5817  0.9011 -0.6823
 5595TIP3   OH238199   6.465   3.315   4.141 -0.2962  0.2483  0.7504
 5595TIP3    H138200   6.497   3.298   4.053  0.2609  0.0418  0.9863
 5595TIP3    H238201   6.524   3.382   4.175 -0.8205  0.6928  0.7890
 5596TIP3   OH238202   3.816   4.087   5.093 -0.0795 -0.1439 -0.8637
 5596TIP3    H138203   3.828   4.003   5.137 -1.1001 -1.3805 -2.8192
 5596TIP3    H238204   3.872   4.084   5.016 -2.2583 -0.3401 -2.5654
 5597TIP3   OH238205   1.120   1.945   0.830 -0.2729 -1.0853 -0.5544
 5597TIP3    H138206   1.149   1.895   0.753  1.7979 -2.2512  0.8845
 5597TIP3    H238207   1.149   1.893   0.905  0.4547  1.4226  1.0315
 5598TIP3   OH238208   6.395   5.791  16.680  0.1388  0.2228  0.2982
 5598TIP3    H138209   6.348   5.746  16.750  0.1744 -0.8310 -0.3434
 5598TIP3    H238210   6.476   5.822  16.722  1.6542 -3.0802  0.0657
 5599TIP3   OH238211   0.362   6.164   2.929  0.2258 -0.9944  0.6594
 5599TIP3    H138212   0.405   6.244   2.899  1.3958 -1.0997  1.9802
 5599TIP3    H238213   0.303   6.192   2.998  0.5904 -1.2497  1.0808
 5600TIP3   OH238214   2.166   4.369  16.086 -0.0406  0.1971  0.2099
 5600TIP3    H138215   2.179   4.461  16.109  0.3971  0.2636 -0.2921
 5600TIP3    H238216   2.197   4.362  15.996  0.6261 -0.6027  0.4904
 5601TIP3   OH238217   6.049   1.899  11.655 -0.1401 -0.1376 -0.1315
 5601TIP3    H138218   5.964   1.868  11.687  0.1121 -1.1325 -0.3890
 5601TIP3    H238219   6.093   1.932  11.733 -0.3861 -0.5238  0.1781
 5602TIP3   OH238220   2.844   4.438  13.177 -0.0024 -0.4189 -0.1314
 5602TIP3    H138221   2.782   4.448  13.250  0.1077  0.6268 -0.1642
 5602TIP3    H238222   2.917   4.496  13.199 -0.3651  0.6114 -1.4851
 5603TIP3   OH238223   0.225   2.174   5.494 -0.6206  0.2830  0.3943
 5603TIP3    H138224   0.155   2.160   5.430 -0.9306  0.3800  0.7035
 5603TIP3    H238225   0.258   2.261   5.475  0.1964 -0.2049 -0.4842
 5604TIP3   OH238226   4.439   4.144  13.438 -0.2272  0.2347 -0.3086
 5604TIP3    H138227   4.519   4.194  13.421 -0.5021  0.3891 -1.2163
 5604TIP3    H238228   4.380   4.206  13.480 -0.6330  0.7639 -1.5916
 5605TIP3   OH238229   3.395   1.397  14.238 -0.0696  0.5547 -0.1462
 5605TIP3    H138230   3.477   1.440  14.264  0.2903  0.4507 -1.0820
 5605TIP3    H238231   3.365   1.353  14.318 -0.1288  2.0158  0.6775
 5606TIP3   OH238232   4.463   0.949   2.291  0.1235 -0.3148  0.3208
 5606TIP3    H138233   4.474   0.945   2.386 -0.6922 -1.2486  0.3944
 5606TIP3    H238234   4.368   0.952   2.279  0.2105 -0.6233 -0.4755
 5607TIP3   OH238235   1.126   3.014  12.377 -0.1025  0.3496  0.4544
 5607TIP3    H138236   1.056   2.959  12.413 -0.3222  0.8323  0.7755
 5607TIP3    H238237   1.093   3.103  12.386  1.6542  0.8291  3.1554
 5608TIP3   OH238238   2.278   5.411  13.540 -0.5043  0.4961  0.5164
 5608TIP3    H138239   2.320   5.325  13.541 -0.8491  0.3228  0.3486
 5608TIP3    H238240   2.277   5.438  13.632 -2.2486 -0.5997  0.8659
 5609TIP3   OH238241   0.637   3.155  10.507 -0.5757 -0.3179 -0.1035
 5609TIP3    H138242   0.615   3.220  10.440 -1.0652 -1.1336 -0.7454
 5609TIP3    H238243   0.731   3.167  10.522 -0.7216  0.7515  0.0179
 5610TIP3   OH238244   0.218   2.605   3.100 -0.1883  0.4629 -0.5256
 5610TIP3    H138245   0.239   2.684   3.150  0.0445  1.2626 -1.8311
 5610TIP3    H238246   0.144   2.566   3.146  0.7553  0.5063  1.1133
 5611TIP3   OH238247   2.273   6.536   2.310  0.3110  0.5538 -0.7250
 5611TIP3    H138248   2.354   6.486   2.297 -0.4995 -0.4844 -1.9995
 5611TIP3    H238249   2.204   6.480   2.275 -1.4768 -0.0710  3.1699
 5612TIP3   OH238250   6.459   1.519  14.455 -1.4793  0.3728 -0.1388
 5612TIP3    H138251   6.553   1.521  14.437 -1.7042 -1.0330 -1.6437
 5612TIP3    H238252   6.433   1.611  14.455 -0.6062  0.7003 -2.7220
 5613TIP3   OH238253   5.807   6.763   3.894  0.1866 -0.2615  0.6745
 5613TIP3    H138254   5.852   6.848   3.891  1.8583 -1.1110  0.9142
 5613TIP3    H238255   5.875   6.699   3.875 -1.0614 -1.5705  0.4905
 5614TIP3   OH238256   0.649   4.309  10.985  0.3684 -0.7158  0.1855
 5614TIP3    H138257   0.693   4.241  10.935  0.6559 -0.6960  0.4162
 5614TIP3    H238258   0.618   4.266  11.064 -0.4437 -0.8428 -0.1840
 5615TIP3   OH238259   3.449   5.951   0.137 -0.2933 -0.2884 -0.1552
 5615TIP3    H138260   3.542   5.929   0.135  0.0727  1.1329  0.2193
 5615TIP3    H238261   3.404   5.867   0.128  1.0192 -0.9993 -0.2639
 5616TIP3   OH238262   6.147   3.973  16.737 -0.3260  0.0361 -0.1403
 5616TIP3    H138263   6.126   3.884  16.710 -1.2530  0.3380 -0.4493
 5616TIP3    H238264   6.157   3.968  16.832 -1.6102 -0.1701 -0.0044
 5617TIP3   OH238265   1.068   0.044   0.768  0.0127  0.1719 -0.4879
 5617TIP3    H138266   1.040   0.136   0.774 -2.0628 -0.5107  2.2020
 5617TIP3    H238267   1.146   0.038   0.823  0.1537  0.3082 -0.6707
 5618TIP3   OH238268   4.593   3.423  11.252  0.1418  0.8141  0.0307
 5618TIP3    H138269   4.572   3.462  11.168 -0.4349  0.7734  0.1498
 5618TIP3    H238270   4.684   3.445  11.267  0.3780  0.4442 -0.8090
 5619TIP3   OH238271   2.011   0.166  14.303 -0.1712 -0.1374 -0.1183
 5619TIP3    H138272   1.965   0.244  14.274  0.7547  0.8239  0.9323
 5619TIP3    H238273   1.942   0.101  14.317 -1.5045  1.6894  2.8324
 5620TIP3   OH238274   3.819   2.609  15.512  0.1669  0.0800 -0.9008
 5620TIP3    H138275   3.744   2.552  15.528  0.2848  0.1460 -0.0652
 5620TIP3    H238276   3.793   2.693  15.550  1.0865 -0.2003  0.4176
 5621TIP3   OH238277   1.427   5.241   0.139 -0.1642  0.7494 -0.2267
 5621TIP3    H138278   1.401   5.263   0.229  0.1785 -0.1378  0.0973
 5621TIP3    H238279   1.499   5.179   0.149 -1.7478 -1.3636 -1.0574
 5622TIP3   OH238280   3.977   1.843  15.997 -0.3905  0.3772  0.2128
 5622TIP3    H138281   4.053   1.806  16.041 -0.5835  0.2692  0.4572
 5622TIP3    H238282   3.906   1.835  16.060 -0.2787  1.8563  0.5572
 5623TIP3   OH238283   6.215   1.472   3.888 -0.0731 -0.6352  0.0613
 5623TIP3    H138284   6.204   1.557   3.931  0.3721 -1.3027  1.5660
 5623TIP3    H238285   6.132   1.427   3.903 -1.2218  0.3506 -2.7816
 5624TIP3   OH238286   1.996   3.133   6.075 -0.1744 -1.0343  0.1789
 5624TIP3    H138287   1.990   3.200   6.006 -0.7019  0.1055  1.2919
 5624TIP3    H238288   2.024   3.182   6.153  0.6778 -2.3402  0.7322
 5625TIP3   OH238289   2.137   5.119   0.107 -0.6104  0.0683  0.4977
 5625TIP3    H138290   2.193   5.068   0.049 -1.2548 -0.0849  0.0060
 5625TIP3    H238291   2.055   5.131   0.059 -0.5933  1.3024  0.7230
 5626TIP3   OH238292   4.627   6.635  13.769 -0.0562  0.0465 -0.4028
 5626TIP3    H138293   4.566   6.680  13.828 -0.3195 -0.4267 -0.3121
 5626TIP3    H238294   4.576   6.564  13.731  0.5618 -0.6289  0.0050
 5627TIP3   OH238295   6.547   1.887   2.484 -0.5518 -0.4710  0.4375
 5627TIP3    H138296   6.579   1.958   2.428 -0.6634 -0.1437  0.7821
 5627TIP3    H238297   6.549   1.809   2.428  1.8162 -0.6789  0.7232
 5628TIP3   OH238298   5.028   1.238  17.198 -0.6914  0.1377  0.0220
 5628TIP3    H138299   5.066   1.281  17.274  1.0925  0.4012 -0.9479
 5628TIP3    H238300   5.013   1.309  17.135 -2.1974 -0.0659  0.1098
 5629TIP3   OH238301   2.282   1.068   2.271  0.4711  0.0225  0.0446
 5629TIP3    H138302   2.186   1.073   2.278  0.4330  0.7417 -0.9038
 5629TIP3    H238303   2.303   0.981   2.306 -0.4139  0.2677  1.3008
 5630TIP3   OH238304   1.814   5.319   0.579  0.3097  0.1895 -0.1175
 5630TIP3    H138305   1.765   5.255   0.527 -0.1608 -0.8212  1.4917
 5630TIP3    H238306   1.821   5.279   0.666  1.9346  1.3724  0.3477
 5631TIP3   OH238307   4.349   4.846  16.124 -0.2808  0.2016  0.3217
 5631TIP3    H138308   4.346   4.939  16.100 -1.3255  0.0222 -0.3159
 5631TIP3    H238309   4.257   4.821  16.131 -0.0174 -0.9665 -0.2076
 5632TIP3   OH238310   0.926   4.723  14.881  0.3667  0.2774 -0.2935
 5632TIP3    H138311   0.913   4.733  14.975 -0.7047  1.1266 -0.5113
 5632TIP3    H238312   0.956   4.809  14.851 -1.9564  0.8668 -1.1127
 5633TIP3   OH238313   4.906   0.242   4.047  0.3473 -0.1463 -0.0931
 5633TIP3    H138314   4.978   0.253   3.985  0.1767 -1.5472 -0.5948
 5633TIP3    H238315   4.844   0.312   4.024  0.6298 -0.1832 -1.0220
 5634TIP3   OH238316   0.207   1.544   5.731 -0.1497 -0.1128  0.1471
 5634TIP3    H138317   0.166   1.612   5.785 -0.7239  0.5950 -1.1577
 5634TIP3    H238318   0.282   1.515   5.783  1.0521  2.6150  0.1032
 5635TIP3   OH238319   2.419   0.435  16.222  0.3701 -0.0769  0.7868
 5635TIP3    H138320   2.388   0.495  16.290  1.3962 -0.6710  1.7984
 5635TIP3    H238321   2.511   0.421  16.241  1.9477  2.9712 -3.0901
 5636TIP3   OH238322   1.197   2.908   2.712  0.0373 -0.4488  0.2585
 5636TIP3    H138323   1.277   2.891   2.761  0.1391  2.1903  1.1848
 5636TIP3    H238324   1.135   2.940   2.778 -0.8512  0.1848 -0.8547
 5637TIP3   OH238325   0.077   6.681  10.465 -0.0688  0.7106 -0.0765
 5637TIP3    H138326  -0.014   6.659  10.444 -0.2321  1.8768 -0.6750
 5637TIP3    H238327   0.126   6.655  10.388 -0.1213  1.4622 -0.3736
 5638TIP3   OH238328   3.101   6.563   4.200 -0.1621 -0.4081 -0.4817
 5638TIP3    H138329   3.073   6.646   4.240  1.1906  1.4938 -3.1741
 5638TIP3    H238330   3.169   6.530   4.258  0.3883  1.2059 -0.1600
 5639TIP3   OH238331   4.972   2.581  12.809  0.4671 -0.4147  0.1536
 5639TIP3    H138332   4.882   2.567  12.780  0.6162  1.0136 -1.1443
 5639TIP3    H238333   4.964   2.607  12.901 -0.2146 -2.6964  0.7957
 5640TIP3   OH238334   5.308   4.608   1.440  0.1472  0.1782 -0.0107
 5640TIP3    H138335   5.371   4.604   1.512  0.7733 -0.2394 -0.5725
 5640TIP3    H238336   5.227   4.573   1.478  0.8623 -1.4659  0.1098
 5641TIP3   OH238337   5.354   4.333   1.249 -0.3540  0.0384  0.7500
 5641TIP3    H138338   5.365   4.413   1.299 -1.9220  0.1081  1.0422
 5641TIP3    H238339   5.285   4.353   1.186 -1.4916 -1.3451  1.4897
 5642TIP3   OH238340   4.621   0.668   1.170 -0.2379  0.3170  0.3725
 5642TIP3    H138341   4.592   0.755   1.141 -0.4788  0.4993  1.1456
 5642TIP3    H238342   4.624   0.674   1.265 -0.5133 -0.6086  0.4481
 5643TIP3   OH238343   0.593   1.526  16.123  0.3471 -0.5035  0.2946
 5643TIP3    H138344   0.571   1.490  16.037  1.2161 -0.2385 -0.0532
 5643TIP3    H238345   0.509   1.553  16.160 -0.0266 -0.4964 -0.5334
 5644TIP3   OH238346   5.076   6.037   3.255  0.2914  0.5012 -0.2469
 5644TIP3    H138347   4.981   6.036   3.241 -0.0989  0.2764  2.0386
 5644TIP3    H238348   5.089   6.100   3.326  1.4700 -1.7476  1.6532
 5645TIP3   OH238349   4.707   4.323  12.406 -0.1597  0.8010 -0.4192
 5645TIP3    H138350   4.728   4.305  12.498 -0.5912  1.8024 -0.1099
 5645TIP3    H238351   4.761   4.261  12.356  0.2074  0.3637  0.4984
 5646TIP3   OH238352   0.649   4.051  15.670 -0.2121  0.0060  0.3715
 5646TIP3    H138353   0.662   3.959  15.648  1.3579  0.9117 -3.4355
 5646TIP3    H238354   0.582   4.051  15.738  0.6814 -3.9387  1.5075
 5647TIP3   OH238355   4.341   6.593   5.648 -0.5685 -0.3056  0.0798
 5647TIP3    H138356   4.349   6.562   5.738  1.3970  2.2379  0.8928
 5647TIP3    H238357   4.397   6.533   5.598  0.0573 -0.4547  0.9326
 5648TIP3   OH238358   0.249   3.802   5.094 -0.0195  0.3093 -0.4380
 5648TIP3    H138359   0.335   3.759   5.095 -0.1941 -0.0315  0.1562
 5648TIP3    H238360   0.186   3.731   5.109 -0.5264  0.3254 -2.2061
 5649TIP3   OH238361   6.373   4.821   0.401  0.7208 -0.1460  0.1797
 5649TIP3    H138362   6.451   4.778   0.436  0.6670 -1.3517 -1.0915
 5649TIP3    H238363   6.339   4.759   0.337 -0.5036  0.9727 -0.2824
 5650TIP3   OH238364   5.095   1.421  11.770 -0.1142  0.2498  0.0884
 5650TIP3    H138365   5.100   1.429  11.866 -0.0088  0.3258  0.0770
 5650TIP3    H238366   5.035   1.490  11.744 -1.5225 -0.8640  0.2565
 5651TIP3   OH238367   5.569   1.330  13.030  0.1580 -0.3017 -0.4531
 5651TIP3    H138368   5.576   1.413  13.078  1.9882 -0.4655 -0.3506
 5651TIP3    H238369   5.475   1.318  13.015 -0.2590  0.9991  0.9070
 5652TIP3   OH238370   6.526   6.069  15.566  0.6470  0.3236 -0.3062
 5652TIP3    H138371   6.507   5.975  15.566  2.5847 -0.1043  0.6421
 5652TIP3    H238372   6.619   6.075  15.584  0.3537  2.4882  0.8187
 5653TIP3   OH238373   3.730   1.320  13.712  0.2440  0.0728 -0.7267
 5653TIP3    H138374   3.808   1.266  13.726 -0.4047 -0.7921 -0.3976
 5653TIP3    H238375   3.658   1.258  13.706 -0.4093  0.8533 -1.2080
 5654TIP3   OH238376   1.216   5.704  13.699 -0.1514  0.4079 -0.0354
 5654TIP3    H138377   1.311   5.700  13.683 -0.3843  1.3224 -2.0539
 5654TIP3    H238378   1.191   5.613  13.716  0.6269 -0.5071 -3.0053
 5655TIP3   OH238379   0.873   2.347   2.265  0.6732 -0.1495 -0.3902
 5655TIP3    H138380   0.832   2.353   2.352  1.2705  1.1826 -0.1770
 5655TIP3    H238381   0.807   2.383   2.205  1.1539  1.1775 -0.1582
 5656TIP3   OH238382   4.341   0.664  14.515 -0.1604 -1.3444  0.1448
 5656TIP3    H138383   4.282   0.592  14.539  1.2389 -1.9942  1.8823
 5656TIP3    H238384   4.345   0.719  14.594 -0.8824  0.4592 -1.0182
 5657TIP3   OH238385   5.393   1.931   0.248 -0.5390 -0.5002 -0.2991
 5657TIP3    H138386   5.399   2.026   0.247  1.8449 -0.5248  1.8731
 5657TIP3    H238387   5.311   1.912   0.293 -1.2964  0.4699 -1.2223
 5658TIP3   OH238388   2.621   1.419   4.137  0.1068 -0.5096 -0.0999
 5658TIP3    H138389   2.686   1.489   4.150 -0.0151 -0.1357 -1.3579
 5658TIP3    H238390   2.646   1.378   4.054 -0.7309 -0.9472 -0.1454
 5659TIP3   OH238391   6.611   1.625   4.017 -0.1342  0.1413 -0.1534
 5659TIP3    H138392   6.570   1.553   3.969  0.5239 -0.7487  0.5739
 5659TIP3    H238393   6.637   1.586   4.101  0.2437  1.2283  0.2541
 5660TIP3   OH238394   4.360   0.498  11.323 -0.3540  0.2910  0.4047
 5660TIP3    H138395   4.298   0.494  11.250 -1.1422  1.4774  0.9752
 5660TIP3    H238396   4.309   0.473  11.400  0.0216  0.7132  0.7980
 5661TIP3   OH238397   6.072   3.553   3.072  0.2446 -0.2609 -0.0394
 5661TIP3    H138398   6.089   3.459   3.075  0.2610 -0.2786 -0.5820
 5661TIP3    H238399   6.105   3.581   2.987  0.5216  0.2962  0.2450
 5662TIP3   OH238400   6.534   1.958  14.579  0.0649  0.4624 -0.2217
 5662TIP3    H138401   6.459   1.914  14.539  0.6121  0.5984 -1.4568
 5662TIP3    H238402   6.611   1.915  14.540  0.6145  1.3778 -0.1894
 5663TIP3   OH238403   1.638   4.905  15.287 -0.3290  0.4017  0.0389
 5663TIP3    H138404   1.606   4.849  15.217  1.1741 -0.0400 -0.3126
 5663TIP3    H238405   1.645   4.992  15.246  0.4245  0.1717 -0.3247
 5664TIP3   OH238406   4.075   6.379  15.296 -0.1482  0.0839  0.4081
 5664TIP3    H138407   4.143   6.433  15.256  0.1101 -0.7989 -0.3975
 5664TIP3    H238408   4.029   6.339  15.222 -0.9626 -0.0383  0.9629
 5665TIP3   OH238409   3.342   0.947   1.312 -0.0366 -0.6332  0.1718
 5665TIP3    H138410   3.260   0.900   1.295 -0.4172  0.2193 -0.3678
 5665TIP3    H238411   3.343   1.018   1.248  0.5559  0.0762  0.9517
 5666TIP3   OH238412   1.725   4.246   1.631  0.2504  0.0155  0.5239
 5666TIP3    H138413   1.709   4.274   1.540  1.1798  2.5501  1.0485
 5666TIP3    H238414   1.742   4.152   1.624 -0.8455 -0.1081 -1.7525
 5667TIP3   OH238415   3.336   2.220   3.780  0.3157  0.3510  0.4951
 5667TIP3    H138416   3.422   2.185   3.805  0.7448  0.5820 -0.6281
 5667TIP3    H238417   3.320   2.288   3.845  0.9395  0.2553  0.7683
 5668TIP3   OH238418   1.848   5.783  13.443  0.2782 -0.0749  0.2540
 5668TIP3    H138419   1.794   5.708  13.468 -1.5049 -0.2854 -3.5376
 5668TIP3    H238420   1.920   5.744  13.393  0.7082  0.5982  0.3415
 5669TIP3   OH238421   4.066   3.004  12.319  0.7104  0.5436 -0.1918
 5669TIP3    H138422   4.036   3.088  12.353  0.7933  0.5709 -0.1855
 5669TIP3    H238423   3.997   2.942  12.342  0.8055  0.5465  0.0980
 5670TIP3   OH238424   4.023   1.196  15.374 -0.0348 -0.2410 -0.0259
 5670TIP3    H138425   4.007   1.223  15.284 -1.9185 -0.9263  0.0567
 5670TIP3    H238426   4.024   1.277  15.424  0.2501  0.0814 -0.5512
 5671TIP3   OH238427   2.978   3.371   6.076 -0.0902  0.1543  0.5232
 5671TIP3    H138428   2.891   3.402   6.104  0.3983  1.0671  1.0709
 5671TIP3    H238429   3.039   3.437   6.110  0.6875  0.3659 -1.1746
 5672TIP3   OH238430   0.573   4.516   3.290 -0.2379  0.1345  0.2522
 5672TIP3    H138431   0.562   4.611   3.296 -0.4452  0.3888 -2.7412
 5672TIP3    H238432   0.662   4.504   3.258  0.3477 -0.8287  2.0794
 5673TIP3   OH238433   0.062   5.458   1.430  0.1246  0.8216  0.2218
 5673TIP3    H138434   0.122   5.528   1.403 -0.3639  0.6655 -1.3914
 5673TIP3    H238435  -0.025   5.499   1.429 -0.1744  0.1952 -0.8017
 5674TIP3   OH238436   0.327   5.205   4.966 -0.8394 -0.2594 -0.1955
 5674TIP3    H138437   0.273   5.127   4.977 -0.4196 -0.7248 -1.3163
 5674TIP3    H238438   0.271   5.266   4.919 -1.5731  0.5883  1.6719
 5675TIP3   OH238439   3.411   4.375   2.822  0.1440 -0.2025 -0.3615
 5675TIP3    H138440   3.398   4.304   2.759  0.5129  1.4451 -2.3989
 5675TIP3    H238441   3.448   4.447   2.771  3.3504  0.2992  2.2929
 5676TIP3   OH238442   0.789   6.000  13.687  0.0348  0.0799 -0.3032
 5676TIP3    H138443   0.799   6.056  13.764  0.2754 -1.2274  0.6471
 5676TIP3    H238444   0.830   5.918  13.712 -0.7730 -0.7099 -1.4818
 5677TIP3   OH238445   3.401   3.449   6.142  0.2564  0.4587 -0.4469
 5677TIP3    H138446   3.431   3.386   6.077 -0.8738  0.9305 -1.4601
 5677TIP3    H238447   3.394   3.399   6.223  0.1825 -0.5130 -1.0459
 5678TIP3   OH238448   0.200   2.351  13.350 -0.8807 -0.0836 -0.8009
 5678TIP3    H138449   0.202   2.427  13.408 -1.2064  1.5245 -2.7869
 5678TIP3    H238450   0.114   2.356  13.307 -0.2906 -0.6388 -2.1209
 5679TIP3   OH238451   1.632   6.035   3.168 -0.0466  0.2362  0.8986
 5679TIP3    H138452   1.615   5.989   3.251 -0.0453  0.5473  1.0752
 5679TIP3    H238453   1.579   5.988   3.104  1.5202 -1.3023  0.6471
 5680TIP3   OH238454   6.229   1.458   4.187  0.2082 -0.3205 -0.0561
 5680TIP3    H138455   6.232   1.402   4.109 -1.5227  0.9554 -1.1240
 5680TIP3    H238456   6.247   1.546   4.154 -2.6073  0.5911  0.5019
 5681TIP3   OH238457   1.082   1.204  11.058  0.6935 -0.0035  0.3152
 5681TIP3    H138458   1.011   1.249  11.105  0.2403 -0.9202  0.5416
 5681TIP3    H238459   1.146   1.183  11.126  0.6553 -0.1641  0.3021
 5682TIP3   OH238460   3.301   2.203  13.413 -0.2785  1.0898  0.1863
 5682TIP3    H138461   3.281   2.150  13.491 -0.4032  1.4580  0.4093
 5682TIP3    H238462   3.367   2.265  13.443  0.2816  0.6942 -0.2241
 5683TIP3   OH238463   4.203   6.223   0.231 -0.0480  0.0930 -0.0144
 5683TIP3    H138464   4.183   6.213   0.138  1.4725 -0.4298 -0.3141
 5683TIP3    H238465   4.122   6.256   0.270 -1.4198 -1.7985 -1.1288
 5684TIP3   OH238466   6.058   0.676  14.566  0.2066  0.0362  0.2594
 5684TIP3    H138467   6.119   0.695  14.637  3.0853 -1.4123 -1.6504
 5684TIP3    H238468   6.079   0.586  14.540 -1.4729  0.1560 -1.7397
 5685TIP3   OH238469   1.794   5.702   2.422  0.0757  0.7175 -0.4117
 5685TIP3    H138470   1.772   5.613   2.392  1.4589  0.2267 -0.0516
 5685TIP3    H238471   1.804   5.752   2.341  1.1912  0.0505 -0.7016
 5686TIP3   OH238472   6.632   4.681   0.963  0.2874 -0.3476  0.0310
 5686TIP3    H138473   6.540   4.682   0.939  0.0555 -0.5885  0.8634
 5686TIP3    H238474   6.632   4.682   1.059  1.1489 -0.2808  0.0401
 5687TIP3   OH238475   3.777   6.635  11.498  0.3521 -0.1437  0.0289
 5687TIP3    H138476   3.706   6.607  11.439  0.1734  0.0939  0.1332
 5687TIP3    H238477   3.856   6.593  11.461  0.4884  1.1405 -1.2191
 5688TIP3   OH238478   3.062   4.890   2.075  0.4987 -0.0171  0.1790
 5688TIP3    H138479   3.025   4.826   2.136  2.6921 -1.2043  0.3517
 5688TIP3    H238480   3.132   4.933   2.124 -1.7077  3.6246  0.5426
 5689TIP3   OH238481   6.688   0.109  11.661 -0.3417 -0.5208  0.1333
 5689TIP3    H138482   6.725   0.133  11.576 -1.3357 -1.8743 -0.7257
 5689TIP3    H238483   6.684   0.013  11.659 -1.0801 -0.5373  1.4005
 5690TIP3   OH238484   6.314   6.512  11.049 -0.5392  0.4381  0.7041
 5690TIP3    H138485   6.245   6.523  10.983  0.5544  0.4751 -0.4629
 5690TIP3    H238486   6.395   6.518  11.000  0.3861  2.5775  2.3877
 5691TIP3   OH238487   0.858   5.708   1.449 -0.5505  0.3925 -0.0957
 5691TIP3    H138488   0.920   5.685   1.519 -1.5002 -1.1059  0.2824
 5691TIP3    H238489   0.815   5.787   1.482 -2.3093 -1.3126  1.9443
 5692TIP3   OH238490   0.761   1.659  16.628 -1.3231  0.0067  0.0515
 5692TIP3    H138491   0.747   1.754  16.619 -0.9932  0.1620  1.0951
 5692TIP3    H238492   0.856   1.650  16.636 -1.1877 -0.5831 -1.7694
 5693TIP3   OH238493   1.055   4.851   1.159 -0.4472 -0.5145  0.1534
 5693TIP3    H138494   1.071   4.848   1.254  0.2293 -1.3103  0.0188
 5693TIP3    H238495   1.130   4.806   1.121 -0.7563 -0.2563 -0.7647
 5694TIP3   OH238496   6.709   1.852  14.904  0.7035 -0.3444 -0.3291
 5694TIP3    H138497   6.712   1.832  14.811  0.0144 -0.8110 -0.2639
 5694TIP3    H238498   6.720   1.767  14.947 -0.8885 -0.4293 -0.0239
 5695TIP3   OH238499   2.903   4.414  14.589  0.2615  0.4387 -0.7390
 5695TIP3    H138500   2.953   4.475  14.643 -0.1560 -1.3218  1.8469
 5695TIP3    H238501   2.812   4.439  14.603  0.0636 -0.8954  0.6333
 5696TIP3   OH238502   2.514   6.252  12.446 -0.2791 -0.4902  0.1888
 5696TIP3    H138503   2.453   6.178  12.444 -0.7630 -0.0841 -1.5852
 5696TIP3    H238504   2.599   6.211  12.464 -0.9984 -1.0493  2.8222
 5697TIP3   OH238505   6.356   5.315   6.516 -0.1112 -0.0907  0.4927
 5697TIP3    H138506   6.406   5.329   6.596 -2.2695 -0.1960  1.9653
 5697TIP3    H238507   6.339   5.221   6.514 -2.3051  0.2125  1.4509
 5698TIP3   OH238508   2.718   2.510   2.864 -0.2455 -0.2991 -0.1148
 5698TIP3    H138509   2.625   2.530   2.850 -0.3877 -0.3404  0.6913
 5698TIP3    H238510   2.721   2.414   2.868 -0.0264 -0.3348 -1.0219
 5699TIP3   OH238511   6.678   2.193  11.650 -0.1669 -0.1937  0.1287
 5699TIP3    H138512   6.739   2.149  11.591 -0.1347 -1.0113  0.7492
 5699TIP3    H238513   6.610   2.127  11.667 -2.3899  1.2868 -2.1319
 5700TIP3   OH238514   4.176   0.755  16.807 -0.2680  0.4120 -0.1067
 5700TIP3    H138515   4.269   0.770  16.818  0.2260 -2.3034 -0.0539
 5700TIP3    H238516   4.138   0.843  16.803  2.0337  1.5808  1.7004
 5701TIP3   OH238517   0.693   2.145   1.561 -0.0641  0.1373  0.4754
 5701TIP3    H138518   0.661   2.225   1.602 -1.8639 -0.4352  0.2918
 5701TIP3    H238519   0.679   2.159   1.467  2.2896  0.7036  0.1450
 5702TIP3   OH238520   4.458   1.776  14.661  0.3299  0.3232 -0.0146
 5702TIP3    H138521   4.481   1.869  14.656 -0.0073  0.4182  0.1565
 5702TIP3    H238522   4.541   1.730  14.650  0.3771  0.6224 -1.0570
 5703TIP3   OH238523   1.589   0.179   5.323  0.0126 -0.2204  0.2617
 5703TIP3    H138524   1.549   0.148   5.405 -1.5043 -1.0041 -0.7124
 5703TIP3    H238525   1.577   0.274   5.324  0.1423 -0.2095  1.0111
 5704TIP3   OH238526   5.809   5.584  12.612 -0.5491 -0.1695  0.2447
 5704TIP3    H138527   5.817   5.679  12.612 -2.8351  0.0818 -0.1572
 5704TIP3    H238528   5.763   5.563  12.531 -1.6119 -1.4321  1.1178
 5705TIP3   OH238529   5.209   4.250  10.520  0.2574  0.1430  0.6531
 5705TIP3    H138530   5.132   4.241  10.575 -0.2438  0.2699 -0.0099
 5705TIP3    H238531   5.237   4.341  10.531 -0.4011  0.4388 -0.0024
 5706TIP3   OH238532   2.673   2.412   6.268 -0.5324  0.1480  0.7956
 5706TIP3    H138533   2.646   2.328   6.304 -3.1380  0.1844 -0.7592
 5706TIP3    H238534   2.604   2.473   6.295 -0.3807  1.0565 -0.6970
 5707TIP3   OH238535   6.332   5.747  13.493 -0.0212 -0.0026 -0.5242
 5707TIP3    H138536   6.256   5.717  13.542 -0.3562  1.5794 -0.0186
 5707TIP3    H238537   6.405   5.740  13.555  0.0466 -0.4689 -0.6527
 5708TIP3   OH238538   1.032   3.288  17.200  0.1807  0.0408  0.6159
 5708TIP3    H138539   1.091   3.310  17.128  0.0033 -0.7645  0.2092
 5708TIP3    H238540   0.990   3.206  17.173 -0.4551  0.1242  1.2983
 5709TIP3   OH238541   3.716   3.780  14.142  0.1395 -0.1200 -0.9777
 5709TIP3    H138542   3.683   3.751  14.058 -1.0844  0.3599 -0.6779
 5709TIP3    H238543   3.738   3.872  14.129 -1.0087  0.2304 -0.5148
 5710TIP3   OH238544   2.831   2.086  16.697 -0.4317 -0.5768  0.3515
 5710TIP3    H138545   2.865   2.175  16.709 -0.8644 -0.6070  2.1512
 5710TIP3    H238546   2.740   2.099  16.670  0.4820 -0.5109 -3.2672
 5711TIP3   OH238547   4.563   0.814  14.136  0.1278 -0.6606 -0.0910
 5711TIP3    H138548   4.607   0.845  14.215 -2.0904  1.5211  0.4389
 5711TIP3    H238549   4.621   0.838  14.065  0.4681  0.8767  0.6657
 5712TIP3   OH238550   4.646   2.590  13.701  0.4257  0.3054  0.0326
 5712TIP3    H138551   4.642   2.499  13.675  0.1074 -0.1888  1.6684
 5712TIP3    H238552   4.568   2.603  13.756  0.7631  1.3992  0.2876
 5713TIP3   OH238553   0.183   0.585   1.823 -0.1769 -0.2314 -0.2294
 5713TIP3    H138554   0.133   0.561   1.901  1.5781  0.8892  1.3246
 5713TIP3    H238555   0.131   0.654   1.781 -0.2141  0.5729  1.0867
 5714TIP3   OH238556   3.055   5.848  15.457  0.1803 -0.2950 -0.1118
 5714TIP3    H138557   3.124   5.847  15.522 -0.0060 -2.1503  0.0963
 5714TIP3    H238558   2.975   5.826  15.505 -0.8706  2.9305 -0.1090
 5715TIP3   OH238559   1.891   4.757   2.849 -0.1591  0.0358 -0.1502
 5715TIP3    H138560   1.847   4.765   2.933  0.1817  0.3785  0.0004
 5715TIP3    H238561   1.823   4.725   2.789  0.3402 -3.4466  0.9028
 5716TIP3   OH238562   3.102   0.451  15.490 -0.4450  0.3193  0.3853
 5716TIP3    H138563   3.155   0.529  15.507 -2.1322  1.4908  0.5305
 5716TIP3    H238564   3.012   0.482  15.494 -1.1931 -1.7540  0.9122
 5717TIP3   OH238565   1.574   0.986  11.095 -0.0942 -0.2422 -0.0266
 5717TIP3    H138566   1.485   0.974  11.063 -0.4159 -0.6072  0.9725
 5717TIP3    H238567   1.617   1.038  11.027 -1.8362  2.3362  0.6804
 5718TIP3   OH238568   0.366   4.759   2.196 -0.0418  0.2435  0.0463
 5718TIP3    H138569   0.412   4.802   2.269 -0.2621 -0.4415  0.6031
 5718TIP3    H238570   0.397   4.805   2.118 -0.9314  2.0368  0.6732
 5719TIP3   OH238571   6.570   2.494  13.920  0.0817  0.2018  0.1381
 5719TIP3    H138572   6.616   2.441  13.984  2.6988 -0.5591 -2.1689
 5719TIP3    H238573   6.486   2.450  13.908  0.6564 -1.1998  1.0286
 5720TIP3   OH238574   1.148   4.363  17.204  0.1236  0.1705  0.5835
 5720TIP3    H138575   1.232   4.322  17.226 -0.0463  0.0011  0.9302
 5720TIP3    H238576   1.113   4.308  17.134  0.9157  1.0277 -0.5052
 5721TIP3   OH238577   2.955   5.490  12.547  0.4972  0.3105  0.8757
 5721TIP3    H138578   2.872   5.525  12.513  0.3543 -0.7721  0.0547
 5721TIP3    H238579   3.023   5.537  12.498  0.3341  0.1459  0.4908
 5722TIP3   OH238580   4.197   4.428  14.819  0.1462  0.0169 -0.2660
 5722TIP3    H138581   4.283   4.387  14.814  0.4390  0.6172 -0.3541
 5722TIP3    H238582   4.162   4.401  14.904  0.7778  0.4358  0.1390
 5723TIP3   OH238583   5.275   5.879  15.808  0.1900 -0.4382  0.1866
 5723TIP3    H138584   5.292   5.801  15.755  1.9297  0.1506 -0.1977
 5723TIP3    H238585   5.362   5.917  15.823 -0.5389  0.9642  1.0896
 5724TIP3   OH238586   0.880   2.557   3.927  0.2935  0.1172  0.2018
 5724TIP3    H138587   0.860   2.635   3.876 -0.0131 -0.0523  0.0571
 5724TIP3    H238588   0.954   2.516   3.882 -1.6255 -1.4790 -1.7231
 5725TIP3   OH238589   0.635   0.577   4.997  0.0887 -0.4691 -0.1956
 5725TIP3    H138590   0.652   0.545   5.086 -1.2529 -1.5858 -0.3226
 5725TIP3    H238591   0.546   0.611   5.000 -0.0631 -0.7575 -1.1906
 5726TIP3   OH238592   6.688   2.379   4.728 -0.4428  0.0630 -0.0547
 5726TIP3    H138593   6.734   2.331   4.659  0.0189 -0.6357  0.7317
 5726TIP3    H238594   6.617   2.321   4.755 -0.9651  0.5703 -0.3181
 5727TIP3   OH238595   6.107   2.998  13.235 -0.1689  0.6114  0.2197
 5727TIP3    H138596   6.199   2.980  13.218 -0.6790 -2.4872  0.2116
 5727TIP3    H238597   6.066   3.000  13.149 -0.4516 -0.5475  0.3032
 5728TIP3   OH238598   0.221   0.870   0.180 -0.0387 -0.7612  0.1048
 5728TIP3    H138599   0.162   0.942   0.204  1.5943 -0.1018  2.5307
 5728TIP3    H238600   0.169   0.791   0.198 -0.5866 -0.1906  1.2019
 5729TIP3   OH238601   2.833   0.895  16.105  0.3174 -0.0892  0.6493
 5729TIP3    H138602   2.897   0.881  16.176 -1.3366 -2.2596  1.8090
 5729TIP3    H238603   2.850   0.825  16.043  0.5553  0.7301 -0.2379
 5730TIP3   OH238604   4.495   3.892   4.644 -0.0444 -0.0795 -0.3046
 5730TIP3    H138605   4.493   3.988   4.652 -0.2398 -0.1667  0.9432
 5730TIP3    H238606   4.551   3.876   4.569  1.5913  0.9877  0.6155
 5731TIP3   OH238607   4.782   4.271  12.659  0.2226  0.5535 -0.4639
 5731TIP3    H138608   4.754   4.186  12.694 -3.4238  1.3550 -1.0714
 5731TIP3    H238609   4.871   4.282  12.692  0.2130 -2.7184  1.0378
 5732TIP3   OH238610   6.044   6.165  16.343  0.3244  0.4952  0.6202
 5732TIP3    H138611   6.126   6.212  16.324 -0.0685  0.8224 -0.2748
 5732TIP3    H238612   5.994   6.168  16.262  0.3646 -1.6769  0.4387
 5733TIP3   OH238613   6.044   6.116  15.896 -0.2720 -0.6297  0.4230
 5733TIP3    H138614   6.017   6.117  15.804  0.1452 -3.1605  0.1955
 5733TIP3    H238615   6.134   6.148  15.895  0.5869 -2.8543 -0.4746
 5734TIP3   OH238616   1.774   5.158   3.658 -0.0264 -0.3445 -0.2586
 5734TIP3    H138617   1.780   5.180   3.565 -2.6571 -2.1992 -0.9815
 5734TIP3    H238618   1.748   5.241   3.700 -0.7234  0.0968 -1.4932
 5735TIP3   OH238619   6.635   5.983   0.898  0.7273  0.2153 -0.4289
 5735TIP3    H138620   6.710   5.983   0.840  2.8040  0.8979  2.0626
 5735TIP3    H238621   6.609   6.075   0.903  0.4426  0.1351 -0.4220
 5736TIP3   OH238622   0.748   2.292   1.884  0.8286 -0.1376 -0.5477
 5736TIP3    H138623   0.826   2.332   1.844 -0.0785  1.8821 -0.4476
 5736TIP3    H238624   0.676   2.315   1.824 -0.0633  0.1666  0.5944
 5737TIP3   OH238625   1.525   5.327   2.124 -0.6468  0.1317 -0.4114
 5737TIP3    H138626   1.432   5.333   2.104 -0.6492 -2.3335 -1.4243
 5737TIP3    H238627   1.529   5.268   2.199  0.1138  0.4256 -0.2122
 5738TIP3   OH238628   3.496   6.601  14.680  0.3905  0.0506  0.1877
 5738TIP3    H138629   3.566   6.662  14.704 -0.4165  1.0553  0.0737
 5738TIP3    H238630   3.541   6.527  14.639  1.6238 -0.5696  2.4687
 5739TIP3   OH238631   1.493   5.170  11.914  0.3525 -0.2653 -0.2256
 5739TIP3    H138632   1.556   5.234  11.879 -0.1142  0.4842  0.2940
 5739TIP3    H238633   1.529   5.085  11.888  1.2075  0.1846 -0.5529
 5740TIP3   OH238634   4.310   5.976  13.379  0.4612 -0.5202  0.2313
 5740TIP3    H138635   4.314   5.889  13.338  5.3349 -0.0793 -0.8573
 5740TIP3    H238636   4.287   6.035  13.307  1.4272 -0.5466 -0.1201
 5741TIP3   OH238637   2.653   6.515   5.507 -0.3717  0.6747  0.2686
 5741TIP3    H138638   2.583   6.533   5.444  0.0706 -1.4534 -0.9274
 5741TIP3    H238639   2.684   6.428   5.483  2.4149  1.3714  1.0584
 5742TIP3   OH238640   0.626   3.036  13.416 -0.1823  0.0744  0.1238
 5742TIP3    H138641   0.720   3.023  13.403  0.1287  2.4081 -0.2679
 5742TIP3    H238642   0.588   3.026  13.329 -0.7384 -3.3031  0.5937
 5743TIP3   OH238643   0.337   5.430   2.350 -0.6184 -0.1355  0.8855
 5743TIP3    H138644   0.362   5.439   2.442  3.8912  1.2690 -0.2073
 5743TIP3    H238645   0.382   5.350   2.321 -1.9184 -0.5211 -0.1737
 5744TIP3   OH238646   1.968   1.691  15.896 -0.0235 -0.2623 -0.3620
 5744TIP3    H138647   1.981   1.656  15.808  0.5041 -1.9726  0.3681
 5744TIP3    H238648   2.028   1.642  15.951 -1.4325 -0.2929  1.2127
 5745TIP3   OH238649   0.632   6.602   3.059 -0.3141 -0.5825 -0.2049
 5745TIP3    H138650   0.564   6.575   3.120  2.0459 -1.8208  2.0720
 5745TIP3    H238651   0.654   6.691   3.084 -1.2244 -0.0586 -1.1569
 5746TIP3   OH238652   3.522   6.597  14.987  0.1301  0.6688 -0.2794
 5746TIP3    H138653   3.512   6.593  14.892  0.8282 -1.2335 -0.3266
 5746TIP3    H238654   3.616   6.587  15.002  0.1131  1.6840  0.5955
 5747TIP3   OH238655   5.659   5.367   1.513  0.0552  0.1706  0.7349
 5747TIP3    H138656   5.652   5.324   1.428  1.0619 -0.1410  0.7927
 5747TIP3    H238657   5.602   5.444   1.506 -1.7396 -1.1238  0.6284
 5748TIP3   OH238658   4.115   1.014  15.857  0.1100  0.0244  0.2796
 5748TIP3    H138659   4.098   0.920  15.852 -0.7699  0.1664  0.2771
 5748TIP3    H238660   4.126   1.040  15.766 -0.2661  0.0164  0.2275
 5749TIP3   OH238661   4.647   6.638  11.210 -0.7103  0.0598 -0.3228
 5749TIP3    H138662   4.656   6.688  11.129 -1.4198 -0.3243 -0.6509
 5749TIP3    H238663   4.703   6.561  11.197  1.2742  1.2723  0.6316
 5750TIP3   OH238664   3.908   0.401  17.006  0.1589 -0.3329  0.0808
 5750TIP3    H138665   3.838   0.442  17.057 -0.5368 -0.1101 -1.0073
 5750TIP3    H238666   3.940   0.472  16.950  0.6969 -0.6463 -0.0055
 5751TIP3   OH238667   0.128   3.993   3.766 -0.1846 -0.4105  0.1952
 5751TIP3    H138668   0.082   4.071   3.796  0.9146  0.5169 -0.4503
 5751TIP3    H238669   0.172   3.959   3.844  0.5433  0.4974  0.2066
 5752TIP3   OH238670   5.514   1.040  16.029  0.0431  0.5983 -0.2567
 5752TIP3    H138671   5.431   1.025  15.984  0.3942 -1.7157 -0.2278
 5752TIP3    H238672   5.503   1.126  16.071 -3.3706 -0.7157  1.9402
 5753TIP3   OH238673   1.139   1.412  12.556 -0.4491  0.4267 -0.0756
 5753TIP3    H138674   1.099   1.457  12.631 -0.6465  0.0529  0.0444
 5753TIP3    H238675   1.069   1.358  12.520  0.3068 -1.4316  1.0744
 5754TIP3   OH238676   6.598   1.571  14.133  0.1119  0.0580  0.0083
 5754TIP3    H138677   6.691   1.586  14.117 -0.0915  0.1136 -1.2550
 5754TIP3    H238678   6.589   1.476  14.141 -0.0981 -0.2524 -2.8692
 5755TIP3   OH238679   3.878   4.415  16.873 -0.0113 -0.1293  0.1217
 5755TIP3    H138680   3.925   4.497  16.883 -0.3266  0.6067 -3.2686
 5755TIP3    H238681   3.787   4.441  16.862 -0.6100 -1.2279  1.9019
 5756TIP3   OH238682   4.493   6.551   2.457 -0.9624  0.2961 -0.6498
 5756TIP3    H138683   4.487   6.537   2.552  1.6105  1.3119 -0.2283
 5756TIP3    H238684   4.422   6.611   2.437 -0.7882  1.0855  0.9187
 5757TIP3   OH238685   5.050   1.417   1.582  0.3109  0.0520  0.4081
 5757TIP3    H138686   5.003   1.479   1.638 -1.2831 -1.7525  1.1845
 5757TIP3    H238687   4.981   1.363   1.543  1.6617 -1.6986  0.3202
 5758TIP3   OH238688   1.073   3.501   1.813 -0.3928 -0.0292  0.2359
 5758TIP3    H138689   1.166   3.494   1.790 -0.4251 -1.1552  0.3745
 5758TIP3    H238690   1.060   3.433   1.879 -1.5108 -0.4945 -0.4425
 5759TIP3   OH238691   2.717   6.516  12.647 -0.3103  0.6839  0.1401
 5759TIP3    H138692   2.653   6.587  12.640 -1.5678 -0.4818 -0.6345
 5759TIP3    H238693   2.686   6.465  12.722 -1.1515 -0.6696 -1.0769
 5760TIP3   OH238694   6.468   3.521  12.977  0.1379  0.0329 -0.3283
 5760TIP3    H138695   6.424   3.606  12.980 -0.6942 -0.2602 -2.3266
 5760TIP3    H238696   6.503   3.516  12.888  1.3797 -1.1549  0.1894
 5761TIP3   OH238697   5.633   3.410   6.206 -0.6380  0.1290 -0.1782
 5761TIP3    H138698   5.547   3.452   6.206 -1.2833 -1.1056 -1.3937
 5761TIP3    H238699   5.622   3.331   6.258 -0.5037 -0.5123 -1.1005
 5762TIP3   OH238700   6.451   2.320   4.206  0.3912  0.2448  0.1179
 5762TIP3    H138701   6.531   2.369   4.219  0.4073 -0.4160  3.0948
 5762TIP3    H238702   6.407   2.321   4.291 -0.6198 -3.0723 -0.2237
 5763TIP3   OH238703   3.583   2.252  15.142 -0.3025  0.4030  0.0407
 5763TIP3    H138704   3.670   2.223  15.117 -1.2935 -1.0896 -1.9857
 5763TIP3    H238705   3.587   2.348  15.136  1.6496  0.4917  1.8185
 5764TIP3   OH238706   2.611   4.437   2.570 -0.1506  0.4082 -0.3062
 5764TIP3    H138707   2.562   4.370   2.522 -1.5156  0.5582  0.8258
 5764TIP3    H238708   2.617   4.403   2.659 -0.7538  1.7297  0.2557
 5765TIP3   OH238709   3.976   5.338   0.021 -0.5411  0.4915  0.1242
 5765TIP3    H138710   3.896   5.368  -0.021  0.0354 -0.5005 -1.7990
 5765TIP3    H238711   4.033   5.414   0.022  0.4576 -0.0389 -3.5592
 5766TIP3   OH238712   4.761   4.223   4.261  0.1207 -0.1604  0.0006
 5766TIP3    H138713   4.756   4.135   4.296 -1.6118 -1.4704 -3.1628
 5766TIP3    H238714   4.705   4.222   4.184  2.7786  2.6880 -2.2477
 5767TIP3   OH238715   6.702   5.907   3.242 -0.5211  0.0971 -0.0763
 5767TIP3    H138716   6.766   5.976   3.262  1.4710 -1.2114 -1.5323
 5767TIP3    H238717   6.709   5.846   3.316 -0.8969  0.4754  0.2810
 5768TIP3   OH238718   2.235   4.658  12.636  0.3911 -0.1536  0.3291
 5768TIP3    H138719   2.186   4.668  12.554  1.4893 -1.0276 -0.4631
 5768TIP3    H238720   2.215   4.570  12.666 -0.5508  0.3943  1.4051
 5769TIP3   OH238721   0.757   6.204  10.662  0.4241  0.4516 -0.0607
 5769TIP3    H138722   0.700   6.129  10.677  1.1169 -0.0795 -0.0087
 5769TIP3    H238723   0.703   6.280  10.682 -1.1097  0.1281 -2.5493
 5770TIP3   OH238724   4.071   1.231  13.728 -0.0143  0.7918  0.1928
 5770TIP3    H138725   4.104   1.302  13.783 -0.5550  1.8246 -0.7811
 5770TIP3    H238726   4.066   1.155  13.787 -0.3422  1.7962  1.4956
 5771TIP3   OH238727   1.763   6.172  13.709 -0.1991  0.2857 -0.2889
 5771TIP3    H138728   1.810   6.090  13.720 -0.8140 -0.2360 -1.3442
 5771TIP3    H238729   1.714   6.183  13.790  0.3255 -0.0981  0.0858
 5772TIP3   OH238730   0.059   6.266  13.390  0.5187  0.0357  0.7687
 5772TIP3    H138731   0.134   6.208  13.378  1.8756  1.9983 -1.0716
 5772TIP3    H238732   0.002   6.248  13.315  0.6227  0.6034  0.5489
 5773TIP3   OH238733   2.663   5.865  13.726 -0.4912  0.0195  0.0088
 5773TIP3    H138734   2.700   5.947  13.761  2.9250 -0.7173 -1.4310
 5773TIP3    H238735   2.640   5.885  13.636 -1.3563 -0.1571  0.1883
 5774TIP3   OH238736   4.432   1.625  16.077 -0.2054  0.1149 -0.1357
 5774TIP3    H138737   4.512   1.676  16.061 -0.1097 -0.2403 -0.8324
 5774TIP3    H238738   4.464   1.542  16.114 -0.2059 -0.2047 -0.8278
 5775TIP3   OH238739   5.856   1.205  16.770  0.2444 -1.0385  0.2805
 5775TIP3    H138740   5.850   1.115  16.803  2.3054 -0.4679  2.5793
 5775TIP3    H238741   5.891   1.254  16.844 -0.6395  1.6484 -0.9851
 5776TIP3   OH238742   4.711   3.394   2.324 -0.0632 -0.1945  0.2953
 5776TIP3    H138743   4.644   3.336   2.287 -0.0476  0.5064 -0.9029
 5776TIP3    H238744   4.662   3.471   2.353  0.2072  0.3466 -0.6412
 5777TIP3   OH238745   4.993   2.775   0.174  0.0920  0.0017  0.2886
 5777TIP3    H138746   4.938   2.848   0.147 -0.1207  0.1897  1.2067
 5777TIP3    H238747   5.025   2.799   0.260  0.1933 -0.8871  0.5131
 5778TIP3   OH238748   2.706   1.353  13.422  0.3404  0.2446  0.8718
 5778TIP3    H138749   2.736   1.269  13.387 -1.4368  0.0085 -0.2570
 5778TIP3    H238750   2.712   1.414  13.348 -1.5418  0.2418  0.6524
 5779TIP3   OH238751   2.641   2.832   5.815 -0.1625  0.1914 -0.0200
 5779TIP3    H138752   2.706   2.763   5.822  0.1012  0.5582  1.5741
 5779TIP3    H238753   2.577   2.812   5.883 -0.2444  1.3133  0.2691
 5780TIP3   OH238754   2.580   2.130  16.602 -0.3753 -0.4187  0.0780
 5780TIP3    H138755   2.498   2.081  16.605 -0.6342  0.0573  1.5794
 5780TIP3    H238756   2.564   2.207  16.657  1.4368 -0.8724  1.3124
 5781TIP3   OH238757   6.334   6.489   6.272  0.5781 -0.0964 -0.5614
 5781TIP3    H138758   6.283   6.558   6.230  1.4575 -0.5230 -2.4362
 5781TIP3    H238759   6.394   6.535   6.330 -1.2591  0.4586  0.9900
 5782TIP3   OH238760   5.029   2.056   4.462  0.6867  0.1015 -0.3265
 5782TIP3    H138761   5.095   2.083   4.397 -1.1015  1.0032 -1.8655
 5782TIP3    H238762   5.042   1.961   4.471  0.4458 -0.2104 -2.7028
 5783TIP3   OH238763   5.354   3.380  15.939 -0.5788 -0.1872 -0.0774
 5783TIP3    H138764   5.434   3.422  15.907  0.0694  0.4737  2.2457
 5783TIP3    H238765   5.287   3.405  15.875  0.3268  2.2774 -0.1692
 5784TIP3   OH238766   4.090   2.844  17.170 -0.3209  0.1656 -0.4935
 5784TIP3    H138767   4.162   2.782  17.181  0.7370  1.6130  1.0035
 5784TIP3    H238768   4.013   2.797  17.202  0.2217 -0.8032 -0.5693
 5785TIP3   OH238769   4.869   3.297  17.144  0.2096  0.0060  0.4063
 5785TIP3    H138770   4.921   3.277  17.222  0.6155 -0.5675  0.0010
 5785TIP3    H238771   4.932   3.292  17.072 -0.5299 -1.4906 -0.1976
 5786TIP3   OH238772   1.783   2.765  11.525  0.1340  0.0381 -0.7783
 5786TIP3    H138773   1.826   2.695  11.574 -1.7821  0.0133  1.0241
 5786TIP3    H238774   1.724   2.806  11.589  0.0245  2.2764 -2.2011
 5787TIP3   OH238775   3.123   6.433   4.582 -0.4895 -0.0083  0.1015
 5787TIP3    H138776   3.077   6.431   4.498 -1.0214  0.5751  0.3700
 5787TIP3    H238777   3.116   6.524   4.611  2.3537  0.5496 -0.6869
 5788TIP3   OH238778   5.302   5.244   6.221 -0.4842  0.2453 -0.0830
 5788TIP3    H138779   5.230   5.301   6.248 -0.5543 -0.3698  1.0880
 5788TIP3    H238780   5.264   5.156   6.219 -0.8520  0.3373 -3.5649
 5789TIP3   OH238781   3.619   5.827   1.701 -0.4654  0.5080 -0.0619
 5789TIP3    H138782   3.684   5.765   1.669  0.3888 -0.0523  2.5227
 5789TIP3    H238783   3.668   5.907   1.719 -0.3924  0.0500  2.0023
 5790TIP3   OH238784   6.690   4.808  13.664 -0.5562  0.0754 -0.4214
 5790TIP3    H138785   6.785   4.803  13.660 -0.6618 -2.5348 -1.0073
 5790TIP3    H238786   6.666   4.762  13.745 -1.3682 -0.5077 -0.9785
 5791TIP3   OH238787   2.723   4.847   5.017 -0.1914  0.5369  0.1114
 5791TIP3    H138788   2.800   4.891   4.980 -0.3529 -0.6248 -1.7236
 5791TIP3    H238789   2.650   4.875   4.962 -0.7133 -0.1080  0.4558
 5792TIP3   OH238790   6.474   5.096   5.432  0.4496  0.2057  0.2881
 5792TIP3    H138791   6.430   5.054   5.506  2.2646 -0.2034  1.1767
 5792TIP3    H238792   6.425   5.066   5.355  0.0798 -1.4464  1.1208
 5793TIP3   OH238793   4.233   1.453   4.635  0.8196  0.6457 -0.0425
 5793TIP3    H138794   4.266   1.542   4.622  1.8281  0.3558  0.4117
 5793TIP3    H238795   4.219   1.446   4.730 -1.4929  1.0608 -0.2980
 5794TIP3   OH238796   0.571   1.470  11.205 -0.0373 -0.5178 -0.1065
 5794TIP3    H138797   0.561   1.395  11.264 -0.3337 -2.0397 -1.9796
 5794TIP3    H238798   0.581   1.431  11.118 -0.7931  1.6480 -1.2451
 5795TIP3   OH238799   2.303   6.305  16.026 -0.3073  0.7931  0.1650
 5795TIP3    H138800   2.259   6.386  16.002  1.0830  1.0176 -1.8780
 5795TIP3    H238801   2.246   6.236  15.993 -1.5850  0.8582  2.0702
 5796TIP3   OH238802   2.927   0.784  12.712  0.3980 -0.3329  0.1995
 5796TIP3    H138803   2.932   0.729  12.791  0.2472 -0.3349  0.2071
 5796TIP3    H238804   2.918   0.873  12.745  2.9367 -0.0249  0.2276
 5797TIP3   OH238805   6.186   2.123  14.972  0.5611  0.2079 -0.3723
 5797TIP3    H138806   6.110   2.093  15.022  0.2615  1.0330 -0.3234
 5797TIP3    H238807   6.245   2.160  15.037  0.3962  0.8127 -0.5548
 5798TIP3   OH238808   0.450   5.661   2.860 -0.1374 -0.3374 -0.0565
 5798TIP3    H138809   0.506   5.597   2.903 -1.2295 -0.7016  0.8964
 5798TIP3    H238810   0.466   5.743   2.908 -0.0703 -0.3293 -0.0929
 5799TIP3   OH238811   3.281   4.516  12.150  0.0335 -0.3156  0.6950
 5799TIP3    H138812   3.233   4.528  12.068  1.0712 -0.5395  0.0449
 5799TIP3    H238813   3.261   4.596  12.201 -1.9256 -0.8921  0.9404
 5800TIP3   OH238814   2.903   3.335  13.308  0.0707 -0.8539 -0.5687
 5800TIP3    H138815   2.898   3.278  13.231 -0.7058 -1.7551  0.1282
 5800TIP3    H238816   2.983   3.306  13.353  0.1323 -0.8167 -0.6527
 5801TIP3   OH238817   1.761   5.199  10.614 -0.2237  0.2336 -0.5117
 5801TIP3    H138818   1.754   5.264  10.684  1.1166 -1.1045  0.9421
 5801TIP3    H238819   1.677   5.154  10.615 -0.2338  0.2488  0.2394
 5802TIP3   OH238820   1.532   1.801   1.586 -0.3391 -0.0871 -0.2750
 5802TIP3    H138821   1.573   1.883   1.560 -0.1000 -0.6930 -1.9092
 5802TIP3    H238822   1.590   1.766   1.654  0.9219 -0.0833 -1.3100
 5803TIP3   OH238823   2.151   3.790   0.696  0.4181  0.0214 -0.6264
 5803TIP3    H138824   2.088   3.858   0.675  0.2684 -0.3948 -1.5502
 5803TIP3    H238825   2.129   3.765   0.786  0.0326  0.7011 -0.5243
 5804TIP3   OH238826   5.468   4.151  16.913 -0.4067 -0.1132 -0.1587
 5804TIP3    H138827   5.429   4.066  16.935  0.1860 -0.2934  0.2420
 5804TIP3    H238828   5.490   4.189  16.998  0.5768 -0.1585 -0.3816
 5805TIP3   OH238829   4.197   0.150   3.881 -0.5166 -0.4441 -0.2793
 5805TIP3    H138830   4.280   0.155   3.928  0.6483 -0.3952 -2.2163
 5805TIP3    H238831   4.158   0.067   3.911 -1.9089  1.4194  3.7915
 5806TIP3   OH238832   3.475   2.423  16.561  0.0103  0.1668  0.3875
 5806TIP3    H138833   3.561   2.382  16.572  0.4513  0.3561 -1.8479
 5806TIP3    H238834   3.429   2.405  16.642  1.6580 -1.1685  1.0796
 5807TIP3   OH238835   5.932   1.339   6.564 -0.4658  0.5862  0.1440
 5807TIP3    H138836   5.942   1.413   6.505 -1.8504  1.0048  0.3971
 5807TIP3    H238837   5.894   1.376   6.644 -1.3173 -0.4052  0.2222
 5808TIP3   OH238838   1.639   2.679   2.309  0.1418  0.4818  0.1985
 5808TIP3    H138839   1.707   2.630   2.356  0.3496 -2.9660 -3.1263
 5808TIP3    H238840   1.687   2.748   2.263  0.7594  0.5037  0.8565
 5809TIP3   OH238841   5.426   1.479  11.432 -0.2347  0.3810 -0.3209
 5809TIP3    H138842   5.496   1.545  11.444 -0.8174  1.2723 -1.5839
 5809TIP3    H238843   5.469   1.396  11.449  1.1497  0.9178 -0.9989
 5810TIP3   OH238844   4.482   3.207   4.539 -0.2732 -0.1858 -0.2973
 5810TIP3    H138845   4.468   3.219   4.633  3.4839 -1.8512  0.6591
 5810TIP3    H238846   4.449   3.119   4.521 -0.0236 -0.2814 -0.2900
 5811TIP3   OH238847   6.442   5.892   6.073  0.3702 -0.7455  0.1216
 5811TIP3    H138848   6.389   5.937   6.139 -1.3359 -3.1721  0.5256
 5811TIP3    H238849   6.477   5.815   6.118 -0.9027 -2.5278 -1.7021
 5812TIP3   OH238850   0.292   2.712  14.026 -0.0587  0.3134 -0.5426
 5812TIP3    H138851   0.385   2.691  14.019 -0.0904 -0.0632  0.0258
 5812TIP3    H238852   0.290   2.799  14.066  0.0508 -0.1817  0.5875
 5813TIP3   OH238853   0.445   2.308  11.449  0.9029 -0.5629 -0.0463
 5813TIP3    H138854   0.449   2.214  11.466 -0.5773 -0.4449  1.2935
 5813TIP3    H238855   0.524   2.344  11.488  1.1604 -1.1884  0.0071
 5814TIP3   OH238856   3.846   4.547   0.761  0.3389  0.1331  0.4695
 5814TIP3    H138857   3.840   4.541   0.666  2.0256  0.9191  0.2839
 5814TIP3    H238858   3.881   4.462   0.788  1.5742  0.5436  0.1967
 5815TIP3   OH238859   5.042   1.802  15.750  0.2447  0.1108  0.0901
 5815TIP3    H138860   5.096   1.845  15.817 -0.1067 -0.5056  0.7856
 5815TIP3    H238861   5.099   1.794  15.674  0.9032  0.1241  0.5763
 5816TIP3   OH238862   5.901   5.111  12.274 -0.3213 -0.5511 -0.7402
 5816TIP3    H138863   5.984   5.142  12.238  1.5960 -3.7189  0.4860
 5816TIP3    H238864   5.865   5.187  12.319  2.1497  0.8569 -0.9302
 5817TIP3   OH238865   3.192   0.341   3.057 -0.5679  0.4220  0.0038
 5817TIP3    H138866   3.251   0.266   3.065 -0.7554  0.0594 -1.6320
 5817TIP3    H238867   3.128   0.314   2.992 -1.4676  1.5028  0.4089
 5818TIP3   OH238868   4.652   6.703  17.041 -0.5688  0.2890  0.3447
 5818TIP3    H138869   4.576   6.650  17.017  0.4510  0.0170 -2.6850
 5818TIP3    H238870   4.621   6.756  17.114 -3.2967 -0.6735  0.0266
 5819TIP3   OH238871   5.692   1.440   0.810  0.0841 -0.5372  0.0596
 5819TIP3    H138872   5.757   1.384   0.768  0.4963  0.0140 -0.0646
 5819TIP3    H238873   5.678   1.401   0.896  0.6982 -0.5915  0.1456
 5820TIP3   OH238874   0.793   3.437   5.994  0.3889  0.3138  0.5109
 5820TIP3    H138875   0.777   3.433   6.088  0.3358 -0.2033  0.4818
 5820TIP3    H238876   0.827   3.525   5.980  1.9230 -0.1214  1.2512
 5821TIP3   OH238877   1.472   5.621  11.389  0.7809 -0.1544  0.0405
 5821TIP3    H138878   1.552   5.649  11.431  0.6163  0.3897 -0.0062
 5821TIP3    H238879   1.433   5.558  11.450 -0.4377  2.0452  1.6554
 5822TIP3   OH238880   5.570   1.523  12.190 -0.0310 -0.5244  0.9776
 5822TIP3    H138881   5.545   1.430  12.192  0.1761 -0.5741  1.6483
 5822TIP3    H238882   5.493   1.569  12.224  0.0978 -0.5156  1.2678
 5823TIP3   OH238883   3.013   2.910   1.195 -0.0513 -0.5225  0.0714
 5823TIP3    H138884   2.926   2.874   1.179 -0.0766 -1.0846  1.3444
 5823TIP3    H238885   3.005   2.956   1.279  1.0289 -1.1668  0.5532
 5824TIP3   OH238886   2.429   4.185   3.490 -0.3102  0.2010  0.4422
 5824TIP3    H138887   2.522   4.208   3.493 -0.2538 -0.0210  0.4044
 5824TIP3    H238888   2.386   4.252   3.543  0.0384 -0.4986  1.6484
 5825TIP3   OH238889   3.051   4.373   4.214  0.0945 -0.0101  0.1546
 5825TIP3    H138890   3.047   4.355   4.120  2.2449  0.3777 -0.0594
 5825TIP3    H238891   3.084   4.462   4.220 -1.8762  0.7137  1.3185
 5826TIP3   OH238892   1.359   4.253   2.528  0.2502  0.5326  0.1497
 5826TIP3    H138893   1.286   4.207   2.486  0.1812  0.4526  0.3534
 5826TIP3    H238894   1.347   4.345   2.504  0.5071  0.4138 -0.4324
 5827TIP3   OH238895   3.602   4.576   1.728  0.3230  0.3385 -0.0429
 5827TIP3    H138896   3.562   4.501   1.683 -1.6587  0.3626  1.5354
 5827TIP3    H238897   3.638   4.540   1.808 -0.4614  1.0166  0.6286
 5828TIP3   OH238898   1.183   2.507   4.823  0.3625 -0.9585 -0.0298
 5828TIP3    H138899   1.124   2.464   4.884 -0.6440  1.5501  0.8970
 5828TIP3    H238900   1.131   2.518   4.743 -1.2426  2.6189  1.2583
 5829TIP3   OH238901   2.339   2.364   5.751  0.3151 -0.5048 -0.5016
 5829TIP3    H138902   2.288   2.358   5.832 -2.5211 -0.4966 -2.1392
 5829TIP3    H238903   2.317   2.284   5.704  0.7227  0.1672 -1.8774
 5830TIP3   OH238904   0.380   3.224  16.789  0.0443 -0.2741  0.2548
 5830TIP3    H138905   0.325   3.261  16.858 -1.0144 -0.7067 -0.3394
 5830TIP3    H238906   0.325   3.227  16.710  0.2371 -2.3026  0.0033
 5831TIP3   OH238907   4.761   3.620  15.391  0.3242 -0.3096  0.5563
 5831TIP3    H138908   4.794   3.679  15.459  0.6626 -0.0169  0.1440
 5831TIP3    H238909   4.739   3.539  15.438  1.9239 -0.6349  0.8241
 5832TIP3   OH238910   0.944   4.422   1.105 -0.7952  0.4314 -0.2473
 5832TIP3    H138911   1.030   4.381   1.117 -1.1543 -0.1211  0.5181
 5832TIP3    H238912   0.957   4.512   1.134 -0.5716  0.2415  0.2595
 5833TIP3   OH238913   4.806   3.709   1.654  0.5736 -0.4342 -0.4283
 5833TIP3    H138914   4.797   3.708   1.559 -0.2576 -0.9479 -0.3529
 5833TIP3    H238915   4.771   3.794   1.681 -2.0836 -1.4591 -0.3496
 5834TIP3   OH238916   3.704   1.624  15.326  0.1951 -0.0433 -0.0172
 5834TIP3    H138917   3.783   1.572  15.313  0.5244  0.4875 -0.1823
 5834TIP3    H238918   3.661   1.623  15.240 -0.0741 -0.4954  0.1261
 5835TIP3   OH238919   0.266   0.953   3.715 -0.5905 -0.1052  0.4191
 5835TIP3    H138920   0.252   1.046   3.731  0.4312  0.1774 -0.2552
 5835TIP3    H238921   0.329   0.927   3.782 -0.4346 -0.1837  0.2400
 5836TIP3   OH238922   6.280   4.812  11.059 -0.0007  0.5022 -0.2162
 5836TIP3    H138923   6.285   4.724  11.020 -0.4456  0.4103 -0.0755
 5836TIP3    H238924   6.211   4.856  11.009 -0.8596  0.2510  0.7160
 5837TIP3   OH238925   2.582   1.364  14.135  0.0586  0.3192  0.5480
 5837TIP3    H138926   2.588   1.270  14.154  0.8729  0.1704 -0.4016
 5837TIP3    H238927   2.619   1.374  14.048 -1.5172  1.3088 -0.0563
 5838TIP3   OH238928   5.180   5.132  13.069  0.5825 -0.5650  0.2799
 5838TIP3    H138929   5.164   5.149  13.162  1.0811 -1.5721  0.5662
 5838TIP3    H238930   5.093   5.133  13.029  0.4067  0.3917  0.6504
 5839TIP3   OH238931   4.401   6.380  11.365 -0.2081 -0.3561 -0.2046
 5839TIP3    H138932   4.407   6.466  11.408  0.1089 -0.2505 -0.4546
 5839TIP3    H238933   4.438   6.395  11.278 -0.7287 -0.6036 -0.4650
 5840TIP3   OH238934   2.126   2.233  15.303  0.0103 -0.0294  0.3797
 5840TIP3    H138935   2.188   2.266  15.368 -0.8156 -0.7493  1.5722
 5840TIP3    H238936   2.064   2.305  15.290  0.6796  0.4327 -0.2789
 5841TIP3   OH238937   2.189   0.721  16.314  0.1293  0.0144  0.7703
 5841TIP3    H138938   2.246   0.792  16.286  0.3045  0.8396  3.0418
 5841TIP3    H238939   2.210   0.707  16.407 -2.2758 -0.6750  1.2956
 5842TIP3   OH238940   1.361   1.491   2.862 -0.3876 -0.0071 -0.1783
 5842TIP3    H138941   1.296   1.480   2.932 -3.2288  0.1046 -2.5976
 5842TIP3    H238942   1.351   1.413   2.808  1.0062  0.3716 -1.0316
 5843TIP3   OH238943   6.697   0.649   4.729  0.4656  0.5161  0.3709
 5843TIP3    H138944   6.782   0.693   4.733  0.0058  1.3360  2.1876
 5843TIP3    H238945   6.703   0.577   4.792  0.0528  0.1253 -0.0281
 5844TIP3   OH238946   4.170   6.112  13.176 -0.2524  0.5682 -0.2993
 5844TIP3    H138947   4.168   6.111  13.080 -0.6154  1.0007 -0.3037
 5844TIP3    H238948   4.079   6.100  13.202  0.1315 -1.9529  0.0546
 5845TIP3   OH238949   5.020   1.592   0.210 -0.1604  0.2395 -0.2864
 5845TIP3    H138950   4.997   1.628   0.296  2.6350  2.4762 -0.3456
 5845TIP3    H238951   4.935   1.579   0.167 -1.6004  0.1292  2.3327
 5846TIP3   OH238952   5.288   3.516  16.409  0.1009 -0.6718 -0.6340
 5846TIP3    H138953   5.316   3.492  16.498  0.5115 -0.7765 -0.7929
 5846TIP3    H238954   5.366   3.551  16.367 -0.4709  0.9958 -0.4127
 5847TIP3   OH238955   4.981   0.380  16.942 -0.1822 -0.1779  0.2533
 5847TIP3    H138956   4.895   0.417  16.923 -0.2576 -0.3523  0.2594
 5847TIP3    H238957   5.036   0.409  16.869 -0.6173 -1.3545 -0.5713
 5848TIP3   OH238958   0.943   6.722   0.311 -0.2887 -0.3020  0.1489
 5848TIP3    H138959   0.888   6.799   0.326 -0.2900 -0.1368 -0.6573
 5848TIP3    H238960   0.978   6.700   0.397 -0.0619  0.7675  0.3353
 5849TIP3   OH238961   1.710   4.952  11.762 -0.0727  0.6161 -0.2574
 5849TIP3    H138962   1.708   4.961  11.667  0.1070  2.8493 -0.0987
 5849TIP3    H238963   1.787   5.003  11.789 -1.0323  1.3693  1.1874
 5850TIP3   OH238964   5.482   2.397  15.991 -0.3442  0.7620 -0.0867
 5850TIP3    H138965   5.552   2.433  15.937 -1.7612  0.4690 -2.2487
 5850TIP3    H238966   5.436   2.336  15.933 -0.1038 -2.0129  2.3949
 5851TIP3   OH238967   3.597   3.994  16.446  0.4830  0.0367  0.1502
 5851TIP3    H138968   3.590   3.923  16.382 -2.2236  0.3851 -0.0485
 5851TIP3    H238969   3.516   4.043  16.437  0.3113  0.5595  3.3293
 5852TIP3   OH238970   3.438   0.959   0.351 -0.1551 -0.0613  0.2392
 5852TIP3    H138971   3.395   1.003   0.425 -0.9752  0.9493 -0.8006
 5852TIP3    H238972   3.481   1.029   0.303  3.8687 -1.1354  1.8776
 5853TIP3   OH238973   3.034   0.086  16.994 -0.2168  0.0884  0.6949
 5853TIP3    H138974   3.091   0.046  16.929 -2.1109  0.3239 -1.2072
 5853TIP3    H238975   3.063   0.177  16.999  0.8390 -0.2616  1.2746
 5854TIP3   OH238976   3.616   0.768  17.225 -0.2437 -0.1635 -0.0103
 5854TIP3    H138977   3.524   0.793  17.233  0.0685  0.8738  0.5289
 5854TIP3    H238978   3.655   0.793  17.308  0.7850  0.5499 -0.6855
 5855TIP3   OH238979   6.731   4.069  15.270 -0.0668 -0.3782 -0.0814
 5855TIP3    H138980   6.742   4.018  15.350 -1.2128  0.2727  0.5087
 5855TIP3    H238981   6.676   4.143  15.295 -0.4404 -0.1549 -1.4661
 5856TIP3   OH238982   4.340   3.931  16.203 -0.0884 -0.5906 -0.0691
 5856TIP3    H138983   4.381   3.902  16.285 -0.3528 -0.1208  0.2358
 5856TIP3    H238984   4.246   3.937  16.225 -0.1314 -0.2408 -0.3420
 5857TIP3   OH238985   5.893   0.404   0.078  0.8537 -0.2308 -0.0727
 5857TIP3    H138986   5.836   0.434   0.149 -2.1093 -2.7546 -1.1237
 5857TIP3    H238987   5.935   0.326   0.112 -0.4539 -1.3577 -0.9106
 5858TIP3   OH238988   0.099   5.215  10.440 -0.0715  0.5763  0.4662
 5858TIP3    H138989   0.009   5.184  10.427 -1.0105  2.9553  0.7991
 5858TIP3    H238990   0.145   5.186  10.361 -0.8794 -1.4254  0.6714
 5859TIP3   OH238991   1.055   3.271   3.057  0.4045 -0.1031 -0.0729
 5859TIP3    H138992   1.066   3.236   3.146  0.6535 -1.2471 -0.5290
 5859TIP3    H238993   0.962   3.259   3.038  0.1416  1.0940  0.4015
 5860TIP3   OH238994   0.137   1.308  13.653  0.1234  0.2220 -0.0321
 5860TIP3    H138995   0.150   1.213  13.659 -1.2496 -0.2162 -2.5687
 5860TIP3    H238996   0.068   1.327  13.717  0.1554 -0.5402  0.2378
 5861TIP3   OH238997   1.304   0.415   3.162 -0.0377  0.1423  0.1885
 5861TIP3    H138998   1.290   0.421   3.067  0.4368 -0.5560  0.0661
 5861TIP3    H238999   1.342   0.500   3.186  0.6059  0.0323 -0.3942
 5862TIP3   OH239000   0.041   3.910  10.581 -0.0715  0.1908  0.7465
 5862TIP3    H139001   0.126   3.889  10.542  0.7907  1.9178  1.5940
 5862TIP3    H239002   0.033   4.005  10.570 -2.4839 -0.0666 -0.4130
 5863TIP3   OH239003   3.237   3.524   1.341 -0.0656  0.3090 -0.3070
 5863TIP3    H139004   3.257   3.546   1.250  0.3497 -0.1089 -0.3198
 5863TIP3    H239005   3.283   3.591   1.392  1.6331 -0.7854 -0.3274
 5864TIP3   OH239006   1.217   1.967   2.456 -0.1830 -0.2042  0.2860
 5864TIP3    H139007   1.249   1.878   2.447 -1.2264 -0.6421  0.7695
 5864TIP3    H239008   1.262   2.001   2.534  0.2773 -0.2649  0.0523
 5865TIP3   OH239009   4.840   2.698   3.193  0.6302  0.2277 -0.0246
 5865TIP3    H139010   4.809   2.762   3.129 -1.1083  0.5329  1.0402
 5865TIP3    H239011   4.787   2.620   3.176  0.8700 -0.0231  0.3818
 5866TIP3   OH239012   0.538   2.783   2.466  0.3097  0.0751  0.4444
 5866TIP3    H139013   0.549   2.710   2.406 -0.6056  0.8751 -0.7579
 5866TIP3    H239014   0.496   2.745   2.544 -0.5119 -0.6085 -0.3176
 5867TIP3   OH239015   3.381   1.152  17.061 -0.5645 -0.1559  0.3318
 5867TIP3    H139016   3.320   1.095  17.106 -1.0829  0.5357  0.5234
 5867TIP3    H239017   3.326   1.208  17.005 -0.1222  0.5043  0.5403
 5868TIP3   OH239018   4.192   1.060  17.187 -0.7742 -0.6102 -0.4090
 5868TIP3    H139019   4.110   1.071  17.138 -0.7384 -1.1858 -0.6067
 5868TIP3    H239020   4.221   0.971  17.165 -0.9688 -1.0459  0.9545
 5869TIP3   OH239021   4.918   0.479   3.228 -0.1537  0.1950 -0.6909
 5869TIP3    H139022   4.857   0.484   3.154  0.4050 -0.6542 -1.2273
 5869TIP3    H239023   4.898   0.556   3.281 -2.5425 -0.6828 -0.1801
 5870TIP3   OH239024   6.093   5.657  14.237 -0.1155  0.3158 -0.5589
 5870TIP3    H139025   6.029   5.627  14.172 -1.1429  0.0500  0.5585
 5870TIP3    H239026   6.154   5.583  14.244 -1.5370 -0.7906  0.7420
 5871TIP3   OH239027   5.749   6.027  12.784 -0.3597 -0.2955  0.2132
 5871TIP3    H139028   5.784   5.958  12.727  3.0800 -0.2952  2.0682
 5871TIP3    H239029   5.790   6.108  12.751 -1.4330  0.3038  0.3194
 5872TIP3   OH239030   4.316   6.519  14.911  0.5008 -1.0799  0.4523
 5872TIP3    H139031   4.353   6.603  14.884 -0.9021 -0.4411  0.3961
 5872TIP3    H239032   4.392   6.465  14.932  1.4239  0.3562  0.9713
 5873TIP3   OH239033   5.605   5.496  11.367  0.6296  0.4877  0.3814
 5873TIP3    H139034   5.629   5.551  11.442  1.7699 -0.0813  0.4663
 5873TIP3    H239035   5.672   5.427  11.367 -1.5849 -1.7924  1.2073
 5874TIP3   OH239036   6.002   2.981  16.041  0.1378 -0.0307  0.6630
 5874TIP3    H139037   6.030   2.890  16.047 -1.8079 -0.6561  0.9688
 5874TIP3    H239038   6.077   3.031  16.074  2.2896 -1.2633 -1.9534
 5875TIP3   OH239039   3.451   0.367   1.249 -0.7156 -0.2465  0.3688
 5875TIP3    H139040   3.400   0.307   1.194  0.1583 -0.5800 -0.0919
 5875TIP3    H239041   3.442   0.452   1.207  0.0968 -0.5322 -0.4128
 5876TIP3   OH239042   3.471   5.465   0.888 -0.8457  0.2537 -0.0183
 5876TIP3    H139043   3.422   5.546   0.877 -1.7556 -0.3058 -0.2248
 5876TIP3    H239044   3.472   5.425   0.801 -1.5192 -0.5532  0.3201
 5877TIP3   OH239045   3.134   5.835  11.804  0.1478 -0.1138  0.3454
 5877TIP3    H139046   3.066   5.774  11.776  1.2427 -0.8320 -0.8940
 5877TIP3    H239047   3.214   5.801  11.765  0.9768  1.5424  0.5027
 5878TIP3   OH239048   4.213   4.401  12.563  0.2357  0.9966  0.1923
 5878TIP3    H139049   4.262   4.359  12.634 -1.0954 -0.1301  0.4877
 5878TIP3    H239050   4.278   4.413  12.494  1.4154  1.5384  1.3457
 5879TIP3   OH239051   0.216   4.774   0.950  0.3033  0.1436 -0.5535
 5879TIP3    H139052   0.251   4.727   1.026 -0.6562 -0.0679 -0.2304
 5879TIP3    H239053   0.267   4.740   0.876  1.5966  0.7172  0.0345
 5880TIP3   OH239054   0.599   6.666   4.435  0.4712 -1.0358 -0.1257
 5880TIP3    H139055   0.574   6.625   4.518  1.4230 -2.7720 -0.6393
 5880TIP3    H239056   0.616   6.592   4.376 -1.1242  0.1454 -2.1816
 5881TIP3   OH239057   3.230   1.212   2.139  0.3559  0.2365  0.0085
 5881TIP3    H139058   3.201   1.155   2.068 -2.1230  0.6064  0.6501
 5881TIP3    H239059   3.322   1.231   2.118  0.5398 -1.9801 -1.5089
 5882TIP3   OH239060   3.023   4.270   4.478  0.1591 -0.4748  0.5396
 5882TIP3    H139061   3.064   4.289   4.393  2.1400 -3.1216  0.7843
 5882TIP3    H239062   3.045   4.345   4.533  0.4853  0.3911 -0.7224
 5883TIP3   OH239063   4.384   1.027  16.591 -0.7034 -0.1783 -0.0529
 5883TIP3    H139064   4.326   1.015  16.666 -1.0393  0.6051 -0.1726
 5883TIP3    H239065   4.325   1.046  16.518 -0.3713 -0.7958 -0.4896
 5884TIP3   OH239066   6.710   2.250   3.329  0.9363  0.1978 -0.4022
 5884TIP3    H139067   6.786   2.206   3.368  0.9147  1.6215  1.3894
 5884TIP3    H239068   6.658   2.278   3.404 -1.0126 -0.0841 -1.5807
 5885TIP3   OH239069   0.864   0.263  15.619 -0.1970  0.3300 -0.0839
 5885TIP3    H139070   0.815   0.218  15.550  1.9339 -2.8042  0.2610
 5885TIP3    H239071   0.796   0.297  15.678 -1.9983 -0.6374 -1.4782
 5886TIP3   OH239072   1.377   2.975   3.050 -0.8843 -0.0195  0.0208
 5886TIP3    H139073   1.305   2.912   3.056 -0.2027 -0.9694 -1.1926
 5886TIP3    H239074   1.446   2.940   3.105 -0.6547 -0.1241 -0.3281
 5887TIP3   OH239075   0.947   4.685  10.712  0.1968 -0.0154  0.2366
 5887TIP3    H139076   0.913   4.763  10.755  1.2841 -1.1235  3.3708
 5887TIP3    H239077   0.900   4.612  10.751  0.6882 -1.0898 -1.0727
 5888TIP3   OH239078   0.820   6.318  14.704 -0.1444 -0.5411 -0.5650
 5888TIP3    H139079   0.898   6.270  14.734  0.2223 -0.1470 -0.8689
 5888TIP3    H239080   0.756   6.305  14.773  0.7184  0.4425  0.4608
 5889TIP3   OH239081   6.028   1.022   3.192  0.1127 -0.5295 -0.5144
 5889TIP3    H139082   6.009   1.011   3.099  1.8342  0.6047 -1.0472
 5889TIP3    H239083   5.992   1.109   3.214  1.1856 -0.0467 -0.5824
 5890TIP3   OH239084   4.452   3.446  14.515 -0.4031  0.0672 -0.4277
 5890TIP3    H139085   4.454   3.465  14.422  0.5923 -0.0757 -0.4571
 5890TIP3    H239086   4.409   3.521  14.555  0.6221  0.9136 -0.8492
 5891TIP3   OH239087   1.417   6.211   2.541 -0.6757 -0.0558  0.3158
 5891TIP3    H139088   1.364   6.142   2.500 -2.7557  1.4148  0.3447
 5891TIP3    H239089   1.352   6.276   2.569  1.3059  2.7602 -1.2682
 5892TIP3   OH239090   6.113   1.018  11.148 -0.3667 -0.3152  0.2517
 5892TIP3    H139091   6.137   1.016  11.055 -1.7107 -0.2050 -0.1214
 5892TIP3    H239092   6.079   0.931  11.165 -0.2272 -0.2984  0.6238
 5893TIP3   OH239093   4.957   3.754  11.981 -0.2480 -0.3919 -0.0053
 5893TIP3    H139094   4.925   3.776  12.068  0.3976 -2.6329  0.8746
 5893TIP3    H239095   5.049   3.778  11.982  0.0948 -1.6480  0.4434
 5894TIP3   OH239096   5.960   3.187   2.025  0.5386  0.3312 -0.1154
 5894TIP3    H139097   5.906   3.265   2.035 -0.0397 -0.1077  0.2338
 5894TIP3    H239098   5.919   3.137   1.955 -0.9148 -1.1260  1.6835
 5895TIP3   OH239099   4.974   4.330  15.221 -0.0898  0.0758 -0.1242
 5895TIP3    H139100   5.058   4.291  15.246  0.0562  0.5329  0.1025
 5895TIP3    H239101   4.909   4.276  15.264  0.1174  0.1720  0.3155
 5896TIP3   OH239102   3.010   3.019   3.947  0.3774 -0.1217 -0.0398
 5896TIP3    H139103   2.971   3.065   4.021  0.2426  0.8161 -0.6717
 5896TIP3    H239104   2.941   3.020   3.880  1.6702  2.2758 -1.4697
 5897TIP3   OH239105   4.795   3.941  15.542  0.2800 -0.3861 -0.7846
 5897TIP3    H139106   4.796   3.965  15.635 -0.7681 -0.6958 -0.6837
 5897TIP3    H239107   4.887   3.923  15.521  0.8158  1.5772 -0.3184
 5898TIP3   OH239108   6.042   0.880  15.546 -0.2214 -0.3002  0.1467
 5898TIP3    H139109   6.132   0.913  15.551  0.2931 -1.6837  0.4927
 5898TIP3    H239110   6.006   0.896  15.633 -0.0797 -0.3721  0.2185
 5899TIP3   OH239111   4.554   1.290  14.505  0.3708 -0.4840  0.3113
 5899TIP3    H139112   4.489   1.220  14.500 -0.2076  0.0485  0.3122
 5899TIP3    H239113   4.527   1.343  14.580  0.2012  0.3419 -0.3289
 5900TIP3   OH239114   5.735   0.318   3.842 -0.6048  0.8595 -0.6386
 5900TIP3    H139115   5.690   0.376   3.904  1.7468  1.3354  0.7472
 5900TIP3    H239116   5.819   0.300   3.883 -0.9644 -3.1467 -1.2972
 5901TIP3   OH239117   6.242   5.458  14.782  0.4047  0.2280  0.2851
 5901TIP3    H139118   6.170   5.507  14.744 -0.0542  0.0317  0.8783
 5901TIP3    H239119   6.289   5.420  14.707  0.2832  0.8889 -0.1321
 5902TIP3   OH239120   3.189   2.018   4.291 -0.0505 -0.2455  0.3600
 5902TIP3    H139121   3.225   2.100   4.258  0.9490 -0.6201  0.4841
 5902TIP3    H239122   3.261   1.955   4.282 -0.5677 -0.9367  0.9361
 5903TIP3   OH239123   6.181   2.129   3.698  0.2013  0.0776 -0.4704
 5903TIP3    H139124   6.154   2.098   3.784 -0.7834  1.8662 -0.0903
 5903TIP3    H239125   6.277   2.122   3.699  0.1654 -0.4345  0.5563
 5904TIP3   OH239126   0.036   4.551   5.591  0.4176 -0.3787 -0.6454
 5904TIP3    H139127   0.085   4.633   5.581  1.1845 -0.9002 -1.2981
 5904TIP3    H239128  -0.034   4.557   5.526 -0.2920  0.2839  0.1562
 5905TIP3   OH239129   1.227   5.893  14.743 -0.6950  0.7225  0.0875
 5905TIP3    H139130   1.302   5.917  14.689  0.4915 -0.2790  1.2056
 5905TIP3    H239131   1.200   5.807  14.709 -0.8116  0.7126  0.2037
 5906TIP3   OH239132   5.244   6.738   1.896 -0.3210 -0.2475 -0.2438
 5906TIP3    H139133   5.294   6.668   1.938 -1.1029  0.4834  2.0425
 5906TIP3    H239134   5.284   6.818   1.928 -1.9220  0.3469  0.3391
 5907TIP3   OH239135   2.640   0.793  15.577 -0.8763 -0.3286 -0.7653
 5907TIP3    H139136   2.568   0.750  15.623 -0.5672  0.4991  0.5532
 5907TIP3    H239137   2.716   0.780  15.634  0.1945 -1.7058 -2.4222
 5908TIP3   OH239138   4.032   5.570   0.685  0.2995 -0.2555 -0.1876
 5908TIP3    H139139   4.092   5.573   0.759  2.0048  1.1995 -1.5495
 5908TIP3    H239140   3.945   5.569   0.725  1.1635 -1.5218  1.8274
 5909TIP3   OH239141   5.619   2.676  15.863  0.2729  0.3514 -0.0198
 5909TIP3    H139142   5.670   2.611  15.814 -0.9036 -0.6994  0.1117
 5909TIP3    H239143   5.533   2.675  15.822  0.2603  1.9607 -0.0994
 5910TIP3   OH239144   6.367   5.728   3.347 -0.3826  0.2410  0.1739
 5910TIP3    H139145   6.413   5.646   3.329 -0.9731  0.0166 -0.3350
 5910TIP3    H239146   6.374   5.778   3.266  1.9909  1.7106  1.1880
 5911TIP3   OH239147   0.747   2.683   4.133 -0.3482 -0.9794 -0.3875
 5911TIP3    H139148   0.766   2.771   4.100 -0.9267 -1.3736 -1.8714
 5911TIP3    H239149   0.814   2.628   4.093  0.4240 -1.1486  1.0699
 5912TIP3   OH239150   1.748   3.105   1.751 -0.3162 -0.0636  0.1032
 5912TIP3    H139151   1.770   3.024   1.705  1.0390 -0.5339  1.4935
 5912TIP3    H239152   1.653   3.112   1.742 -0.1611 -0.2904 -2.4286
 5913TIP3   OH239153   3.552   5.619  16.000 -0.4107  0.7049  0.0122
 5913TIP3    H139154   3.619   5.550  15.994  0.0915  1.2144 -0.3671
 5913TIP3    H239155   3.480   5.578  16.047  0.0630  0.0590  0.1959
 5914TIP3   OH239156   6.182   0.809  14.770 -0.1789  0.1570  0.6037
 5914TIP3    H139157   6.120   0.882  14.778 -0.5591 -0.3373  2.6337
 5914TIP3    H239158   6.259   0.838  14.818 -0.0581 -0.4955  0.8085
 5915TIP3   OH239159   0.721   1.276  13.898 -0.1894 -0.5480  0.4621
 5915TIP3    H139160   0.631   1.279  13.931 -1.1692 -2.1357 -1.8159
 5915TIP3    H239161   0.730   1.357  13.847  0.0223  0.0592  1.4412
 5916TIP3   OH239162   0.640   4.493  15.715 -0.0210  0.6639  0.0176
 5916TIP3    H139163   0.711   4.526  15.770  1.0721 -0.7757 -0.4733
 5916TIP3    H239164   0.670   4.510  15.625 -1.0332  1.4645 -0.1909
 5917TIP3   OH239165   3.520   5.142  16.515  0.0257 -0.4046  0.0668
 5917TIP3    H139166   3.533   5.074  16.582 -1.3857 -0.3743  0.4047
 5917TIP3    H239167   3.598   5.137  16.460  0.9406 -0.8505  1.3477
 5918TIP3   OH239168   4.444   6.408   2.022  0.1280  0.3414 -0.6470
 5918TIP3    H139169   4.420   6.499   2.038 -1.0124 -0.4733  3.4810
 5918TIP3    H239170   4.512   6.389   2.086 -0.9187 -2.1040 -0.1095
 5919TIP3   OH239171   0.898   5.167  12.241 -0.1685 -0.1251 -0.5907
 5919TIP3    H139172   0.812   5.167  12.199 -0.3380 -2.6466 -0.4394
 5919TIP3    H239173   0.881   5.197  12.330 -0.7502  0.1587 -0.7931
 5920TIP3   OH239174   6.727   1.739   1.293 -0.5221 -0.3149  0.1211
 5920TIP3    H139175   6.820   1.758   1.299 -0.4710 -0.0458 -1.1272
 5920TIP3    H239176   6.720   1.645   1.308 -0.0081 -0.3825 -0.0447
 5921TIP3   OH239177   0.451   2.887   6.201  0.0270 -0.1918  0.5272
 5921TIP3    H139178   0.404   2.837   6.134  0.0558  2.4769 -1.6800
 5921TIP3    H239179   0.541   2.855   6.198 -0.4551 -1.6525  0.9657
 5922TIP3   OH239180   1.727   2.432   0.122 -0.7352  0.9476 -0.0220
 5922TIP3    H139181   1.719   2.337   0.125 -0.0337  0.8813 -0.0864
 5922TIP3    H239182   1.780   2.455   0.199  0.1810  1.1496 -0.6848
 5923TIP3   OH239183   1.200   3.331  14.088  0.2076  0.3592 -0.1922
 5923TIP3    H139184   1.183   3.360  14.177 -2.2676  0.5094 -0.6380
 5923TIP3    H239185   1.204   3.412  14.037 -3.3413  0.2605 -0.9011
 5924TIP3   OH239186   1.739   0.465  17.040 -0.0660 -0.4341  0.0832
 5924TIP3    H139187   1.771   0.503  16.958  1.0004 -1.2055  0.1160
 5924TIP3    H239188   1.761   0.529  17.107  0.8624 -0.6739  0.0174
 5925TIP3   OH239189   6.475   6.190   1.853 -0.2984 -0.3881  0.5354
 5925TIP3    H139190   6.551   6.244   1.874 -2.4176  2.3750  1.7171
 5925TIP3    H239191   6.488   6.165   1.761  1.3419  1.2025  0.2825
 5926TIP3   OH239192   1.306   2.567  16.136 -0.2577  0.7549 -0.3933
 5926TIP3    H139193   1.254   2.520  16.071  1.9540 -2.5307 -0.0579
 5926TIP3    H239194   1.271   2.540  16.220  0.4213  0.4516 -0.1989
 5927TIP3   OH239195   0.387   0.502   5.498  0.2671 -0.3104  0.4433
 5927TIP3    H139196   0.381   0.533   5.589 -0.3661 -0.1011  0.3378
 5927TIP3    H239197   0.347   0.415   5.500  2.0625 -1.1747  0.7440
 5928TIP3   OH239198   2.451   0.452   2.751  0.1103  0.1346 -0.2616
 5928TIP3    H139199   2.471   0.516   2.820  0.0368  0.1379 -0.2430
 5928TIP3    H239200   2.535   0.434   2.710  0.1204  0.2930 -0.3102
 5929TIP3   OH239201   4.841   0.585  13.392 -0.6222 -0.3911 -0.3679
 5929TIP3    H139202   4.784   0.511  13.411 -0.5929 -0.5076 -0.7141
 5929TIP3    H239203   4.873   0.568  13.303  2.6478 -2.1217  0.9383
 5930TIP3   OH239204   6.380   2.983  16.630  0.3232  0.4690  0.1592
 5930TIP3    H139205   6.354   2.969  16.721  1.6074  0.6759  0.5795
 5930TIP3    H239206   6.338   2.912  16.581 -0.9479  0.7710  0.7988
 5931TIP3   OH239207   4.368   2.814  14.005 -0.0026  0.9045  0.0240
 5931TIP3    H139208   4.433   2.764  14.055  0.3100  1.2549 -0.0227
 5931TIP3    H239209   4.390   2.906  14.023 -0.5457  1.0298  0.0832
 5932TIP3   OH239210   1.351   2.924   1.892 -0.1231  0.1131  0.3957
 5932TIP3    H139211   1.300   2.920   1.811 -0.8705 -1.2720  0.8983
 5932TIP3    H239212   1.420   2.859   1.880  0.3932  0.6393  0.4698
 5933TIP3   OH239213   6.284   1.880  14.845  0.2604 -0.7360  0.1051
 5933TIP3    H139214   6.256   1.950  14.904  1.4545  1.1490 -1.4463
 5933TIP3    H239215   6.232   1.892  14.766  1.6944 -0.4256 -0.8425
 5934TIP3   OH239216   1.429   1.124  15.547 -0.0678  0.4355 -0.1580
 5934TIP3    H139217   1.407   1.156  15.634  0.6649  3.8017 -1.0565
 5934TIP3    H239218   1.344   1.100  15.508 -0.4163 -0.9264  1.3183
 5935TIP3   OH239219   4.506   3.912  15.669  0.3111  0.1810  0.2761
 5935TIP3    H139220   4.590   3.876  15.697  0.5847 -0.6183 -1.4918
 5935TIP3    H239221   4.523   4.005  15.654  1.4650 -0.3346 -2.0547
 5936TIP3   OH239222   4.859   3.386   3.878 -0.8249  0.0890  0.9146
 5936TIP3    H139223   4.806   3.335   3.818  0.6418  1.0845 -1.3423
 5936TIP3    H239224   4.912   3.321   3.924  2.6899 -0.6533 -3.4997
 5937TIP3   OH239225   1.972   4.388  15.735 -0.4485 -0.5001  0.2254
 5937TIP3    H139226   1.955   4.448  15.808 -1.1965 -0.1488 -0.2316
 5937TIP3    H239227   1.895   4.330  15.733 -0.8280  0.0168 -0.7939
 5938TIP3   OH239228   5.884   6.781   4.831 -0.7187 -0.1178  0.0537
 5938TIP3    H139229   5.979   6.793   4.831 -0.4693 -1.8958  0.0946
 5938TIP3    H239230   5.858   6.798   4.921 -0.5824  1.1800 -0.1257
 5939TIP3   OH239231   0.612   2.796  17.175 -0.6457 -0.4338  0.0885
 5939TIP3    H139232   0.682   2.756  17.123 -1.8073 -0.2657 -1.6836
 5939TIP3    H239233   0.561   2.846  17.112 -1.9786  0.0070  1.4570
 5940TIP3   OH239234   0.042   2.054  12.712  0.0263  0.0147  0.1225
 5940TIP3    H139235   0.056   1.961  12.691  0.2668  0.4185 -1.6924
 5940TIP3    H239236   0.130   2.090  12.720  0.1327  0.8920 -3.3594
 5941TIP3   OH239237   2.468   1.354   4.873 -0.1517 -1.0721  0.3674
 5941TIP3    H139238   2.557   1.318   4.874  0.5829  0.6124 -0.2573
 5941TIP3    H239239   2.449   1.372   4.965  0.7958 -0.0397  0.3892
 5942TIP3   OH239240   2.009   2.762   3.589 -0.3179  0.6410  0.0019
 5942TIP3    H139241   2.015   2.832   3.654  2.1244  0.1212  0.4203
 5942TIP3    H239242   2.020   2.807   3.505  1.4335  0.7965  0.2781
 5943TIP3   OH239243   3.797   5.614  14.227 -0.2508 -0.0644  0.1725
 5943TIP3    H139244   3.885   5.587  14.201 -0.8419  0.8244 -3.4079
 5943TIP3    H239245   3.808   5.698  14.270  0.6332  0.2996 -0.7403
 5944TIP3   OH239246   0.056   3.754  13.500 -0.3549 -0.2930 -0.2542
 5944TIP3    H139247   0.105   3.704  13.434 -1.0511  0.5545 -1.4633
 5944TIP3    H239248   0.118   3.821  13.529  0.4987 -1.6357  1.1932
 5945TIP3   OH239249   4.787   3.990   3.776  0.4145 -0.1603  0.0763
 5945TIP3    H139250   4.839   3.951   3.706  0.5393  0.2283 -0.0502
 5945TIP3    H239251   4.801   3.932   3.851 -0.4020 -1.0580 -0.4408
 5946TIP3   OH239252   1.094   0.030  11.591  0.2953  0.4350  0.6939
 5946TIP3    H139253   1.166   0.090  11.573 -0.0611  1.1035  1.4445
 5946TIP3    H239254   1.015   0.080  11.572 -0.0338  0.5555  2.2786
 5947TIP3   OH239255   0.266   5.264   0.314  0.1803 -0.2693  0.6108
 5947TIP3    H139256   0.244   5.193   0.254 -0.9170  1.0797 -0.6490
 5947TIP3    H239257   0.270   5.342   0.259  0.2452  0.8383  2.1221
 5948TIP3   OH239258   5.053   3.394   2.960 -0.3939  0.3055 -0.0262
 5948TIP3    H139259   5.148   3.388   2.968 -0.3820  1.4494  0.9481
 5948TIP3    H239260   5.023   3.303   2.970  0.5350  0.0547  0.6650
 5949TIP3   OH239261   2.164   0.703  11.169 -0.1403 -0.0974 -0.0365
 5949TIP3    H139262   2.236   0.722  11.230 -0.6982 -0.2718  0.6958
 5949TIP3    H239263   2.085   0.733  11.215 -0.8411 -2.2234  0.3140
 5950TIP3   OH239264   5.384   1.392   4.067 -0.3363 -0.1422 -0.6644
 5950TIP3    H139265   5.296   1.398   4.103  0.7072 -0.2635  2.1966
 5950TIP3    H239266   5.372   1.359   3.978 -3.1455 -0.0872 -0.3786
 5951TIP3   OH239267   5.399   6.620  12.775  0.2195 -0.2992  0.4629
 5951TIP3    H139268   5.328   6.642  12.835  0.4479 -0.4195  0.7790
 5951TIP3    H239269   5.358   6.620  12.688  0.1952  1.2611  0.4512
 5952TIP3   OH239270   4.013   5.004  11.073  0.4906 -0.3689  0.0825
 5952TIP3    H139271   3.928   4.984  11.034  0.0582 -0.8600  1.2459
 5952TIP3    H239272   4.075   4.949  11.025  0.2749  0.4958 -1.2360
 5953TIP3   OH239273   1.610   1.437   4.301  0.2368 -0.3636 -0.6173
 5953TIP3    H139274   1.675   1.390   4.353  0.4481 -1.0247 -1.4559
 5953TIP3    H239275   1.661   1.480   4.232 -0.1716 -0.5993 -1.0720
 5954TIP3   OH239276   6.055   4.793  11.262 -0.1193 -0.1980  0.5670
 5954TIP3    H139277   6.146   4.781  11.289 -0.4052 -0.3498  1.5040
 5954TIP3    H239278   6.034   4.883  11.290  0.6167  0.9668 -2.3000
 5955TIP3   OH239279   5.137   2.565   5.450 -0.6838 -0.0438  0.6212
 5955TIP3    H139280   5.189   2.578   5.529  0.9428  0.4166 -0.4658
 5955TIP3    H239281   5.083   2.488   5.470  1.1832 -1.2320  1.4887
 5956TIP3   OH239282   3.331   3.014   6.071  0.0300  0.5019 -0.1536
 5956TIP3    H139283   3.265   2.982   6.133 -0.8457  2.3734 -0.0409
 5956TIP3    H239284   3.411   2.968   6.095 -0.8653 -0.6251  0.7733
 5957TIP3   OH239285   3.630   5.841  14.980 -0.1135 -0.7193  0.1154
 5957TIP3    H139286   3.552   5.848  15.036  1.4096  1.8105  2.1430
 5957TIP3    H239287   3.673   5.761  15.009 -1.4089 -1.6486 -0.3940
 5958TIP3   OH239288   5.887   4.807   4.874  0.3192  0.0156 -0.2024
 5958TIP3    H139289   5.890   4.883   4.932 -2.1552  0.6469 -0.8005
 5958TIP3    H239290   5.857   4.736   4.931  1.4602 -0.2691  0.0762
 5959TIP3   OH239291   2.037   5.302   6.119 -0.1857 -0.2859 -0.5802
 5959TIP3    H139292   1.942   5.296   6.124 -0.2171  0.9245  1.2643
 5959TIP3    H239293   2.068   5.274   6.206  1.0798  0.0217 -0.9007
 5960TIP3   OH239294   5.308   0.503  13.768  0.2684 -0.1366  0.3603
 5960TIP3    H139295   5.385   0.559  13.777  0.2015 -0.0506  0.3988
 5960TIP3    H239296   5.311   0.445  13.844 -0.1412  0.4017  0.7931
 5961TIP3   OH239297   0.003   5.971   0.658 -0.1199 -0.1224  0.1355
 5961TIP3    H139298   0.092   5.947   0.682 -0.2213 -1.3663 -0.6119
 5961TIP3    H239299  -0.020   5.911   0.587 -1.4032  0.4519  0.0221
 5962TIP3   OH239300   4.486   0.872  15.588  0.2920 -0.2668  0.3483
 5962TIP3    H139301   4.545   0.850  15.516  0.5762  0.7456  0.2693
 5962TIP3    H239302   4.517   0.820  15.662  1.1552  0.1094  0.2525
 5963TIP3   OH239303   0.032   3.064  11.379  0.0436  0.1332 -0.2019
 5963TIP3    H139304   0.036   3.138  11.319 -0.9388  1.0436  0.7813
 5963TIP3    H239305   0.070   2.991  11.331  2.0827  1.5166 -0.8204
 5964TIP3   OH239306   2.257   4.088  12.729  0.3870 -0.0857  0.1193
 5964TIP3    H139307   2.314   4.072  12.804 -1.0297 -0.8883  1.0758
 5964TIP3    H239308   2.186   4.024  12.738 -0.0084  0.0165 -1.7285
 5965TIP3   OH239309   2.405   6.718   3.558 -0.1329  0.1032 -0.1962
 5965TIP3    H139310   2.491   6.693   3.592 -0.3301  2.2250  2.0915
 5965TIP3    H239311   2.369   6.636   3.523  1.9923 -1.2517  0.5733
 5966TIP3   OH239312   1.285   3.192  15.331 -0.6953 -0.1863  0.4092
 5966TIP3    H139313   1.351   3.125  15.314 -1.5662 -0.8390 -0.4876
 5966TIP3    H239314   1.248   3.212  15.246  0.9203  2.9608  0.2916
 5967TIP3   OH239315   4.923   4.371  15.614 -0.4475 -0.3659 -0.0310
 5967TIP3    H139316   4.985   4.388  15.543 -0.2585 -1.1163 -0.0518
 5967TIP3    H239317   4.837   4.390  15.575 -0.1795  2.6672  0.5771
 5968TIP3   OH239318   1.330   2.200   4.997  0.5588  0.4054  0.0914
 5968TIP3    H139319   1.373   2.162   4.920 -0.7383  3.0035 -2.0952
 5968TIP3    H239320   1.243   2.160   4.997  0.5727  0.3773  0.2345
 5969TIP3   OH239321   0.775   5.422   1.852  0.3639  0.6895  0.1709
 5969TIP3    H139322   0.764   5.486   1.922  1.2250  1.7875 -0.6542
 5969TIP3    H239323   0.870   5.421   1.836  0.1089  1.1748 -1.5786
 5970TIP3   OH239324   6.432   3.417   2.506 -0.0953 -0.2640  0.2383
 5970TIP3    H139325   6.515   3.369   2.509  0.7055  1.0136 -0.2342
 5970TIP3    H239326   6.459   3.509   2.504 -1.5513  0.1927  0.5786
 5971TIP3   OH239327   2.816   6.721   6.135  0.5239 -0.6513  0.2480
 5971TIP3    H139328   2.731   6.693   6.101  0.5181  0.7227 -0.9058
 5971TIP3    H239329   2.823   6.676   6.220 -0.6440 -2.0108 -0.3292
 5972TIP3   OH239330   2.590   3.084  12.647  0.0124  0.8585 -0.2152
 5972TIP3    H139331   2.640   3.108  12.569 -0.6238  0.3902 -0.7814
 5972TIP3    H239332   2.521   3.026  12.614  1.6825 -2.1344  1.1099
 5973TIP3   OH239333   5.919   0.145  11.210  0.1059  0.7062  0.1097
 5973TIP3    H139334   5.944   0.203  11.138  1.9750  0.1273  0.2471
 5973TIP3    H239335   5.974   0.172  11.283  0.7095 -0.9270  0.3051
 5974TIP3   OH239336   4.294   5.887   4.498 -0.7163 -0.2977  0.9316
 5974TIP3    H139337   4.216   5.934   4.468 -0.6965 -0.9236 -0.1738
 5974TIP3    H239338   4.367   5.944   4.474 -0.7324 -0.5699  0.2106
 5975TIP3   OH239339   0.722   2.786   3.090  0.0068 -0.5029 -0.4560
 5975TIP3    H139340   0.747   2.699   3.060  0.2802 -0.5091 -0.2082
 5975TIP3    H239341   0.691   2.773   3.180  2.7107  0.0496  0.6494
 5976TIP3   OH239342   3.338   2.270   1.256  0.1010  0.4932 -0.5973
 5976TIP3    H139343   3.423   2.239   1.223  0.3780  1.9034 -1.2812
 5976TIP3    H239344   3.286   2.190   1.267  2.1112 -0.6269  1.6891
 5977TIP3   OH239345   5.621   3.895   1.415 -0.3960  0.1326 -0.3475
 5977TIP3    H139346   5.652   3.974   1.371 -0.3474 -0.0797 -0.6978
 5977TIP3    H239347   5.546   3.925   1.466  0.0165  0.5333  0.0429
 5978TIP3   OH239348   3.007   5.180  15.886 -0.1200  0.1196  0.0448
 5978TIP3    H139349   3.091   5.220  15.865  0.1160 -1.1634 -1.7058
 5978TIP3    H239350   3.002   5.103  15.829 -1.7598 -0.7752  1.2975
 5979TIP3   OH239351   2.294   1.623  15.180 -0.0314 -0.2239 -0.1008
 5979TIP3    H139352   2.361   1.599  15.243  1.4896 -1.2409 -2.0022
 5979TIP3    H239353   2.226   1.557  15.190  1.8795 -2.6701 -1.9078
 5980TIP3   OH239354   3.485   4.582   2.683  0.1087 -0.5462  0.1482
 5980TIP3    H139355   3.403   4.578   2.635 -2.1370  2.5541  3.1636
 5980TIP3    H239356   3.551   4.604   2.617 -2.3118  1.2990 -1.8518
 5981TIP3   OH239357   5.739   3.417  13.297 -0.2034  0.3382  0.1753
 5981TIP3    H139358   5.666   3.453  13.246  0.4264  1.3470 -0.0591
 5981TIP3    H239359   5.808   3.400  13.232 -0.1279 -0.3408  0.4271
 5982TIP3   OH239360   0.529   1.727   3.008 -0.2586 -0.2717 -0.2402
 5982TIP3    H139361   0.578   1.721   2.926 -0.6932 -0.8295 -0.4725
 5982TIP3    H239362   0.475   1.805   2.998  0.4585  0.2538 -0.0475
 5983TIP3   OH239363   4.347   6.100   0.770 -0.3615 -0.1337  0.4965
 5983TIP3    H139364   4.264   6.121   0.728  0.4264 -1.6315 -2.0389
 5983TIP3    H239365   4.390   6.185   0.783 -1.5091  0.5254  0.1010
 5984TIP3   OH239366   5.365   3.357   5.317  0.0758  1.1601  0.4762
 5984TIP3    H139367   5.449   3.371   5.272  0.6231  0.4567  1.2417
 5984TIP3    H239368   5.349   3.263   5.307 -1.9125  1.6668 -1.8445
 5985TIP3   OH239369   0.694   4.059  16.630  0.1206 -0.2554 -0.3684
 5985TIP3    H139370   0.709   4.153  16.631 -0.6277 -0.1329  0.2548
 5985TIP3    H239371   0.636   4.043  16.704  0.9917 -1.3325  0.1250
 5986TIP3   OH239372   6.375   2.539  15.574 -0.0575  0.4878  0.0888
 5986TIP3    H139373   6.465   2.545  15.541  0.5312 -1.2700  1.1849
 5986TIP3    H239374   6.352   2.628  15.598  1.6169  0.9042  0.2918
 5987TIP3   OH239375   4.070   6.251   5.522 -0.1052 -0.5275 -0.3570
 5987TIP3    H139376   4.082   6.346   5.531  2.7019 -0.6163 -1.9584
 5987TIP3    H239377   4.066   6.236   5.428  1.2638 -2.1269 -0.2088
 5988TIP3   OH239378   4.115   1.680   2.599  0.0989 -0.1518  0.4854
 5988TIP3    H139379   4.030   1.720   2.618 -0.0212 -0.3176  0.3085
 5988TIP3    H239380   4.153   1.737   2.532 -1.4800 -2.0428 -2.2591
 5989TIP3   OH239381   0.942   5.233   4.656 -0.0412 -0.0577 -0.1801
 5989TIP3    H139382   0.850   5.219   4.678 -0.1729 -1.3802 -1.4508
 5989TIP3    H239383   0.968   5.308   4.709 -2.7108  2.4281 -2.0642
 5990TIP3   OH239384   4.555   4.315  13.866 -0.2027  0.1400 -0.2733
 5990TIP3    H139385   4.571   4.373  13.791 -1.1898  0.9424  0.1130
 5990TIP3    H239386   4.635   4.322  13.919 -0.7368  2.1249  0.3742
 5991TIP3   OH239387   5.408   3.586  14.431  0.0083 -0.1698  0.0578
 5991TIP3    H139388   5.410   3.679  14.454  2.1049  0.0887 -0.9087
 5991TIP3    H239389   5.350   3.581  14.355 -2.3443 -0.1564  1.7261
 5992TIP3   OH239390   0.880   1.827   4.186 -0.4516  0.4573 -0.2337
 5992TIP3    H139391   0.858   1.914   4.218  0.3158 -0.0146  1.7229
 5992TIP3    H239392   0.974   1.819   4.198 -0.3779 -0.3516 -1.1829
 5993TIP3   OH239393   0.637   6.609   0.204 -0.0080  0.3358 -0.3717
 5993TIP3    H139394   0.643   6.638   0.295  0.5736  0.1840 -0.3555
 5993TIP3    H239395   0.726   6.581   0.182  0.4861  2.8092 -1.8191
 5994TIP3   OH239396   0.379   4.400  14.723  0.2059 -0.1286  0.6410
 5994TIP3    H139397   0.474   4.413  14.718  0.5714 -2.2952  0.9114
 5994TIP3    H239398   0.363   4.321  14.672 -1.7042  0.9829 -0.6175
 5995TIP3   OH239399   6.053   2.980   2.333 -0.2109  0.9185 -0.5927
 5995TIP3    H139400   6.087   2.995   2.244  1.8309 -0.1923 -0.0695
 5995TIP3    H239401   6.033   2.886   2.336  2.1814  0.3717  0.8131
 5996TIP3   OH239402   0.968   4.640  12.315  0.0762  0.4029 -0.3925
 5996TIP3    H139403   0.990   4.619  12.406 -0.5182  1.5888  0.0418
 5996TIP3    H239404   0.963   4.554  12.271  1.1670 -0.1388  0.4922
 5997TIP3   OH239405   6.510   3.332  11.407 -0.1837 -0.6884 -0.4157
 5997TIP3    H139406   6.561   3.320  11.327 -1.5418  0.1089 -1.4434
 5997TIP3    H239407   6.477   3.421  11.402  0.8111 -0.1140  1.7364
 5998TIP3   OH239408   0.509   3.620   5.664  0.4673  0.4224  0.6039
 5998TIP3    H139409   0.435   3.654   5.614 -0.2722 -1.0518  0.6232
 5998TIP3    H239410   0.536   3.693   5.720 -0.3906  1.2685 -0.0516
 5999TIP3   OH239411   0.046   6.743  16.273 -0.0407 -0.8529  0.4625
 5999TIP3    H139412   0.022   6.820  16.324 -0.7393 -0.9519  0.2850
 5999TIP3    H239413   0.103   6.777  16.204  1.7189 -0.8402  1.8298
 6000TIP3   OH239414   1.293   3.487  10.544  0.0930 -0.0450  0.4095
 6000TIP3    H139415   1.286   3.404  10.591  1.6225 -0.8312 -0.6544
 6000TIP3    H239416   1.211   3.495  10.496  0.0873 -1.1587  0.2120
 6001TIP3   OH239417   6.225   0.207   3.712 -0.1280  0.0546 -0.2748
 6001TIP3    H139418   6.159   0.220   3.645 -0.4097  1.0377  0.1727
 6001TIP3    H239419   6.199   0.127   3.757 -0.6237  0.0600 -0.5561
 6002TIP3   OH239420   1.649   2.988  12.392 -0.5447 -0.2186  0.0981
 6002TIP3    H139421   1.611   2.906  12.425 -0.9288  0.5007  1.5495
 6002TIP3    H239422   1.574   3.045  12.377 -0.1572  0.8826  2.0540
 6003TIP3   OH239423   0.410   2.723  15.254 -0.7499  0.2180 -0.4264
 6003TIP3    H139424   0.344   2.734  15.323 -0.7658 -0.3425 -0.3478
 6003TIP3    H239425   0.447   2.637  15.271  0.5317  0.8329 -0.0172
 6004TIP3   OH239426   5.999   3.854  12.009 -0.3490 -0.1309 -0.6672
 6004TIP3    H139427   5.975   3.768  12.044  2.7620 -0.4892  0.9901
 6004TIP3    H239428   6.071   3.884  12.065  0.7440  2.1876 -3.0381
 6005TIP3   OH239429   5.157   6.358   1.477  0.3255  0.0070 -0.2613
 6005TIP3    H139430   5.246   6.358   1.443  0.5344 -0.5323  0.2593
 6005TIP3    H239431   5.162   6.412   1.556 -0.3880  2.1671 -1.6066
 6006TIP3   OH239432   0.335   0.842   3.196  0.2437  0.3502 -0.3337
 6006TIP3    H139433   0.410   0.783   3.191  0.2629  0.1904  1.2128
 6006TIP3    H239434   0.351   0.895   3.274 -0.7067  1.1053 -0.6182
 6007TIP3   OH239435   6.768   4.720  15.294  0.1033 -0.3663  0.6897
 6007TIP3    H139436   6.720   4.772  15.229  0.4139  1.1607  1.6216
 6007TIP3    H239437   6.757   4.630  15.266 -0.3191  0.2059 -1.1137
 6008TIP3   OH239438   2.599   4.455  15.662 -0.1100  0.0725  0.8185
 6008TIP3    H139439   2.693   4.437  15.658 -0.5342 -2.1389 -2.2488
 6008TIP3    H239440   2.589   4.539  15.616  0.3057  0.0414  0.6647
 6009TIP3   OH239441   1.537   1.700  15.130  0.1482  0.4261 -0.1554
 6009TIP3    H139442   1.572   1.617  15.098 -2.0057 -1.3162  1.6790
 6009TIP3    H239443   1.462   1.718  15.072  0.8072  1.3295 -0.7596
 6010TIP3   OH239444   4.197   3.360   4.663  0.5197  0.6091  0.0973
 6010TIP3    H139445   4.115   3.399   4.695 -0.0597 -0.2668 -0.2673
 6010TIP3    H239446   4.251   3.435   4.638  0.1573  1.2334  1.1069
 6011TIP3   OH239447   6.341   5.297  11.530  0.1283 -0.0187 -0.0919
 6011TIP3    H139448   6.309   5.310  11.440 -1.7832 -2.3347  0.1451
 6011TIP3    H239449   6.338   5.384  11.569  0.1976  0.9098 -2.0051
 6012TIP3   OH239450   3.985   2.461  17.002 -0.1844  0.3006  0.0989
 6012TIP3    H139451   4.063   2.504  16.968  1.1883 -1.2768  1.1059
 6012TIP3    H239452   3.917   2.479  16.937  2.1947 -2.3971 -3.5088
 6013TIP3   OH239453   2.957   1.139   1.020 -0.1331  0.4356  0.2807
 6013TIP3    H139454   2.924   1.219   0.978 -0.4614  0.0375 -0.2352
 6013TIP3    H239455   3.025   1.107   0.961 -0.1795  0.1930  0.3574
 6014TIP3   OH239456   1.741   3.983  13.570 -0.2185  0.2477  0.1913
 6014TIP3    H139457   1.836   3.989  13.566 -0.0971 -0.9713  0.8504
 6014TIP3    H239458   1.711   4.074  13.564  0.8976  0.5592 -1.7029
 6015TIP3   OH239459   0.500   5.797   6.020 -0.1304 -0.2833 -0.3269
 6015TIP3    H139460   0.443   5.720   6.012  0.4515 -0.7371 -0.1059
 6015TIP3    H239461   0.561   5.775   6.090 -2.0362  1.6708  2.1609
 6016TIP3   OH239462   0.185   1.457  15.666 -0.0374 -0.1709 -0.3838
 6016TIP3    H139463   0.120   1.501  15.720 -3.1640 -2.1282 -2.1924
 6016TIP3    H239464   0.180   1.502  15.581  0.3722 -0.8678 -0.7876
 6017TIP3   OH239465   3.499   0.047  12.226  0.0516 -0.0110  0.2512
 6017TIP3    H139466   3.590   0.073  12.212 -0.3123  0.6537 -1.0497
 6017TIP3    H239467   3.503  -0.015  12.299  1.6861 -0.7865 -0.4280
 6018TIP3   OH239468   6.667   0.650  11.887  0.7840 -0.1985 -0.1191
 6018TIP3    H139469   6.585   0.605  11.867  0.0146 -0.3058  2.8004
 6018TIP3    H239470   6.705   0.672  11.802 -1.0968 -2.2431 -1.5689
 6019TIP3   OH239471   5.472   6.525   5.678 -0.4568  0.6716  0.0955
 6019TIP3    H139472   5.429   6.549   5.760 -1.6531  1.0992 -0.6367
 6019TIP3    H239473   5.495   6.433   5.689 -0.2149  0.8356  1.0665
 6020TIP3   OH239474   4.631   4.597  13.233 -0.5520  0.3981  0.0752
 6020TIP3    H139475   4.588   4.637  13.157 -1.2867 -0.3282  0.0992
 6020TIP3    H239476   4.561   4.585  13.297 -0.2379 -0.3787  0.2859
 6021TIP3   OH239477   3.793   3.599  17.116  0.0556  0.0584 -0.3308
 6021TIP3    H139478   3.818   3.691  17.108 -1.6905  0.5115 -1.1227
 6021TIP3    H239479   3.834   3.570  17.198 -0.1696  1.8149  0.4565
 6022TIP3   OH239480   6.122   0.483   2.977  0.1716  0.2342 -0.1621
 6022TIP3    H139481   6.183   0.465   2.906  1.8472  2.2266  0.6486
 6022TIP3    H239482   6.038   0.501   2.933  0.7037 -0.3509 -1.4695
 6023TIP3   OH239483   5.319   0.003  15.930 -0.2913 -0.5391  0.1015
 6023TIP3    H139484   5.233  -0.024  15.899 -0.4177  0.2976 -0.2996
 6023TIP3    H239485   5.363   0.039  15.853  0.2902 -0.6469  0.3754
 6024TIP3   OH239486   1.235   4.787   1.637 -0.2903 -0.0838 -0.7498
 6024TIP3    H139487   1.316   4.763   1.591 -0.3166  0.4135 -1.0697
 6024TIP3    H239488   1.265   4.830   1.717 -0.2422 -1.3201 -0.0757
 6025TIP3   OH239489   6.084   0.729  13.256  0.1309  0.2092 -0.4597
 6025TIP3    H139490   6.006   0.767  13.216 -1.5611  0.0695  2.4879
 6025TIP3    H239491   6.124   0.800  13.305  2.0892  0.3382 -2.1115
 6026TIP3   OH239492   6.326   2.454   4.427  0.2808  0.4659 -0.7182
 6026TIP3    H139493   6.396   2.514   4.453 -0.2937  0.8291  0.0295
 6026TIP3    H239494   6.285   2.496   4.352  0.0022  0.9148 -0.3144
 6027TIP3   OH239495   0.433   5.773   3.988  0.0283 -0.2302 -0.0398
 6027TIP3    H139496   0.349   5.731   4.006  0.9417 -1.9124  0.4384
 6027TIP3    H239497   0.425   5.803   3.897 -0.6752 -1.3996 -0.3858
 6028TIP3   OH239498   6.007   4.882   0.238 -0.5419  0.2320  0.3769
 6028TIP3    H139499   6.078   4.859   0.179 -1.0405 -0.2576 -0.0478
 6028TIP3    H239500   6.021   4.828   0.315 -1.8693 -1.8527 -0.7256
 6029TIP3   OH239501   4.938   6.499  13.702 -0.3415 -0.3403 -0.1092
 6029TIP3    H139502   5.012   6.550  13.669  0.3227 -2.2095 -1.6601
 6029TIP3    H239503   4.912   6.444  13.628 -0.9843 -2.3054  1.5031
 6030TIP3   OH239504   2.319   4.739  15.864 -0.1702  0.0260 -0.0318
 6030TIP3    H139505   2.376   4.800  15.817 -0.2111  0.1582  0.0906
 6030TIP3    H239506   2.373   4.661  15.877  0.4131  0.6088  1.1964
 6031TIP3   OH239507   5.575   4.331  17.117  0.6104  0.2361  0.1025
 6031TIP3    H139508   5.632   4.407  17.128 -0.2413  0.7105  1.5983
 6031TIP3    H239509   5.624   4.258  17.154  1.2391  0.1371 -0.9026
 6032TIP3   OH239510   1.450   3.633   3.524 -0.0496 -0.2330 -0.4520
 6032TIP3    H139511   1.428   3.615   3.615 -0.7387  0.4493 -0.4635
 6032TIP3    H239512   1.443   3.549   3.480 -1.1503 -0.3266 -0.1365
 6033TIP3   OH239513   3.579   5.560   2.262 -0.8743 -0.2803  0.9572
 6033TIP3    H139514   3.500   5.548   2.208  0.5549 -1.7085 -0.9568
 6033TIP3    H239515   3.590   5.654   2.269 -1.9615 -0.0692  0.0638
 6034TIP3   OH239516   3.322   1.379  16.469  0.3362 -0.3767  0.0248
 6034TIP3    H139517   3.344   1.292  16.436 -0.2202 -0.3013 -0.5752
 6034TIP3    H239518   3.296   1.428  16.391  2.2879  0.8612  0.1061
 6035TIP3   OH239519   0.980   3.601  14.830  0.1397  0.4162  0.0181
 6035TIP3    H139520   0.977   3.618  14.924  2.6043  0.8766  0.0637
 6035TIP3    H239521   0.937   3.516  14.820  0.4153  0.0575  1.6349
 6036TIP3   OH239522   4.195   0.142  14.466  0.1876  0.4227 -1.0622
 6036TIP3    H139523   4.106   0.177  14.468 -0.2125 -0.5444  1.0348
 6036TIP3    H239524   4.250   0.215  14.492 -0.1528  0.6723 -1.0343
 6037TIP3   OH239525   0.535   0.386   3.198  0.0914  0.1427 -0.0794
 6037TIP3    H139526   0.569   0.473   3.220 -0.2415  0.0359  0.9430
 6037TIP3    H239527   0.562   0.331   3.272 -2.3220  0.0713  0.8605
 6038TIP3   OH239528   6.693   3.814   1.968  0.2524 -0.1182  0.0267
 6038TIP3    H139529   6.611   3.860   1.949  1.2228  1.0002 -1.7597
 6038TIP3    H239530   6.681   3.727   1.929  0.0821  0.2124 -0.6754
 6039TIP3   OH239531   5.679   1.585  16.080  0.0862 -0.1923 -0.2404
 6039TIP3    H139532   5.598   1.631  16.103  0.3545 -0.2251  0.8212
 6039TIP3    H239533   5.749   1.644  16.106  0.4081 -0.4818 -0.4427
 6040TIP3   OH239534   5.709   1.879   2.512 -0.0681 -0.7694 -0.2354
 6040TIP3    H139535   5.628   1.892   2.462 -0.6157 -0.6318  0.6467
 6040TIP3    H239536   5.736   1.790   2.491 -0.1997 -0.6532 -0.8986
 6041TIP3   OH239537   1.476   2.157  11.884  0.2255  0.1365  0.2523
 6041TIP3    H139538   1.558   2.153  11.933 -0.4060  1.2035  1.4633
 6041TIP3    H239539   1.447   2.248  11.893 -2.0316 -0.5962  1.5073
 6042TIP3   OH239540   4.670   6.352   5.266 -0.2356  0.3626 -0.1938
 6042TIP3    H139541   4.698   6.443   5.272  0.3921  0.5619 -3.8618
 6042TIP3    H239542   4.574   6.357   5.263 -0.2937  0.6792  1.4450
 6043TIP3   OH239543   1.027   5.587   3.302  0.5506  0.5091  0.0917
 6043TIP3    H139544   1.016   5.676   3.270  1.1066  0.7034  0.4271
 6043TIP3    H239545   1.019   5.594   3.397  1.8480  0.4142  0.2277
 6044TIP3   OH239546   2.398   4.242   1.491 -0.0127  0.4121  0.3737
 6044TIP3    H139547   2.449   4.165   1.468  2.8108  1.0525  3.6254
 6044TIP3    H239548   2.456   4.316   1.472 -0.5342  1.3447  2.1434
 6045TIP3   OH239549   0.965   4.257  11.077 -0.6342 -0.0646 -0.1412
 6045TIP3    H139550   1.045   4.291  11.037 -0.0338 -2.1118 -0.8298
 6045TIP3    H239551   0.971   4.162  11.065 -2.2779 -0.4263  1.4929
 6046TIP3   OH239552   6.333   4.498  15.866 -0.5823  0.1956 -0.2112
 6046TIP3    H139553   6.352   4.464  15.953 -0.7534  0.5189 -0.0423
 6046TIP3    H239554   6.375   4.437  15.805 -0.8346 -0.2734  0.0828
 6047TIP3   OH239555   3.939   3.820   2.558  0.1832  0.3368 -0.1085
 6047TIP3    H139556   3.867   3.781   2.607 -0.1309  1.2586  0.2000
 6047TIP3    H239557   3.905   3.906   2.531  0.4509 -0.0263 -1.6930
 6048TIP3   OH239558   6.029   2.644  16.762  0.0472 -0.2363 -0.0498
 6048TIP3    H139559   6.120   2.641  16.791 -0.3846  1.0388  1.5564
 6048TIP3    H239560   5.994   2.558  16.786  0.4245 -0.1740  0.7551
 6049TIP3   OH239561   5.533   4.377  14.134  0.0014  0.0223  0.0676
 6049TIP3    H139562   5.452   4.389  14.183  1.6649 -0.6436  3.2500
 6049TIP3    H239563   5.515   4.303  14.075 -1.9694  0.5651 -0.0789
 6050TIP3   OH239564   1.291   3.344  12.239 -0.1886  0.4096  0.6446
 6050TIP3    H139565   1.265   3.427  12.200  2.3864  1.4681  0.9539
 6050TIP3    H239566   1.248   3.343  12.324  1.0170  2.2843  1.3391
 6051TIP3   OH239567   3.634   1.123  14.156 -0.7636  0.1393  0.4952
 6051TIP3    H139568   3.716   1.097  14.198 -1.1954 -0.3741  1.0318
 6051TIP3    H239569   3.566   1.085  14.211 -1.3929  1.3838  0.6214
 6052TIP3   OH239570   5.441   3.126   4.741  0.0110  0.5411 -0.8416
 6052TIP3    H139571   5.455   3.213   4.704 -0.9720  1.7371  1.3850
 6052TIP3    H239572   5.347   3.110   4.732  0.0167  0.1727 -0.3177
 6053TIP3   OH239573   1.853   3.668  13.909  0.0790  0.0767  0.7952
 6053TIP3    H139574   1.852   3.731  13.980  1.1099 -1.3036  2.1032
 6053TIP3    H239575   1.938   3.623  13.917 -0.1365 -0.7104 -0.7760
 6054TIP3   OH239576   2.637   4.922  14.840 -0.0424  0.3475 -0.2286
 6054TIP3    H139577   2.704   4.943  14.775 -0.4715  4.9711  0.4736
 6054TIP3    H239578   2.556   4.958  14.802 -1.2148 -0.9067  0.9736
 6055TIP3   OH239579   0.009   2.644   1.853  0.4140 -0.0033  0.5028
 6055TIP3    H139580  -0.013   2.646   1.760  1.3712  0.5470  0.2789
 6055TIP3    H239581  -0.066   2.684   1.897  0.0033 -0.1805 -0.0351
 6056TIP3   OH239582   1.912   4.608  13.080 -0.7135 -0.3848 -0.6254
 6056TIP3    H139583   1.970   4.561  13.140 -2.0743 -0.1590  0.9384
 6056TIP3    H239584   1.956   4.691  13.064  0.7643 -1.3584 -1.8229
 6057TIP3   OH239585   3.977   4.538   0.196  0.5009  0.5631  0.3536
 6057TIP3    H139586   3.957   4.586   0.115  2.2030 -2.4216 -2.0843
 6057TIP3    H239587   4.051   4.585   0.234  0.3669  1.4240 -0.4119
 6058TIP3   OH239588   5.094   0.343  15.031 -1.0794  0.2940 -0.1360
 6058TIP3    H139589   5.185   0.328  15.005 -1.6018 -3.9650 -0.1920
 6058TIP3    H239590   5.043   0.317  14.955 -2.4176  1.5122  0.3027
 6059TIP3   OH239591   4.550   2.145  14.792 -0.2481 -0.2433  0.2801
 6059TIP3    H139592   4.523   2.212  14.855  1.1303 -0.2637  0.9246
 6059TIP3    H239593   4.638   2.119  14.821  0.0918 -0.8159 -1.1940
 6060TIP3   OH239594   1.554   1.177  11.585 -0.2191  0.2462 -0.9464
 6060TIP3    H139595   1.634   1.158  11.537  1.4491  0.7149  1.4386
 6060TIP3    H239596   1.530   1.266  11.558 -0.1539 -0.0233 -1.9237
 6061TIP3   OH239597   5.348   3.836   4.831 -0.3980 -1.0054  0.3043
 6061TIP3    H139598   5.420   3.892   4.859 -2.3378  1.0370  1.6081
 6061TIP3    H239599   5.360   3.755   4.881  1.7300 -1.3294 -0.6187
 6062TIP3   OH239600   3.690   2.607   4.122  0.1168  0.3386 -0.1890
 6062TIP3    H139601   3.728   2.583   4.038  1.1046  0.7979  0.1109
 6062TIP3    H239602   3.613   2.659   4.100 -0.0725 -0.1851 -0.8044
 6063TIP3   OH239603   0.890   4.558   2.350 -0.0296  0.0561  0.6134
 6063TIP3    H139604   0.800   4.589   2.335 -0.2587 -0.5006  0.7770
 6063TIP3    H239605   0.892   4.471   2.309  0.8859  0.6799 -0.6956
 6064TIP3   OH239606   0.106   4.328  16.789 -0.1107 -0.4991  0.6776
 6064TIP3    H139607   0.177   4.305  16.849  0.2462  0.2609  0.5645
 6064TIP3    H239608   0.070   4.244  16.760  0.4144 -0.8844  1.1264
 6065TIP3   OH239609   6.622   5.332   1.034  0.4100 -0.2510  0.5348
 6065TIP3    H139610   6.566   5.409   1.020  0.4512 -0.0345  1.4703
 6065TIP3    H239611   6.702   5.367   1.072  1.7207 -0.4231 -1.8930
 6066TIP3   OH239612   2.664   4.475  15.278  0.0808  0.1018  0.4172
 6066TIP3    H139613   2.725   4.457  15.349  1.3458  1.1466 -0.3600
 6066TIP3    H239614   2.656   4.570  15.276  2.2914  0.3986 -2.5223
 6067TIP3   OH239615   3.779   1.140  14.433  0.1181  0.4416 -0.5557
 6067TIP3    H139616   3.720   1.182  14.495  0.2767 -2.1314  1.5511
 6067TIP3    H239617   3.853   1.110  14.486  1.2017 -0.2409 -2.3369
 6068TIP3   OH239618   4.286   6.686  14.377  0.5262  0.6376 -0.4496
 6068TIP3    H139619   4.237   6.760  14.412 -0.0321 -0.2274  0.6632
 6068TIP3    H239620   4.304   6.710  14.286  0.6535  2.2698 -0.0311
 6069TIP3   OH239621   6.307   2.920   1.658  0.4447 -0.4601 -0.0095
 6069TIP3    H139622   6.358   2.934   1.738  1.5996 -0.3712 -0.7334
 6069TIP3    H239623   6.246   2.993   1.655  0.5456 -0.3462  0.6849
 6070TIP3   OH239624   2.529   1.553   1.587 -0.1038 -0.1808  0.5368
 6070TIP3    H139625   2.466   1.558   1.659  1.2456  1.4822  1.6789
 6070TIP3    H239626   2.565   1.642   1.580  1.4114 -0.8371 -0.7183
 6071TIP3   OH239627   2.493   4.742  12.664  0.8075  0.5414 -0.2154
 6071TIP3    H139628   2.515   4.731  12.757  1.8258  2.7352 -0.1139
 6071TIP3    H239629   2.409   4.698  12.653  0.8062 -0.0100  1.6819
 6072TIP3   OH239630   6.207   1.641   1.699  0.0913  0.1293  0.6848
 6072TIP3    H139631   6.236   1.688   1.621  0.3988 -2.4254 -0.8736
 6072TIP3    H239632   6.112   1.642   1.695  0.1034  0.2727  0.4626
 6073TIP3   OH239633   5.541   3.838  16.122 -0.1834 -0.7796  0.2163
 6073TIP3    H139634   5.548   3.872  16.211 -2.5784 -2.5432  1.2157
 6073TIP3    H239635   5.486   3.901  16.076 -0.5943 -0.8478  0.6080
 6074TIP3   OH239636   1.826   0.592  15.038 -0.5947  0.2360  0.2460
 6074TIP3    H139637   1.845   0.511  14.990 -1.3212  0.9436 -1.3205
 6074TIP3    H239638   1.802   0.563  15.126 -1.6604 -1.3333 -0.5141
 6075TIP3   OH239639   3.361   5.541  16.621 -0.0549  0.1679  0.0797
 6075TIP3    H139640   3.308   5.478  16.670  0.7129 -0.4117  0.1877
 6075TIP3    H239641   3.442   5.494  16.602  0.7540  1.2979  0.6193
 6076TIP3   OH239642   0.041   6.745   4.837 -0.1317 -0.1433  0.4005
 6076TIP3    H139643  -0.026   6.703   4.783 -1.2834  0.4133  1.3457
 6076TIP3    H239644  -0.003   6.764   4.920  1.2590  0.0696  1.1289
 6077TIP3   OH239645   1.555   0.488  11.797 -0.0239 -0.5906  0.3684
 6077TIP3    H139646   1.500   0.498  11.874  1.7675  1.0551  1.5171
 6077TIP3    H239647   1.547   0.571  11.750 -0.9991 -1.5230 -1.2160
 6078TIP3   OH239648   2.241   0.634  15.297 -0.1418  0.3648  0.0926
 6078TIP3    H139649   2.335   0.644  15.310 -0.5713  2.6818  2.4013
 6078TIP3    H239650   2.219   0.695  15.227  0.0019  0.2809 -0.0245
 6079TIP3   OH239651   5.454   2.392   6.388  0.3354  0.3483 -0.2092
 6079TIP3    H139652   5.480   2.445   6.463  0.4552  0.7613 -0.5348
 6079TIP3    H239653   5.363   2.369   6.404  0.8402 -1.0212  0.8951
 6080TIP3   OH239654   3.759   4.773   2.533  0.0954  0.2556 -0.1095
 6080TIP3    H139655   3.814   4.713   2.483 -1.8627 -1.9693  0.2173
 6080TIP3    H239656   3.720   4.831   2.467 -3.2732 -3.2773 -1.6641
 6081TIP3   OH239657   0.888   6.703  17.032 -0.2737  0.1747  0.2438
 6081TIP3    H139658   0.894   6.618  16.990  0.1435  0.2107  0.2265
 6081TIP3    H239659   0.798   6.708  17.064  0.1942 -1.0524  1.8920
 6082TIP3   OH239660   5.356   6.258   5.149 -0.1367  0.1130  0.4611
 6082TIP3    H139661   5.342   6.308   5.229 -1.9231 -0.8690  0.8023
 6082TIP3    H239662   5.406   6.181   5.178 -0.7486 -0.2227  0.6335
 6083TIP3   OH239663   0.733   2.416  11.426 -0.0689 -0.0567 -0.7551
 6083TIP3    H139664   0.770   2.490  11.377 -0.7479 -0.1245 -1.3825
 6083TIP3    H239665   0.718   2.451  11.514  2.5099 -0.3266 -0.1046
 6084TIP3   OH239666   6.626   0.098  10.489 -0.2965 -0.0882  0.7375
 6084TIP3    H139667   6.712   0.124  10.457 -0.1066 -0.3544  1.0283
 6084TIP3    H239668   6.602   0.167  10.552 -1.0852  0.9463 -0.6480
 6085TIP3   OH239669   1.040   2.703  12.143 -1.0099 -0.0088 -0.2472
 6085TIP3    H139670   0.948   2.695  12.170 -0.7917 -0.3621  0.4131
 6085TIP3    H239671   1.065   2.613  12.120 -0.5218 -0.0915  0.5978
 6086TIP3   OH239672   6.590   2.418   5.569 -0.2103 -0.2464  0.0337
 6086TIP3    H139673   6.520   2.413   5.504 -1.2692 -0.0360  1.1130
 6086TIP3    H239674   6.551   2.467   5.641  0.1404 -2.4009  1.7827
 6087TIP3   OH239675   2.765   2.684  12.337  0.0833  0.1671  0.6413
 6087TIP3    H139676   2.733   2.626  12.268  1.4241 -0.1511  0.2687
 6087TIP3    H239677   2.696   2.750  12.346  0.6862  1.3737 -2.4089
 6088TIP3   OH239678   4.453   1.937   1.694 -0.0717 -0.7290 -0.4645
 6088TIP3    H139679   4.423   2.028   1.703  0.5943 -0.5670  0.2668
 6088TIP3    H239680   4.545   1.945   1.667  0.6915 -1.1047  1.7791
 6089TIP3   OH239681   5.120   4.367  16.374 -0.3697  0.1998  0.1132
 6089TIP3    H139682   5.153   4.396  16.289 -0.4113 -0.2512 -0.0575
 6089TIP3    H239683   5.195   4.376  16.433 -0.0867 -0.3082 -0.1583
 6090TIP3   OH239684   4.625   3.612   3.368  0.3848  0.0495 -0.2649
 6090TIP3    H139685   4.639   3.525   3.405  2.3248 -0.4123 -1.8746
 6090TIP3    H239686   4.544   3.643   3.408  1.0817 -1.3233  2.4710
 6091TIP3   OH239687   4.662   2.498   1.440  0.0272  0.2703  0.2086
 6091TIP3    H139688   4.597   2.460   1.498 -0.1863  0.6840  0.2486
 6091TIP3    H239689   4.716   2.553   1.497 -1.3815  2.2581 -0.2288
 6092TIP3   OH239690   2.874   5.747  16.857 -0.0890 -0.0079  0.3129
 6092TIP3    H139691   2.810   5.816  16.875 -0.4486 -0.5670  1.3274
 6092TIP3    H239692   2.958   5.786  16.879 -0.3109  0.0637  1.0980
 6093TIP3   OH239693   2.974   6.582  10.715 -0.1904  0.0267 -0.2512
 6093TIP3    H139694   2.991   6.666  10.672 -0.8084  0.6880  0.7462
 6093TIP3    H239695   3.002   6.516  10.651 -0.7084  0.9702 -1.5038
 6094TIP3   OH239696   1.663   5.078  14.588  0.3654  0.0076 -0.4552
 6094TIP3    H139697   1.598   5.080  14.518  0.1926 -0.1936 -0.3067
 6094TIP3    H239698   1.713   4.998  14.573  0.3038 -0.0556 -0.3313
 6095TIP3   OH239699   2.184   4.804  15.577  0.3185  0.0461 -0.2052
 6095TIP3    H139700   2.131   4.859  15.634 -0.3379 -0.5204 -0.2530
 6095TIP3    H239701   2.272   4.842  15.581 -0.1525  1.1992 -0.3824
 6096TIP3   OH239702   1.840   0.034   0.697  0.5990 -0.6685 -0.2571
 6096TIP3    H139703   1.842   0.109   0.756 -0.3621 -1.3205  0.6455
 6096TIP3    H239704   1.827   0.072   0.610 -0.4564  0.1946  0.2534
 6097TIP3   OH239705   0.482   4.769   1.950  0.0820  0.1774  0.3632
 6097TIP3    H139706   0.467   4.743   1.859 -1.9985  0.9632  0.4315
 6097TIP3    H239707   0.507   4.688   1.994 -0.3041 -0.5014 -0.6263
 6098TIP3   OH239708   2.793   6.284  11.332  0.2548  0.4730 -0.3100
 6098TIP3    H139709   2.778   6.254  11.421 -1.4904 -0.0428 -0.7499
 6098TIP3    H239710   2.883   6.257  11.313 -0.2015 -1.7743  0.4008
 6099TIP3   OH239711   3.857   3.928  12.822  0.2336  0.0778  0.8184
 6099TIP3    H139712   3.874   4.017  12.854  0.4865 -0.6883  2.9325
 6099TIP3    H239713   3.761   3.920  12.824  0.1044  0.7500 -0.7920
 6100TIP3   OH239714   6.779   3.187  12.640 -0.5617  0.3106 -0.1480
 6100TIP3    H139715   6.869   3.186  12.608  0.3141 -0.6017  2.1226
 6100TIP3    H239716   6.750   3.278  12.631  0.6807  0.6661 -0.6416
 6101TIP3   OH239717   5.307   5.787  15.572  0.2785  0.6874  0.0757
 6101TIP3    H139718   5.356   5.804  15.492 -1.0590  0.9198 -0.7090
 6101TIP3    H239719   5.216   5.780  15.544 -0.0093 -1.2637  1.2654
 6102TIP3   OH239720   5.326   5.093   0.263  0.4517  0.0525 -0.0964
 6102TIP3    H139721   5.249   5.130   0.306 -0.4664 -3.0824  1.2359
 6102TIP3    H239722   5.292   5.019   0.212  2.4379 -0.6282 -0.5163
 6103TIP3   OH239723   0.450   5.880  16.923  0.9150 -0.4519  0.1685
 6103TIP3    H139724   0.396   5.819  16.873 -2.4272  0.8869  1.8449
 6103TIP3    H239725   0.446   5.848  17.013  0.6411  1.1602  0.7640
 6104TIP3   OH239726   2.424   0.759  16.508 -0.6035 -0.0334 -0.5717
 6104TIP3    H139727   2.425   0.801  16.422  1.7064 -0.2252 -0.7012
 6104TIP3    H239728   2.504   0.707  16.510 -0.4620  0.1703  1.7910
 6105TIP3   OH239729   2.329   1.421  17.035  0.1617  0.3762 -0.0453
 6105TIP3    H139730   2.389   1.346  17.038 -0.7341 -0.4205 -1.0193
 6105TIP3    H239731   2.242   1.384  17.051 -0.0263  1.6738  2.4773
 6106TIP3   OH239732   6.015   3.622   2.636 -0.2599 -0.1272 -0.2270
 6106TIP3    H139733   6.074   3.601   2.563 -1.0389 -3.5791 -0.0398
 6106TIP3    H239734   5.995   3.537   2.676 -1.3350  1.4514  2.8973
 6107TIP3   OH239735   1.073   5.606   3.566 -0.5695  0.2914  0.1989
 6107TIP3    H139736   1.064   5.531   3.626 -3.3259  1.8289  1.9069
 6107TIP3    H239737   1.104   5.677   3.622 -4.0974  2.0174  0.2092
 6108TIP3   OH239738   5.351   1.334  10.483 -0.5360 -0.1209 -0.2073
 6108TIP3    H139739   5.284   1.295  10.427 -0.9858  0.4353 -0.0673
 6108TIP3    H239740   5.366   1.268  10.551 -1.8881  0.2536  0.4971
 6109TIP3   OH239741   1.387   2.749  14.925  0.1475 -0.0401  0.0422
 6109TIP3    H139742   1.481   2.754  14.945  0.3798  1.0826 -1.1971
 6109TIP3    H239743   1.382   2.763  14.831 -1.2799 -0.1286  0.0860
 6110TIP3   OH239744   2.775   5.414  16.531  0.3511  0.0723 -0.0466
 6110TIP3    H139745   2.818   5.423  16.446  2.1355  0.0406  0.8011
 6110TIP3    H239746   2.733   5.328  16.527  1.2340 -0.3516 -0.5559
 6111TIP3   OH239747   2.248   5.182   4.136 -0.2839  0.4659  0.4939
 6111TIP3    H139748   2.282   5.094   4.151  0.8907  0.6301 -0.9717
 6111TIP3    H239749   2.292   5.236   4.203  0.4555  0.2455  0.1955
 6112TIP3   OH239750   5.825   0.892  12.235  0.0111 -0.0411 -0.0820
 6112TIP3    H139751   5.891   0.823  12.243  0.5851  0.6228  1.2025
 6112TIP3    H239752   5.767   0.878  12.310 -0.6891  0.0448 -0.5974
 6113TIP3   OH239753   4.991   6.284  13.244 -0.0435  0.2265  0.7035
 6113TIP3    H139754   5.065   6.254  13.298  0.0632  0.6668  0.8064
 6113TIP3    H239755   4.979   6.215  13.179 -1.0909 -1.0112  2.1406
 6114TIP3   OH239756   0.321   0.418   2.943 -0.3496  0.3396  0.2515
 6114TIP3    H139757   0.302   0.335   2.986 -0.5141 -0.0545 -0.5628
 6114TIP3    H239758   0.369   0.393   2.864 -1.3941  0.9306 -0.5955
 6115TIP3   OH239759   4.779   6.718   4.704  0.4161  0.0666  0.0383
 6115TIP3    H139760   4.781   6.629   4.741 -0.0398  0.0647  0.0616
 6115TIP3    H239761   4.872   6.740   4.692  0.5371 -1.1003 -1.6213
 6116TIP3   OH239762   1.109   3.233  11.973 -0.2854  0.1972  0.4767
 6116TIP3    H139763   1.195   3.261  11.942  0.7973 -1.4980  1.7842
 6116TIP3    H239764   1.094   3.286  12.051 -0.2331  0.1679  0.5065
 6117TIP3   OH239765   4.463   2.341   2.390  0.3006  0.4153  0.2390
 6117TIP3    H139766   4.398   2.288   2.343  0.6095  0.6042 -0.4073
 6117TIP3    H239767   4.540   2.340   2.334  0.2131  1.8016  0.0535
 6118TIP3   OH239768   3.622   5.383   4.376  0.0907 -0.2558  0.0921
 6118TIP3    H139769   3.713   5.375   4.344 -0.6961 -1.9994 -2.0155
 6118TIP3    H239770   3.597   5.473   4.355  1.3101  0.2338  0.6552
 6119TIP3   OH239771   0.768   0.888   5.919 -0.1074  0.1762  0.0315
 6119TIP3    H139772   0.722   0.867   5.839  0.4230  0.8753 -0.4720
 6119TIP3    H239773   0.832   0.818   5.929 -0.1159  0.1341 -0.2058
 6120TIP3   OH239774   2.727   3.259   1.998  0.4567 -0.3930  0.4972
 6120TIP3    H139775   2.660   3.312   1.955 -1.6729 -2.7381  0.7151
 6120TIP3    H239776   2.753   3.310   2.075 -0.3315  1.0087 -0.1332
 6121TIP3   OH239777   1.433   3.958  13.381  0.6018 -0.1765  0.3448
 6121TIP3    H139778   1.456   3.886  13.439  2.1031  0.0822  0.1171
 6121TIP3    H239779   1.515   4.006  13.369 -0.5374  2.1858  1.3183
 6122TIP3   OH239780   4.777   0.989   5.947  0.3937  0.2332 -0.0521
 6122TIP3    H139781   4.746   0.898   5.949 -0.2538  0.4564  1.3078
 6122TIP3    H239782   4.736   1.029   6.024  1.8441  1.2880  0.1959
 6123TIP3   OH239783   2.069   4.627  11.348  0.0640 -0.1808 -0.0062
 6123TIP3    H139784   2.072   4.550  11.404 -2.0400  0.2411  0.7989
 6123TIP3    H239785   2.158   4.661  11.348  0.9499 -2.3674 -0.0660
 6124TIP3   OH239786   2.664   5.472   0.529  0.0266  0.4265 -0.0672
 6124TIP3    H139787   2.685   5.563   0.505  1.2359  0.2535  0.2774
 6124TIP3    H239788   2.573   5.462   0.503 -0.0667  1.6754 -0.3247
 6125TIP3   OH239789   3.898   1.768   1.495 -0.3367 -0.2896  0.8374
 6125TIP3    H139790   3.894   1.759   1.400 -0.9528  1.5176  0.6538
 6125TIP3    H239791   3.990   1.748   1.516  0.8664  2.9562 -0.6568
 6126TIP3   OH239792   6.210   5.005  11.508 -0.4439  0.2174  0.0106
 6126TIP3    H139793   6.218   5.072  11.440 -0.6401  0.1946 -0.0359
 6126TIP3    H239794   6.255   4.928  11.472 -0.7169  0.1445 -0.1748
 6127TIP3   OH239795   2.166   2.173   1.284  0.0610  0.1212  0.1056
 6127TIP3    H139796   2.193   2.125   1.206 -1.5143  0.3641 -0.6227
 6127TIP3    H239797   2.082   2.212   1.261  0.2462  1.3996  1.4399
 6128TIP3   OH239798   6.185   3.921  16.998  1.0151  0.7225  0.9375
 6128TIP3    H139799   6.207   3.833  17.029 -1.9673 -0.6937 -0.5744
 6128TIP3    H239800   6.122   3.954  17.062  0.0869  0.6158  0.1034
 6129TIP3   OH239801   3.845   1.462   6.035 -0.3757  1.2921  0.4085
 6129TIP3    H139802   3.837   1.557   6.040 -0.7638  1.1869  3.4379
 6129TIP3    H239803   3.755   1.430   6.035 -0.2465  0.8955  1.6014
 6130TIP3   OH239804   6.315   5.143  15.495  0.3572 -0.1961  0.2072
 6130TIP3    H139805   6.315   5.178  15.406 -0.3428 -0.0639  0.2505
 6130TIP3    H239806   6.404   5.158  15.527 -0.0153  1.9448  0.3690
 6131TIP3   OH239807   1.534   0.347   1.525 -0.1269  0.0477  0.2971
 6131TIP3    H139808   1.491   0.295   1.457  0.6096 -2.2300  1.4822
 6131TIP3    H239809   1.506   0.437   1.507 -2.7811 -0.9090 -0.9053
 6132TIP3   OH239810   3.542   0.451   2.114  0.5075  0.4252 -0.8767
 6132TIP3    H139811   3.530   0.528   2.170  1.7642  0.1886 -0.2482
 6132TIP3    H239812   3.516   0.481   2.027  0.4583  1.3987 -0.5470
 6133TIP3   OH239813   5.728   3.176   1.282  0.4704 -0.5003  0.1777
 6133TIP3    H139814   5.720   3.114   1.355  0.4614 -1.2861 -0.4723
 6133TIP3    H239815   5.793   3.240   1.312 -0.9106  0.2857  1.6062
 6134TIP3   OH239816   2.063   5.705  13.285 -0.1134  0.3197 -0.7029
 6134TIP3    H139817   2.030   5.667  13.204  1.7478  0.0437 -1.3719
 6134TIP3    H239818   2.099   5.790  13.260  2.7784 -0.8099 -0.7278
 6135TIP3   OH239819   4.581   0.697  15.776 -0.2058 -0.2884 -0.0730
 6135TIP3    H139820   4.655   0.638  15.761 -0.8083 -0.6879 -1.5536
 6135TIP3    H239821   4.570   0.697  15.872  0.8707 -1.2471  0.0679
 6136TIP3   OH239822   2.752   1.248  15.588 -0.5294  0.2293 -0.0178
 6136TIP3    H139823   2.766   1.339  15.613 -0.2441  0.1902 -0.0288
 6136TIP3    H239824   2.687   1.253  15.517 -1.0955  0.3603  0.5058
 6137TIP3   OH239825   1.716   3.523   1.558 -0.5525 -0.4317 -0.2966
 6137TIP3    H139826   1.731   3.530   1.464 -0.5139 -0.9200 -0.3304
 6137TIP3    H239827   1.782   3.579   1.597 -2.1895  1.8799 -0.6349
 6138TIP3   OH239828   2.086   5.913   0.020 -0.6839 -0.3962 -0.3418
 6138TIP3    H139829   2.051   5.985   0.073 -0.6131 -0.6523  0.0560
 6138TIP3    H239830   2.155   5.875   0.073 -3.0543 -3.0668  1.1197
 6139TIP3   OH239831   2.493   6.373   1.534  0.4149 -0.6584  0.1429
 6139TIP3    H139832   2.417   6.326   1.569  0.4973  0.1999  1.5858
 6139TIP3    H239833   2.460   6.419   1.457 -0.0435 -1.7985 -0.3593
 6140TIP3   OH239834   1.897   0.584  11.454 -0.3404 -0.0660  0.4983
 6140TIP3    H139835   1.950   0.506  11.469  2.1414  1.8048  2.2650
 6140TIP3    H239836   1.879   0.619  11.541 -0.7456  1.7415 -0.2608
 6141TIP3   OH239837   1.503   6.309   5.402 -0.3824 -0.0868  0.5177
 6141TIP3    H139838   1.426   6.299   5.457 -1.2241  0.7586 -0.4633
 6141TIP3    H239839   1.567   6.355   5.457 -0.7889 -0.2637  1.1446
 6142TIP3   OH239840   2.320   2.961   5.325 -0.0166 -0.0029 -0.3241
 6142TIP3    H139841   2.338   3.043   5.372  1.8692 -0.8654  0.5463
 6142TIP3    H239842   2.406   2.925   5.306 -0.7456 -0.6004 -2.9301
 6143TIP3   OH239843   2.495   6.101   2.909 -0.0091  0.0539 -0.2686
 6143TIP3    H139844   2.565   6.086   2.845  1.1601  0.2387  0.9104
 6143TIP3    H239845   2.538   6.087   2.994 -1.4120  0.2123  0.4879
 6144TIP3   OH239846   5.300   5.086  10.682  0.4120  0.3212 -0.5375
 6144TIP3    H139847   5.251   5.026  10.737 -0.9934  0.4562 -1.5932
 6144TIP3    H239848   5.362   5.129  10.741  0.7430 -1.4011  0.4230
 6145TIP3   OH239849   0.580   4.710   1.091  0.0921  0.2317 -0.0658
 6145TIP3    H139850   0.598   4.799   1.124 -0.5472  0.6311 -0.7643
 6145TIP3    H239851   0.517   4.723   1.020 -1.7138 -0.9828  1.2328
 6146TIP3   OH239852   5.157   2.657   3.132  0.1634  0.3013 -0.0776
 6146TIP3    H139853   5.100   2.630   3.204 -0.1888 -0.1243 -0.5070
 6146TIP3    H239854   5.101   2.651   3.054  1.0743 -1.1481 -0.6609
 6147TIP3   OH239855   0.630   1.423  16.579 -0.2600  0.1680  0.5186
 6147TIP3    H139856   0.666   1.409  16.491 -0.0020  0.1375  0.6309
 6147TIP3    H239857   0.667   1.506  16.607 -0.6510  0.3690  0.4438
 6148TIP3   OH239858   0.758   1.577  13.636 -0.2559 -0.6880 -0.1014
 6148TIP3    H139859   0.679   1.602  13.684 -0.6464 -1.0046 -0.5665
 6148TIP3    H239860   0.726   1.518  13.568 -0.1135  1.5851 -2.3157
 6149TIP3   OH239861   6.238   6.109   1.927 -0.0429 -0.4351 -0.1350
 6149TIP3    H139862   6.311   6.163   1.896 -0.2135 -0.7102 -1.0412
 6149TIP3    H239863   6.172   6.173   1.954  1.2243 -0.1285  2.5459
 6150TIP3   OH239864   3.285   1.355   4.732  0.4925  0.1766 -0.2564
 6150TIP3    H139865   3.246   1.418   4.793  0.8862 -1.0465  1.3089
 6150TIP3    H239866   3.352   1.406   4.685 -0.1202  1.2460 -0.0164
 6151TIP3   OH239867   2.940   3.223   2.530  0.3224 -0.1297 -0.7647
 6151TIP3    H139868   3.011   3.228   2.465  0.8027 -2.5889 -0.5225
 6151TIP3    H239869   2.985   3.200   2.611 -0.5359  0.5680 -0.0812
 6152TIP3   OH239870   4.089   4.883  14.289  0.3031 -0.2544 -0.4276
 6152TIP3    H139871   3.997   4.864  14.270  0.3388 -0.5013 -0.3579
 6152TIP3    H239872   4.125   4.915  14.206  0.5974 -1.8417 -0.9432
 6153TIP3   OH239873   0.012   2.401   5.099 -0.1735  0.4487  0.2744
 6153TIP3    H139874   0.022   2.479   5.152  0.0937  1.5324 -1.2925
 6153TIP3    H239875  -0.072   2.412   5.055 -0.5038 -0.5396  0.6219
 6154TIP3   OH239876   5.261   6.226   0.031 -0.1714 -0.4686  0.2198
 6154TIP3    H139877   5.227   6.180   0.107  2.3162 -0.4483  1.4451
 6154TIP3    H239878   5.339   6.176   0.005 -0.3100  0.1718 -1.6121
 6155TIP3   OH239879   5.118   6.373  17.107  0.5334  0.2068  0.1306
 6155TIP3    H139880   5.030   6.341  17.129  0.0369 -0.4154 -2.5024
 6155TIP3    H239881   5.175   6.331  17.172 -1.0806  0.9067  2.1344
 6156TIP3   OH239882   2.135   0.094   1.337  0.7394 -0.5215  0.9648
 6156TIP3    H139883   2.221   0.055   1.354  0.4528 -0.9970  1.3264
 6156TIP3    H239884   2.073   0.025   1.356  0.2431 -0.0009  1.2704
 6157TIP3   OH239885   3.345   2.700   5.174  0.4440  0.9664 -0.2046
 6157TIP3    H139886   3.377   2.610   5.185  0.4421  0.8473 -1.0779
 6157TIP3    H239887   3.388   2.731   5.094  2.7811  2.8191  1.6430
 6158TIP3   OH239888   6.185   1.463  12.582 -0.1328  1.1307 -0.2627
 6158TIP3    H139889   6.243   1.537  12.599 -0.8415  2.1043 -1.8528
 6158TIP3    H239890   6.118   1.468  12.651  1.0834  0.5403  1.0237
 6159TIP3   OH239891   4.040   6.706   4.448 -0.7906 -0.4136 -0.5245
 6159TIP3    H139892   4.115   6.682   4.392 -2.0730 -2.2425 -1.5531
 6159TIP3    H239893   4.076   6.771   4.509  2.0234 -2.2833 -0.0095
 6160TIP3   OH239894   4.208   5.173  13.727  0.4775 -0.3246  0.2433
 6160TIP3    H139895   4.278   5.236  13.706  0.1615  0.5246  1.6351
 6160TIP3    H239896   4.249   5.109  13.785  0.2496 -0.1516  0.5984
 6161TIP3   OH239897   1.720   5.508   0.963  0.6188 -0.5324  0.0582
 6161TIP3    H139898   1.737   5.474   1.051  1.2981  0.6410  0.4064
 6161TIP3    H239899   1.806   5.534   0.931  0.2649 -0.1664 -0.6148
 6162TIP3   OH239900   0.421   5.141   1.915 -0.1552  0.1804  0.6646
 6162TIP3    H139901   0.338   5.098   1.938 -0.8424  0.3454 -1.3367
 6162TIP3    H239902   0.448   5.099   1.834  1.1392  0.9455  0.6718
 6163TIP3   OH239903   6.231   4.089  14.077  0.2124 -0.1012  0.3686
 6163TIP3    H139904   6.291   4.058  14.009  0.3139  0.7852  0.0392
 6163TIP3    H239905   6.146   4.053  14.052  0.4347 -0.6116  0.3327
 6164TIP3   OH239906   6.707   6.640   2.121  0.1660 -0.0498  0.4824
 6164TIP3    H139907   6.623   6.685   2.127 -0.5657 -1.4135  1.0269
 6164TIP3    H239908   6.700   6.569   2.184  2.0246  0.2382  1.0717
 6165TIP3   OH239909   3.156   4.581   1.225  0.3038  0.1211 -0.6681
 6165TIP3    H139910   3.161   4.537   1.310 -3.4106 -0.9363 -0.8036
 6165TIP3    H239911   3.171   4.512   1.161  0.5124  0.3583 -0.8747
 6166TIP3   OH239912   3.650   5.390   1.481 -0.1880  0.2062 -0.6085
 6166TIP3    H139913   3.589   5.451   1.523  1.9659  1.8220  0.4114
 6166TIP3    H239914   3.622   5.386   1.390 -2.3909  0.0447  0.0208
 6167TIP3   OH239915   3.721   2.842  13.869 -0.0910  0.4041  0.4590
 6167TIP3    H139916   3.676   2.759  13.883  0.0229  0.0433 -1.1190
 6167TIP3    H239917   3.786   2.823  13.801 -1.1729  2.1314 -1.1674
 6168TIP3   OH239918   1.683   0.225  16.269 -0.1322 -0.0871 -0.0316
 6168TIP3    H139919   1.599   0.211  16.313  1.0131 -0.8068  2.0756
 6168TIP3    H239920   1.709   0.314  16.293 -0.5027  0.3366 -1.1279
 6169TIP3   OH239921   4.504   5.775  14.345 -0.2114  0.3011  0.5930
 6169TIP3    H139922   4.451   5.729  14.411  1.3623 -0.6835  1.2283
 6169TIP3    H239923   4.509   5.865  14.377 -3.7510  1.2067 -0.9255
 6170TIP3   OH239924   0.749   1.013   3.866 -0.5201  0.5015 -0.2130
 6170TIP3    H139925   0.788   1.083   3.813 -1.0673 -0.0403 -1.3582
 6170TIP3    H239926   0.820   0.986   3.925  0.4515  0.3942 -1.3836
 6171TIP3   OH239927   4.294   1.875   0.722  0.4207 -0.2592 -0.4114
 6171TIP3    H139928   4.337   1.806   0.774  0.2453 -0.8217 -1.0059
 6171TIP3    H239929   4.356   1.894   0.652  1.2843  1.5005  0.7770
 6172TIP3   OH239930   5.919   2.377  10.943 -0.1627  0.6001 -0.0950
 6172TIP3    H139931   5.938   2.327  11.022 -0.4352  0.1765 -0.2941
 6172TIP3    H239932   5.874   2.315  10.885  0.1299  0.8728 -0.6243
 6173TIP3   OH239933   6.380   1.234   4.293 -0.4509  0.7617 -0.4041
 6173TIP3    H139934   6.349   1.324   4.283  1.2210  1.4479  0.3878
 6173TIP3    H239935   6.331   1.200   4.368 -0.0625  1.4820  0.1773
 6174TIP3   OH239936   5.047   3.835   3.321 -0.2035 -0.1614  0.3267
 6174TIP3    H139937   5.129   3.883   3.321 -0.7106  0.7978  1.9009
 6174TIP3    H239938   4.995   3.877   3.390 -1.8359 -1.0282 -0.3195
 6175TIP3   OH239939   6.538   4.510   5.476 -0.4917 -0.4952 -0.3725
 6175TIP3    H139940   6.480   4.555   5.415 -1.3427 -1.6091 -0.4322
 6175TIP3    H239941   6.505   4.535   5.563  0.9501  1.3878 -0.2986
 6176TIP3   OH239942   5.652   3.046   5.280 -0.3018 -0.3256  0.3887
 6176TIP3    H139943   5.617   2.977   5.224  0.5102 -1.8240  1.6482
 6176TIP3    H239944   5.590   3.052   5.352 -0.8774  0.9805 -0.1760
 6177TIP3   OH239945   2.695   1.811  16.168 -0.1031  0.3568  0.3269
 6177TIP3    H139946   2.757   1.871  16.128  1.4185 -1.6856 -0.5870
 6177TIP3    H239947   2.637   1.784  16.097 -2.5847  2.6885  1.2842
 6178TIP3   OH239948   0.955   4.794   4.593 -0.1984 -0.0067 -0.1435
 6178TIP3    H139949   1.017   4.768   4.661  2.0752 -0.3977 -2.2313
 6178TIP3    H239950   0.986   4.880   4.564 -0.4895 -0.2899 -1.3590
 6179TIP3   OH239951   2.979   2.305   1.145 -0.0924  0.1521 -0.2931
 6179TIP3    H139952   3.062   2.342   1.117  1.4053 -0.6132  2.7697
 6179TIP3    H239953   2.981   2.214   1.114 -0.3624  0.4623 -1.2514
 6180TIP3   OH239954   4.519   5.289  13.422  0.1922  0.1302 -0.5449
 6180TIP3    H139955   4.442   5.284  13.479  0.4343  0.3886 -0.1863
 6180TIP3    H239956   4.588   5.248  13.473  0.9265  2.2010  0.2478
 6181TIP3   OH239957   1.365   2.362   5.960  0.1436  0.4662  0.0328
 6181TIP3    H139958   1.410   2.350   5.876  0.3028  1.0826  0.0293
 6181TIP3    H239959   1.277   2.328   5.946  0.0523  0.9267 -0.4960
 6182TIP3   OH239960   1.177   5.449  12.925 -0.0314  0.4292 -0.2166
 6182TIP3    H139961   1.100   5.411  12.882  0.4384  1.6274 -2.2600
 6182TIP3    H239962   1.243   5.453  12.856  1.2830  1.0981  1.0258
 6183TIP3   OH239963   0.661   6.716   1.588 -0.0120  0.0717  0.1140
 6183TIP3    H139964   0.724   6.688   1.521 -0.4491 -0.6957  0.0084
 6183TIP3    H239965   0.581   6.734   1.540  0.1442  1.1329  0.2395
 6184TIP3   OH239966   0.716   6.665  14.984 -0.1469  0.4908 -0.0349
 6184TIP3    H139967   0.740   6.663  14.891 -0.6098  1.1071 -0.1749
 6184TIP3    H239968   0.761   6.742  15.019 -0.2462  0.4558  0.1705
 6185TIP3   OH239969   4.029   3.586   2.807  0.5756  0.7567 -0.0454
 6185TIP3    H139970   3.949   3.632   2.781  0.6126  1.0651  0.3736
 6185TIP3    H239971   4.028   3.588   2.903 -0.1560 -1.3751  0.0427
 6186TIP3   OH239972   3.500   4.906   2.084  0.0604 -0.4667 -0.2670
 6186TIP3    H139973   3.508   4.875   1.994 -1.2765  1.2561 -1.0395
 6186TIP3    H239974   3.548   4.989   2.085 -0.8485  0.0652  0.3082
 6187TIP3   OH239975   2.654   4.820  13.912  0.5151  0.0526 -0.0441
 6187TIP3    H139976   2.592   4.828  13.840  1.3363 -2.4135 -1.1391
 6187TIP3    H239977   2.740   4.830  13.871  0.9566  0.6482  0.9759
 6188TIP3   OH239978   4.108   2.760   5.588  0.3569 -0.7024  0.2489
 6188TIP3    H139979   4.167   2.818   5.636 -0.1672 -0.7294  0.9418
 6188TIP3    H239980   4.040   2.737   5.652  0.1929 -1.5439 -0.2154
 6189TIP3   OH239981   0.016   2.503  14.364  0.0362  0.5712 -0.1823
 6189TIP3    H139982   0.015   2.502  14.460 -0.2385  2.1047 -0.1437
 6189TIP3    H239983   0.109   2.497  14.342  0.1548  0.9286  0.2021
 6190TIP3   OH239984   4.318   6.234  12.622  0.1596 -0.0034 -0.0683
 6190TIP3    H139985   4.375   6.163  12.651  1.0041  0.4196 -0.6648
 6190TIP3    H239986   4.242   6.189  12.584  0.1992 -0.5695  0.5131
 6191TIP3   OH239987   1.457   6.235  15.333  0.2299 -0.2262  0.0206
 6191TIP3    H139988   1.456   6.273  15.245 -0.4124  0.5935  0.3669
 6191TIP3    H239989   1.548   6.210  15.347  0.4403  0.1200 -0.6752
 6192TIP3   OH239990   4.457   4.818  10.412  0.1300 -0.4513 -0.2222
 6192TIP3    H139991   4.444   4.736  10.365 -1.3319  0.1255 -0.8827
 6192TIP3    H239992   4.542   4.850  10.381 -0.9126  0.0663 -2.7952
 6193TIP3   OH239993   5.171   3.943   1.348 -0.1164  0.1216  0.0810
 6193TIP3    H139994   5.262   3.963   1.373  0.9336 -0.7044 -2.7361
 6193TIP3    H239995   5.151   3.861   1.393  1.3859 -0.8871 -1.0051
 6194TIP3   OH239996   0.512   3.270   1.894 -0.1760  0.1230  0.0222
 6194TIP3    H139997   0.543   3.263   1.804  2.3188 -0.5012  0.8481
 6194TIP3    H239998   0.437   3.330   1.889  1.8349  2.7244 -2.0800
 6195TIP3   OH239999   5.134   6.170  14.485 -0.1275  0.3025  0.5459
 6195TIP3    H140000   5.067   6.235  14.465 -1.3109 -0.7395  0.9258
 6195TIP3    H240001   5.209   6.194  14.431 -0.9258  1.3328 -0.1326
 6196TIP3   OH240002   6.602   2.144  13.463 -0.0418  0.7739 -0.2424
 6196TIP3    H140003   6.696   2.128  13.463  0.1657  1.8847  0.1872
 6196TIP3    H240004   6.594   2.238  13.451 -1.0421  0.8842  1.0460
 6197TIP3   OH240005   5.032   6.366  14.767  0.2929 -0.2111 -0.0025
 6197TIP3    H140006   5.000   6.410  14.846  1.1933  1.5312 -0.5600
 6197TIP3    H240007   5.089   6.297  14.800 -1.3588 -1.1922  0.9023
 6198TIP3   OH240008   3.964   1.984  12.610 -0.5246  0.0285 -0.2556
 6198TIP3    H140009   3.920   1.944  12.685  0.2776  2.7487  1.8447
 6198TIP3    H240010   3.909   2.058  12.587 -0.1531 -0.1065 -1.6369
 6199TIP3   OH240011   1.662   5.287   2.680  0.5072 -0.2610 -0.2087
 6199TIP3    H140012   1.731   5.294   2.746 -0.5826  1.1526  0.8383
 6199TIP3    H240013   1.637   5.377   2.661 -0.7471 -0.7193 -0.9005
 6200TIP3   OH240014   4.562   3.639  14.315  0.3883 -0.0975  0.7620
 6200TIP3    H140015   4.632   3.576  14.297  1.1472  1.1545 -0.9182
 6200TIP3    H240016   4.487   3.605  14.268  1.7470  1.9534 -3.3220
 6201TIP3   OH240017   2.691   2.985   2.021 -0.1168  0.1825  0.0739
 6201TIP3    H140018   2.721   3.071   1.993  0.6332 -0.1566 -0.1618
 6201TIP3    H240019   2.732   2.972   2.107 -0.1156 -0.0061  0.0447
 6202TIP3   OH240020   3.909   3.306  15.520 -0.2002 -0.1108  0.4002
 6202TIP3    H140021   3.855   3.277  15.593 -2.1177  0.2545 -0.7888
 6202TIP3    H240022   3.998   3.284  15.546 -0.8427 -0.3398  2.6557
 6203TIP3   OH240023   0.333   3.376   3.286  0.3482  0.3302  0.0770
 6203TIP3    H140024   0.275   3.333   3.349 -0.7418  0.5110 -0.7727
 6203TIP3    H240025   0.327   3.469   3.308 -0.6091  0.4728 -0.7320
 6204TIP3   OH240026   2.012   2.221  11.583  0.6799 -0.3143  0.3985
 6204TIP3    H140027   2.014   2.170  11.664  2.6569 -0.4355  0.3365
 6204TIP3    H240028   1.977   2.161  11.518  0.3486 -0.6723  0.8988
 6205TIP3   OH240029   4.634   6.407  15.838  0.0383 -0.3477  0.6577
 6205TIP3    H140030   4.701   6.428  15.774 -1.1058 -0.2240 -0.5543
 6205TIP3    H240031   4.555   6.451  15.806 -0.5724 -0.2651  2.1653
 6206TIP3   OH240032   0.880   6.133  12.454  1.1288 -0.1456  0.3925
 6206TIP3    H140033   0.949   6.192  12.424 -0.6710  0.8404 -2.1904
 6206TIP3    H240034   0.798   6.179  12.432 -0.3479 -2.6272  0.3048
 6207TIP3   OH240035   5.228   4.611  14.916 -1.1198  0.0871  0.2700
 6207TIP3    H140036   5.178   4.693  14.922 -0.2322  0.6360  0.4177
 6207TIP3    H240037   5.260   4.596  15.005  1.3190  1.2862 -0.3128
 6208TIP3   OH240038   1.703   1.787   2.120 -0.3210 -0.7229  0.2133
 6208TIP3    H140039   1.753   1.819   2.196 -1.8576  4.4397 -0.5046
 6208TIP3    H240040   1.766   1.790   2.048  0.0269 -1.1399  0.4945
 6209TIP3   OH240041   4.081   0.657   1.036  0.2629  0.1709 -0.2492
 6209TIP3    H140042   4.000   0.605   1.038  1.6119 -2.0702  2.5537
 6209TIP3    H240043   4.057   0.739   1.079 -0.3162 -0.9410  1.6694
 6210TIP3   OH240044   2.321   1.738  11.757 -0.3848  0.1433  0.3703
 6210TIP3    H140045   2.407   1.718  11.794  0.1443 -2.7928 -2.0643
 6210TIP3    H240046   2.317   1.834  11.757  2.0942  0.3612  2.1797
 6211TIP3   OH240047   4.053   1.306  15.067 -0.4514  0.0325 -0.5257
 6211TIP3    H140048   4.071   1.373  15.133 -3.4936 -0.8898  1.4165
 6211TIP3    H240049   4.139   1.280  15.036  0.9533  4.0026 -0.6150
 6212TIP3   OH240050   2.580   6.246  13.477 -0.2112 -0.2678  0.0711
 6212TIP3    H140051   2.580   6.152  13.493 -1.4883 -0.4790 -1.0399
 6212TIP3    H240052   2.584   6.254  13.382 -1.3311  0.7723  0.0874
 6213TIP3   OH240053   1.136   2.796   3.714  0.0845  0.2342 -0.7446
 6213TIP3    H140054   1.203   2.841   3.662 -0.8968  0.9237 -1.4444
 6213TIP3    H240055   1.144   2.704   3.689  1.6490  0.0952  0.1801
 6214TIP3   OH240056   3.299   0.380  11.895  0.0420 -0.1843 -0.4960
 6214TIP3    H140057   3.324   0.410  11.807  0.5228 -1.2339 -0.7270
 6214TIP3    H240058   3.221   0.431  11.916  0.2340  0.4671 -1.3099
 6215TIP3   OH240059   1.105   6.470  16.037  0.3077 -0.2594 -0.2824
 6215TIP3    H140060   1.048   6.539  16.070  1.3827  1.4601 -1.8012
 6215TIP3    H240061   1.055   6.389  16.048 -1.1437  0.7870  1.2165
 6216TIP3   OH240062   6.367   6.478  13.189  0.2905 -0.2054 -0.0207
 6216TIP3    H140063   6.409   6.429  13.118 -0.1167  0.3879 -0.6810
 6216TIP3    H240064   6.336   6.411  13.249  2.2241 -0.6754  0.5275
 6217TIP3   OH240065   6.085   0.319   4.203  0.6578 -0.1143  0.1297
 6217TIP3    H140066   6.020   0.305   4.134  0.7688  0.4120 -0.0884
 6217TIP3    H240067   6.093   0.234   4.247  0.5545 -0.4453 -0.4829
 6218TIP3   OH240068   5.088   4.202  17.125  0.2918  0.0235 -0.4747
 6218TIP3    H140069   5.099   4.107  17.118  1.5843  0.1652 -0.5615
 6218TIP3    H240070   5.173   4.238  17.101 -0.2828  1.2281 -0.7594
 6219TIP3   OH240071   4.753   4.596   1.335  0.5837 -0.1583 -0.0930
 6219TIP3    H140072   4.813   4.658   1.377 -0.8981  1.9889 -0.9119
 6219TIP3    H240073   4.746   4.628   1.245 -1.3275 -0.6424 -0.1561
 6220TIP3   OH240074   5.691   5.545   2.064  0.0473  0.1898  0.0819
 6220TIP3    H140075   5.696   5.452   2.085  1.9508  0.3934  0.7895
 6220TIP3    H240076   5.708   5.589   2.148  0.5185  1.1419 -0.5016
 6221TIP3   OH240077   2.564   5.326  11.279  0.2099 -0.4124  0.1668
 6221TIP3    H140078   2.634   5.386  11.306 -0.9702  0.7683  0.7303
 6221TIP3    H240079   2.585   5.244  11.322  1.2186 -0.0610  0.3767
 6222TIP3   OH240080   0.715   6.444   4.337 -0.3340 -0.3756  0.2852
 6222TIP3    H140081   0.663   6.366   4.356 -0.9347 -0.0092  0.1474
 6222TIP3    H240082   0.777   6.449   4.410 -0.2059 -1.0489  0.2307
 6223TIP3   OH240083   0.959   2.868  12.532 -0.6950  0.3854 -0.0237
 6223TIP3    H140084   0.935   2.920  12.609  1.5068  0.2723  0.8122
 6223TIP3    H240085   0.877   2.826  12.505 -1.6289  0.8036  1.9855
 6224TIP3   OH240086   2.580   0.391  11.683 -0.1048 -0.3241 -0.5510
 6224TIP3    H140087   2.618   0.438  11.610 -0.6416 -0.0447 -0.6590
 6224TIP3    H240088   2.584   0.299  11.656 -1.2456 -0.1500 -1.4046
 6225TIP3   OH240089   2.962   0.850   5.100 -0.4638 -0.4454  0.0350
 6225TIP3    H140090   3.009   0.924   5.063 -0.0762 -0.7979 -0.1769
 6225TIP3    H240091   2.873   0.883   5.113 -0.1061  0.2947  0.6719
 6226TIP3   OH240092   3.038   4.107   0.928  0.2166 -0.3744  0.0111
 6226TIP3    H140093   3.092   4.172   0.974 -0.9090 -0.1300  1.0463
 6226TIP3    H240094   3.087   4.087   0.849  0.6762  1.6363 -0.2694
 6227TIP3   OH240095   0.530   4.957   1.316  0.0498 -0.5167  0.2649
 6227TIP3    H140096   0.614   4.992   1.346 -0.8711  1.1655  1.0731
 6227TIP3    H240097   0.529   4.866   1.345  1.4393 -0.4593  0.5521
 6228TIP3   OH240098   2.771   5.634  13.814 -0.0581 -0.2785  0.1746
 6228TIP3    H140099   2.695   5.586  13.847 -0.1368 -0.6260 -0.4790
 6228TIP3    H240100   2.735   5.716  13.780  0.1042  0.3631  1.4899
 6229TIP3   OH240101   1.336   1.253   2.743  0.1365  0.6745 -0.0220
 6229TIP3    H140102   1.420   1.218   2.773  0.0175  0.7013  0.3556
 6229TIP3    H240103   1.271   1.194   2.783 -0.0356  0.8630 -0.0237
 6230TIP3   OH240104   4.182   4.909   1.471 -0.0982  0.2437 -0.6798
 6230TIP3    H140105   4.090   4.889   1.490  0.0663  0.9113  0.9813
 6230TIP3    H240106   4.195   4.997   1.505  0.8227  0.7149 -2.1603
 6231TIP3   OH240107   2.550   3.042   6.165 -0.0270 -0.1724  0.5360
 6231TIP3    H140108   2.568   3.065   6.074  0.0810 -1.4119  0.2224
 6231TIP3    H240109   2.506   3.119   6.201 -1.8668 -0.3720 -1.1166
 6232TIP3   OH240110   6.329   1.573  15.349 -0.4214 -0.6603 -0.5623
 6232TIP3    H140111   6.307   1.528  15.430  0.4422 -0.4562 -0.1996
 6232TIP3    H240112   6.316   1.508  15.281 -1.5879 -0.7013 -0.3148
 6233TIP3   OH240113   2.731   1.056   3.589  0.0813  0.2475  0.0452
 6233TIP3    H140114   2.801   1.044   3.653 -0.0387  1.6620  0.4725
 6233TIP3    H240115   2.773   1.103   3.516 -0.5623  1.8211  0.6461
 6234TIP3   OH240116   6.693   3.870   2.963 -0.5128  0.1244 -0.4403
 6234TIP3    H140117   6.608   3.912   2.973 -0.3909  0.5153 -0.9747
 6234TIP3    H240118   6.682   3.811   2.888 -0.2652  0.3212 -0.6372
 6235TIP3   OH240119   1.614   2.120  14.435 -0.5823  0.1119  0.9659
 6235TIP3    H140120   1.546   2.179  14.405 -2.0649 -1.4556  1.0697
 6235TIP3    H240121   1.576   2.033  14.425  1.4749 -0.8314  0.9037
 6236TIP3   OH240122   3.739   6.326   2.770  0.5017 -0.7001  0.5172
 6236TIP3    H140123   3.682   6.281   2.832  0.7840 -2.1561 -0.2575
 6236TIP3    H240124   3.797   6.378   2.825 -1.3203  0.5969  1.3442
 6237TIP3   OH240125   0.906   6.242   5.041  0.2334 -0.3707 -0.0376
 6237TIP3    H140126   0.934   6.325   5.078  0.5334 -1.1002  1.4162
 6237TIP3    H240127   0.813   6.236   5.065  0.0087 -0.1262 -0.8020
 6238TIP3   OH240128   2.881   0.228  13.917  0.7859 -0.0214  0.4277
 6238TIP3    H140129   2.846   0.313  13.889  1.8092  0.0470 -0.7339
 6238TIP3    H240130   2.876   0.173  13.839 -0.2494 -1.1892  1.2763
 6239TIP3   OH240131   0.789   5.986  14.837  0.3089 -0.6267  0.0635
 6239TIP3    H140132   0.853   6.037  14.887 -1.3166 -0.2070  1.8206
 6239TIP3    H240133   0.712   6.042  14.832 -0.2309 -1.4416 -1.2863
 6240TIP3   OH240134   5.172   2.365  15.417  0.2472  0.2424 -0.0746
 6240TIP3    H140135   5.195   2.309  15.491  3.5435 -0.1366 -1.2151
 6240TIP3    H240136   5.134   2.443  15.457 -0.0705 -0.8152  1.8437
 6241TIP3   OH240137   1.606   5.020   5.687  0.3861 -0.0218 -0.0349
 6241TIP3    H140138   1.618   5.087   5.754 -0.7591  0.9843 -0.8087
 6241TIP3    H240139   1.672   4.953   5.708  0.0311  0.2430  2.1047
 6242TIP3   OH240140   1.975   4.169   0.273  0.9917  0.1225  0.6420
 6242TIP3    H140141   1.958   4.131   0.359 -0.2390  1.4054  0.9953
 6242TIP3    H240142   1.938   4.257   0.278 -2.7455 -0.9986 -2.3948
 6243TIP3   OH240143   4.495   1.675  14.190 -0.3716  0.1246 -0.6668
 6243TIP3    H140144   4.505   1.726  14.270  1.0882 -2.0564  0.6439
 6243TIP3    H240145   4.577   1.690  14.142 -0.0607 -0.7118 -0.4127
 6244TIP3   OH240146   4.479   0.738   1.928  0.1289  0.2861 -0.7647
 6244TIP3    H140147   4.505   0.800   1.860  0.5508  1.3322  0.3110
 6244TIP3    H240148   4.464   0.656   1.881 -0.3138  1.1512 -2.2087
 6245TIP3   OH240149   2.820   5.174  13.703 -0.2923 -0.6967 -0.7981
 6245TIP3    H140150   2.869   5.109  13.652  1.3397  1.2126 -1.7733
 6245TIP3    H240151   2.753   5.207  13.642  1.1215  0.9789 -1.5296
 6246TIP3   OH240152   3.732   5.749  10.816 -0.7307 -0.7701  0.0849
 6246TIP3    H140153   3.808   5.764  10.872  0.5629 -1.8498 -1.3020
 6246TIP3    H240154   3.680   5.829  10.824  0.1725 -0.2929  1.6135
 6247TIP3   OH240155   0.678   5.697   4.384 -0.2639 -0.1026 -0.2038
 6247TIP3    H140156   0.600   5.647   4.360  0.8608 -1.9061 -0.2742
 6247TIP3    H240157   0.707   5.659   4.467  0.4062  0.6962 -0.0594
 6248TIP3   OH240158   0.700   5.144   4.726 -0.4309 -0.4575  0.5706
 6248TIP3    H140159   0.737   5.060   4.753 -0.5636 -1.8531 -3.1152
 6248TIP3    H240160   0.618   5.121   4.682  0.0846  1.4375 -1.5351
 6249TIP3   OH240161   0.648   3.192   0.288  0.1986 -0.0152 -0.8837
 6249TIP3    H140162   0.674   3.270   0.336  0.1947 -1.5861  1.9044
 6249TIP3    H240163   0.558   3.207   0.262  0.3897  1.1122 -0.9244
 6250TIP3   OH240164   1.859   3.617  16.280 -0.2915 -0.8067 -0.0723
 6250TIP3    H140165   1.771   3.612  16.242  0.2137 -0.4365 -1.3091
 6250TIP3    H240166   1.911   3.664  16.215 -0.0048  2.2567  2.1510
 6251TIP3   OH240167   2.176   6.285   0.569 -0.0964  0.2610 -0.1413
 6251TIP3    H140168   2.270   6.278   0.588 -0.0888 -0.0662 -0.2787
 6251TIP3    H240169   2.169   6.262   0.476 -0.5002 -1.4401  0.2741
 6252TIP3   OH240170   0.274   3.342   2.519 -0.3077 -0.0854  0.5302
 6252TIP3    H140171   0.287   3.353   2.425  0.3136 -0.8896  0.5022
 6252TIP3    H240172   0.284   3.430   2.555 -1.9265  0.4641 -0.2852
 6253TIP3   OH240173   1.574   4.805   4.312 -0.0759  0.2672 -0.4811
 6253TIP3    H140174   1.653   4.771   4.270 -0.5445 -0.0939 -1.0822
 6253TIP3    H240175   1.543   4.733   4.366  2.0031  1.5534  2.7128
 6254TIP3   OH240176   1.354   4.334  13.417 -0.2646 -0.2259 -0.6008
 6254TIP3    H140177   1.307   4.251  13.420  0.1942 -0.4817 -0.3544
 6254TIP3    H240178   1.344   4.365  13.327 -1.6273  0.1531 -0.3481
 6255TIP3   OH240179   0.171   2.340  11.245  0.3918 -0.1444  0.4412
 6255TIP3    H140180   0.117   2.369  11.319  1.6433  1.7270  0.6879
 6255TIP3    H240181   0.220   2.265  11.278 -0.9116 -0.9336  0.6752
 6256TIP3   OH240182   0.318   3.935  14.398  0.2310  0.2365 -0.4148
 6256TIP3    H140183   0.295   3.928  14.491  0.1671  3.2698 -0.0979
 6256TIP3    H240184   0.368   3.856  14.380  1.6319  0.2799  2.6563
 6257TIP3   OH240185   4.594   5.450  14.543 -0.0311  0.2480 -0.3133
 6257TIP3    H140186   4.612   5.363  14.578 -0.9605 -0.8454 -2.3849
 6257TIP3    H240187   4.510   5.475  14.582  0.1791  0.1625  0.1956
 6258TIP3   OH240188   3.224   4.656  11.849 -0.0633 -0.5954  0.2641
 6258TIP3    H140189   3.232   4.751  11.857 -1.4908 -0.4327  0.1062
 6258TIP3    H240190   3.296   4.631  11.790 -1.0726  0.7264 -1.6645
 6259TIP3   OH240191   4.284   5.227  15.604  0.2432  0.2023  0.3737
 6259TIP3    H140192   4.242   5.149  15.639  0.7477  0.7225  2.2655
 6259TIP3    H240193   4.211   5.284  15.577 -0.1242 -0.8682 -1.0098
 6260TIP3   OH240194   2.231   1.077   4.451 -0.1667  0.3545  0.0148
 6260TIP3    H140195   2.296   1.093   4.519  2.7850  0.1088 -2.5569
 6260TIP3    H240196   2.219   1.162   4.409 -3.3112  0.9272  1.7218
 6261TIP3   OH240197   2.485   3.118  13.685  0.0251 -0.0509 -0.2187
 6261TIP3    H140198   2.557   3.169  13.648 -0.2592  0.5016 -0.0171
 6261TIP3    H240199   2.523   3.075  13.761 -0.1065  1.0656  0.5021
 6262TIP3   OH240200   6.064   3.716  14.024 -0.1093 -0.4721 -0.5874
 6262TIP3    H140201   6.058   3.657  13.949 -0.7108  0.2677 -1.1311
 6262TIP3    H240202   5.997   3.782  14.008 -0.3174 -0.3585  0.6603
 6263TIP3   OH240203   3.990   4.959   2.494 -0.8858  0.9353  0.2701
 6263TIP3    H140204   3.940   4.909   2.559  1.5635 -0.8063  0.9850
 6263TIP3    H240205   4.031   5.029   2.545  0.0595  0.3045  0.4020
 6264TIP3   OH240206   4.557   3.388   4.824 -0.3006 -0.1281  0.3341
 6264TIP3    H140207   4.488   3.442   4.785  0.7992  0.2107 -1.2765
 6264TIP3    H240208   4.526   3.369   4.912 -1.6876  1.3769  0.2261
 6265TIP3   OH240209   5.905   4.355  12.681 -0.2502 -0.0821 -0.2604
 6265TIP3    H140210   5.817   4.376  12.711  0.5806  1.2229  1.4462
 6265TIP3    H240211   5.942   4.301  12.751  0.2463 -0.8159 -1.0637
 6266TIP3   OH240212   3.255   5.831   2.722  0.0221 -0.0402  0.2694
 6266TIP3    H140213   3.319   5.769   2.757  0.6735 -0.0917 -0.9505
 6266TIP3    H240214   3.185   5.776   2.687 -0.4999  0.0054  1.1838
 6267TIP3   OH240215   0.447   3.483   5.349 -0.3221  0.0795  0.2036
 6267TIP3    H140216   0.537   3.457   5.327 -0.4666  0.4078 -0.8308
 6267TIP3    H240217   0.437   3.569   5.307 -1.4131 -0.3514 -0.4366
 6268TIP3   OH240218   5.695   3.168  13.409 -0.0615 -0.3101  0.0925
 6268TIP3    H140219   5.693   3.255  13.368  0.2217 -0.1433  0.4273
 6268TIP3    H240220   5.788   3.144  13.408  0.3885  0.8621  3.0539
 6269TIP3   OH240221   0.888   3.050  13.307 -0.5268 -0.0217 -0.1848
 6269TIP3    H140222   0.978   3.023  13.322  0.6474  2.8813 -1.2515
 6269TIP3    H240223   0.889   3.091  13.221 -2.2823  2.2724  0.7728
 6270TIP3   OH240224   1.601   1.339   2.963 -0.1107 -0.4439 -0.0879
 6270TIP3    H140225   1.606   1.430   2.934 -2.0814 -0.7718 -1.6741
 6270TIP3    H240226   1.625   1.287   2.886 -0.5990 -1.2732  0.3027
 6271TIP3   OH240227   0.649   5.917   1.410  0.0257 -0.0654  0.1479
 6271TIP3    H140228   0.600   5.884   1.485  2.6043  0.3395  2.1374
 6271TIP3    H240229   0.610   5.873   1.335 -2.6669 -0.4932  1.6560
 6272TIP3   OH240230   0.939   0.636  15.202  0.0677  0.2164  0.5396
 6272TIP3    H140231   0.919   0.595  15.118 -0.4719  0.2499  0.6490
 6272TIP3    H240232   1.026   0.602  15.224 -0.1623 -0.4930  0.3928
 6273TIP3   OH240233   0.110   6.250   2.634 -0.3367  0.5496  0.6047
 6273TIP3    H140234   0.189   6.196   2.634 -0.8327 -0.2788  2.6336
 6273TIP3    H240235   0.136   6.332   2.592  1.2520 -0.1714  0.1309
 6274TIP3   OH240236   2.294   4.242   0.982  1.0562 -0.2749 -0.2780
 6274TIP3    H140237   2.302   4.269   0.891  0.1683 -0.1171 -0.3177
 6274TIP3    H240238   2.374   4.273   1.023  1.5484 -0.5092 -1.0425
 6275TIP3   OH240239   4.210   6.556  10.944  0.3045 -0.3537 -0.0974
 6275TIP3    H140240   4.185   6.646  10.920  1.0208 -0.3700 -0.9294
 6275TIP3    H240241   4.285   6.568  11.003  0.8969 -0.4203 -0.8278
 6276TIP3   OH240242   1.450   3.048   4.454  0.1201 -0.0143  0.2778
 6276TIP3    H140243   1.453   3.114   4.385  1.4466 -0.8829 -0.5228
 6276TIP3    H240244   1.464   3.097   4.535 -1.2413  0.9856 -0.0389
 6277TIP3   OH240245   1.033   4.606  11.889  0.3422 -0.6290  0.1342
 6277TIP3    H140246   0.972   4.548  11.935  0.7092 -1.6966 -0.6887
 6277TIP3    H240247   1.069   4.661  11.958 -1.8893  0.3719  0.5736
 6278TIP3   OH240248   3.187   2.868   2.370  0.0257  0.5692 -0.0466
 6278TIP3    H140249   3.110   2.849   2.424 -0.5291 -0.0361 -1.0243
 6278TIP3    H240250   3.160   2.847   2.281  1.3804  0.1959 -0.3988
 6279TIP3   OH240251   4.810   0.016  13.949 -0.0506 -0.2375  0.2596
 6279TIP3    H140252   4.805  -0.022  13.861 -0.6937  0.8389 -0.1762
 6279TIP3    H240253   4.772  -0.051  14.006 -4.3652  0.9542 -0.9006
 6280TIP3   OH240254   0.611   1.308  15.431 -0.0645 -0.1328 -0.1825
 6280TIP3    H140255   0.611   1.222  15.387  0.8872  0.5116 -1.5121
 6280TIP3    H240256   0.521   1.340  15.421 -0.5271 -1.0963  0.6334
 6281TIP3   OH240257   1.700   5.513   2.260 -0.3107  0.4491 -0.1333
 6281TIP3    H140258   1.708   5.418   2.270  1.8470  0.4912 -0.9436
 6281TIP3    H240259   1.651   5.524   2.179  0.2904 -0.0077 -0.5707
 6282TIP3   OH240260   1.401   3.567   2.567 -0.2766  0.0389 -0.2802
 6282TIP3    H140261   1.446   3.521   2.638 -1.0263  0.1986  0.3141
 6282TIP3    H240262   1.471   3.596   2.509  0.2410 -1.6645 -0.5663
 6283TIP3   OH240263   0.785   6.510  12.762  0.0938  0.0739 -0.7060
 6283TIP3    H140264   0.761   6.602  12.757 -3.6629 -0.8090 -3.4351
 6283TIP3    H240265   0.851   6.498  12.693  0.6771  0.6778 -0.2679
 6284TIP3   OH240266   5.208   2.379  11.939  0.0549  0.6730  0.1566
 6284TIP3    H140267   5.249   2.347  12.019 -0.2747 -1.8939 -0.6268
 6284TIP3    H240268   5.252   2.331  11.869 -1.8881  0.4152 -0.9420
 6285TIP3   OH240269   1.552   3.655   3.193  0.3550 -0.2887 -0.1387
 6285TIP3    H140270   1.468   3.684   3.156  0.7484  0.6029 -0.3810
 6285TIP3    H240271   1.534   3.570   3.232  0.0613 -1.7114 -3.0714
 6286TIP3   OH240272   4.504   4.003   4.938 -0.8347 -0.1146 -0.3654
 6286TIP3    H140273   4.598   4.006   4.954 -0.8308 -0.7431 -0.2343
 6286TIP3    H240274   4.496   3.970   4.848 -0.9267 -0.1154 -0.3572
 6287TIP3   OH240275   1.393   3.776   4.167 -0.5956 -0.4012  0.3173
 6287TIP3    H140276   1.300   3.801   4.166 -0.4320  0.2399 -0.6983
 6287TIP3    H240277   1.439   3.859   4.155  0.0855 -0.8270 -0.0144
 6288TIP3   OH240278   0.270   1.348  12.246  0.5978  0.2802 -0.4473
 6288TIP3    H140279   0.272   1.312  12.334  0.2361  1.1337 -0.0830
 6288TIP3    H240280   0.196   1.304  12.203 -1.0874  1.9454  0.6088
 6289TIP3   OH240281   6.512   0.185   1.225  0.3717  0.0458 -0.4527
 6289TIP3    H140282   6.555   0.251   1.279  0.2605 -0.3248  0.0904
 6289TIP3    H240283   6.420   0.210   1.226  0.0522 -1.0307  1.1199
 6290TIP3   OH240284   4.670   2.504   5.497 -0.1132 -0.3766  0.8274
 6290TIP3    H140285   4.604   2.502   5.428 -1.2577  0.9480  1.8373
 6290TIP3    H240286   4.748   2.541   5.455 -0.5767 -0.2419  0.0821
 6291TIP3   OH240287   1.030   3.248   4.154 -0.0347  0.0408 -0.7111
 6291TIP3    H140288   0.999   3.227   4.067 -0.0712  1.2998 -1.0291
 6291TIP3    H240289   1.097   3.182   4.173  0.1979 -0.0501 -1.8161
 6292TIP3   OH240290   3.995   1.216   2.242  0.0515 -0.1551 -0.0279
 6292TIP3    H140291   4.048   1.199   2.320 -2.6070  2.2992  2.6125
 6292TIP3    H240292   4.053   1.265   2.184  1.6256 -0.4335  1.2291
 6293TIP3   OH240293   5.269   1.313  12.380  0.3584 -0.3441  0.0050
 6293TIP3    H140294   5.292   1.279  12.467 -0.8413  0.0312  0.4909
 6293TIP3    H240295   5.245   1.404  12.396 -0.3599 -0.4150 -0.6481
 6294TIP3   OH240296   1.883   5.534   3.530 -0.0362 -0.6766 -0.4287
 6294TIP3    H140297   1.967   5.490   3.541 -0.3295 -0.7703  1.8388
 6294TIP3    H240298   1.848   5.498   3.448  1.8178 -1.1040 -1.0732
 6295TIP3   OH240299   5.858   4.374  11.314  0.4414 -0.0332  0.0149
 6295TIP3    H140300   5.897   4.326  11.387 -0.2038 -0.7093 -0.0691
 6295TIP3    H240301   5.792   4.430  11.355  1.3090  0.9340  0.1317
 6296TIP3   OH240302   4.969   4.092  16.151 -0.5972  0.5622  0.2233
 6296TIP3    H140303   4.878   4.122  16.158 -0.0370  2.3294  0.4525
 6296TIP3    H240304   5.014   4.163  16.106  0.2376 -1.2972 -2.0410
 6297TIP3   OH240305   3.147   2.094   2.246  0.2783 -0.0822 -0.3570
 6297TIP3    H140306   3.149   2.088   2.151  1.3840 -0.3485 -0.3236
 6297TIP3    H240307   3.093   2.019   2.273  0.8901 -0.6636 -0.7215
 6298TIP3   OH240308   0.645   2.801   5.202  0.1280 -0.2461  0.2953
 6298TIP3    H140309   0.583   2.875   5.203  0.5374  0.0963  1.4477
 6298TIP3    H240310   0.602   2.734   5.255 -0.1932 -0.8175 -0.6597
 6299TIP3   OH240311   0.010   1.917   4.692 -0.2127  0.6209 -0.2498
 6299TIP3    H140312   0.090   1.864   4.691 -0.0064  0.9175 -1.3095
 6299TIP3    H240313   0.016   1.968   4.773 -0.1327 -0.5346  0.4908
 6300TIP3   OH240314   2.615   2.198   6.063  0.3452 -0.1421  0.0969
 6300TIP3    H140315   2.606   2.290   6.039  1.9618  0.5831  2.0754
 6300TIP3    H240316   2.540   2.180   6.120  1.2506  0.6696  1.6100
 6301TIP3   OH240317   2.457   4.277  14.959 -0.2283  0.5402  0.0441
 6301TIP3    H140318   2.463   4.371  14.971 -0.4470  0.7221 -1.1723
 6301TIP3    H240319   2.395   4.265  14.887 -1.2391 -0.5954  1.0589
 6302TIP3   OH240320   3.243   2.719   6.101 -0.3214  0.0807 -0.3906
 6302TIP3    H140321   3.227   2.750   6.191 -0.4573  0.9127 -0.6879
 6302TIP3    H240322   3.338   2.719   6.092 -0.2905 -0.5221 -0.0725
 6303TIP3   OH240323   2.848   3.902  16.407 -0.2256  0.3699  0.4035
 6303TIP3    H140324   2.810   3.814  16.413 -0.4939  0.4543 -0.0359
 6303TIP3    H240325   2.858   3.918  16.313  0.6813  0.4466  0.4982
 6304TIP3   OH240326   6.615   4.957  15.784 -0.2815 -0.2840  0.1877
 6304TIP3    H140327   6.629   5.032  15.842 -0.1309 -1.5300  1.8502
 6304TIP3    H240328   6.669   4.975  15.707  1.7513  0.1499  1.6360
 6305TIP3   OH240329   4.197   1.060   5.701 -0.2277  0.4484 -0.9438
 6305TIP3    H140330   4.221   1.137   5.650  2.1841 -0.8400 -1.9775
 6305TIP3    H240331   4.102   1.055   5.694 -0.2570  2.1358 -2.6424
 6306TIP3   OH240332   0.638   4.162  14.478  0.4415  0.0721  0.0986
 6306TIP3    H140333   0.705   4.109  14.435  1.0909  1.3867 -0.5714
 6306TIP3    H240334   0.664   4.162  14.571  0.5715 -0.5428  0.0716
 6307TIP3   OH240335   5.857   2.541   4.933 -0.2918 -0.2304  0.1255
 6307TIP3    H140336   5.937   2.572   4.976 -0.4219  0.9875 -0.4493
 6307TIP3    H240337   5.788   2.553   4.999 -0.0781 -0.8718  0.4720
 6308TIP3   OH240338   4.932   6.049  15.108 -0.2196  0.2453  0.0122
 6308TIP3    H140339   4.881   6.108  15.053  0.9187  1.0601 -0.2006
 6308TIP3    H240340   4.916   5.962  15.071 -0.9445  0.5604 -0.4342
 6309TIP3   OH240341   5.061   2.687   6.003  0.1248  0.8809  0.4602
 6309TIP3    H140342   5.155   2.694   5.986 -0.2160  2.2957 -1.1127
 6309TIP3    H240343   5.055   2.679   6.098  1.8637 -0.4600  0.5134
 6310TIP3   OH240344   5.342   0.978  13.800  0.1331  0.1560  0.6525
 6310TIP3    H140345   5.337   0.961  13.706  3.4437 -0.1901  0.4316
 6310TIP3    H240346   5.274   1.044  13.816 -0.1297  0.6577 -2.0792
 6311TIP3   OH240347   4.987   1.401   3.007 -0.3318  0.0062  0.5782
 6311TIP3    H140348   5.016   1.365   2.923  0.2047  0.5567  0.5208
 6311TIP3    H240349   4.894   1.379   3.011 -0.8928  1.7666 -1.1345
 6312TIP3   OH240350   5.694   5.631  12.346  0.6995 -0.1771 -0.2672
 6312TIP3    H140351   5.628   5.699  12.359 -0.1132 -0.8464 -0.8276
 6312TIP3    H240352   5.771   5.679  12.315  0.3340  0.5541 -0.0676
 6313TIP3   OH240353   5.001   3.580  15.254  0.2766 -0.0538  0.5521
 6313TIP3    H140354   4.919   3.589  15.304  0.0835 -0.9450  0.4033
 6313TIP3    H240355   5.032   3.670  15.244 -0.9206  0.3506  0.2221
 6314TIP3   OH240356   6.753   6.462  14.412 -0.2447 -0.3611  0.6102
 6314TIP3    H140357   6.847   6.474  14.427 -0.1462 -1.0535  0.5454
 6314TIP3    H240358   6.735   6.373  14.443 -0.8042 -0.3751  0.2442
 6315TIP3   OH240359   4.595   6.123  13.071 -0.4498  0.5705  0.0361
 6315TIP3    H140360   4.611   6.031  13.093 -0.2658  0.5899 -0.0134
 6315TIP3    H240361   4.581   6.166  13.155  1.1031  0.8091  0.1980
 6316TIP3   OH240362   0.877   6.076   4.092 -0.2615  0.1485  0.3079
 6316TIP3    H140363   0.819   6.037   4.158  0.8271  2.1015  2.5971
 6316TIP3    H240364   0.894   6.165   4.125  2.3867  0.3477 -1.2991
 6317TIP3   OH240365   4.063   1.359  11.576  1.2890  0.2776 -0.0555
 6317TIP3    H140366   4.017   1.280  11.548 -1.8131  2.2493 -0.9929
 6317TIP3    H240367   4.120   1.381  11.503 -0.4415  0.7319 -1.3352
 6318TIP3   OH240368   3.053   2.609   6.855  0.2481  0.5495 -0.2162
 6318TIP3    H140369   3.077   2.619   6.763  0.1532 -1.0666 -0.4437
 6318TIP3    H240370   2.990   2.537   6.856  1.0015 -0.1407  1.2134
 6319TIP3   OH240371   4.889   1.892  11.076 -0.1094  0.3296  0.0967
 6319TIP3    H140372   4.936   1.867  11.156 -0.4776 -2.4265 -0.4341
 6319TIP3    H240373   4.957   1.900  11.010  0.2782  3.2601  0.6892
 6320TIP3   OH240374   3.572   0.809   6.494  0.1376 -1.0361 -0.0797
 6320TIP3    H140375   3.513   0.840   6.562  1.6210 -1.7052  1.6057
 6320TIP3    H240376   3.618   0.887   6.463 -0.8400 -0.6707 -0.6447
 6321TIP3   OH240377   1.227   3.254   2.571 -0.7685  0.0437 -0.3193
 6321TIP3    H140378   1.300   3.195   2.553 -0.3315  0.4153  0.2167
 6321TIP3    H240379   1.253   3.337   2.532  0.1164  0.8178  1.8142
 6322TIP3   OH240380   1.911   6.241   3.912 -0.5656  0.9004  0.5010
 6322TIP3    H140381   1.901   6.152   3.876 -1.0508  1.5263 -1.0010
 6322TIP3    H240382   1.918   6.228   4.006 -1.0567 -0.7095  0.3507
 6323TIP3   OH240383   1.174   3.050  12.815  0.2617  0.0679  0.4043
 6323TIP3    H140384   1.189   3.144  12.812  0.5424  0.0161  0.0159
 6323TIP3    H240385   1.257   3.013  12.844  0.1518 -0.0593  0.5590
 6324TIP3   OH240386   3.720   4.883   3.272 -0.0418 -0.1342 -0.9401
 6324TIP3    H140387   3.762   4.966   3.292  0.0225 -0.1218 -1.1260
 6324TIP3    H240388   3.774   4.845   3.203  1.2281 -1.3286  0.6109
 6325TIP3   OH240389   0.791   4.745  12.575  0.0681  0.1836 -0.4617
 6325TIP3    H140390   0.772   4.765  12.484  2.2687 -0.0219 -1.0117
 6325TIP3    H240391   0.849   4.669  12.572  1.6897  1.2918  0.9775
 6326TIP3   OH240392   5.365   4.143  12.370 -0.2318 -0.3670 -0.1983
 6326TIP3    H140393   5.431   4.075  12.385  0.2057  0.0765 -0.0955
 6326TIP3    H240394   5.297   4.099  12.319 -0.1208 -0.9761  0.1627
 6327TIP3   OH240395   3.467   4.593   3.350  0.0541 -0.2817 -0.5555
 6327TIP3    H140396   3.373   4.605   3.335 -0.1235 -1.4418 -0.4721
 6327TIP3    H240397   3.509   4.651   3.286 -0.6591  2.2783  1.1307
 6328TIP3   OH240398   2.609   6.549   6.649  0.2347 -0.3219 -0.2650
 6328TIP3    H140399   2.647   6.632   6.619  0.0510  0.1999  0.9173
 6328TIP3    H240400   2.672   6.483   6.619  0.5601  0.2600 -0.9184
 6329TIP3   OH240401   6.162   2.074   4.572  0.3467  0.1538  0.4938
 6329TIP3    H140402   6.097   2.130   4.530 -0.5814  1.1397  3.0666
 6329TIP3    H240403   6.236   2.131   4.590  1.7393 -0.7939 -1.7225
 6330TIP3   OH240404   0.968   3.702   1.095 -0.9170  0.2743  0.4880
 6330TIP3    H140405   0.962   3.797   1.087 -2.1557  0.0470 -2.2834
 6330TIP3    H240406   1.052   3.679   1.055 -0.6177  0.1763  1.1563
 6331TIP3   OH240407   1.103   0.623  14.377  0.1811  0.1934  0.3117
 6331TIP3    H140408   1.010   0.628  14.355 -0.1954  1.8934  1.9777
 6331TIP3    H240409   1.140   0.704  14.341  0.9278 -0.2304  0.1093
 6332TIP3   OH240410   5.916   4.075  12.334  0.3081 -0.1624 -0.2688
 6332TIP3    H140411   5.856   4.073  12.408  1.8972 -0.7584  1.0788
 6332TIP3    H240412   5.864   4.045  12.259 -1.1283 -0.3508  0.7697
 6333TIP3   OH240413   0.896   6.588  13.438  0.1677  0.2400 -0.0279
 6333TIP3    H140414   0.821   6.527  13.435 -0.3032  0.7864  0.4236
 6333TIP3    H240415   0.954   6.557  13.368 -0.4524 -0.2322 -0.3505
 6334TIP3   OH240416   5.297   4.256  15.546 -0.5366  0.2954 -0.2036
 6334TIP3    H140417   5.300   4.345  15.580  1.7313  0.2793 -0.2311
 6334TIP3    H240418   5.370   4.211  15.589 -2.4360 -1.9716  0.8505
 6335TIP3   OH240419   5.100   4.766  14.319 -0.0625  0.3429 -0.5600
 6335TIP3    H140420   5.154   4.842  14.298  1.0512 -0.8119 -2.1147
 6335TIP3    H240421   5.162   4.696  14.337 -1.0523 -0.4965 -0.2882
 6336TIP3   OH240422   4.658   4.624   4.408  0.2978  0.2641 -0.2090
 6336TIP3    H140423   4.710   4.647   4.486 -0.3657  0.9381  0.0510
 6336TIP3    H240424   4.657   4.705   4.356 -0.3091  0.1972 -0.3076
 6337TIP3   OH240425   0.846   2.157  11.475  0.1795 -0.0791 -0.8197
 6337TIP3    H140426   0.815   2.232  11.425  1.1843  0.8973 -0.0223
 6337TIP3    H240427   0.811   2.170  11.563  2.2269  0.7463 -0.0482
 6338TIP3   OH240428   2.873   2.101   4.422  0.4524 -0.4689 -0.5145
 6338TIP3    H140429   2.872   2.126   4.514  0.8753 -1.4626 -0.2282
 6338TIP3    H240430   2.835   2.176   4.376  1.0699  0.4007  0.3710
 6339TIP3   OH240431   4.481   2.044   3.523 -0.1762 -0.1513 -0.3740
 6339TIP3    H140432   4.414   2.103   3.560  0.7539  0.2365  0.7530
 6339TIP3    H240433   4.498   1.981   3.592 -1.3797 -2.0138 -1.6785
 6340TIP3   OH240434   1.535   6.528  16.122  0.2171 -0.4711  0.5348
 6340TIP3    H140435   1.531   6.477  16.203 -0.6425 -0.3963  0.5488
 6340TIP3    H240436   1.510   6.466  16.053  0.1004 -0.3169  0.4371
 6341TIP3   OH240437   4.756   1.163   5.342  0.2710  0.3289 -0.0140
 6341TIP3    H140438   4.664   1.155   5.363 -0.3059  3.4804 -0.7681
 6341TIP3    H240439   4.790   1.074   5.345 -2.7073 -0.8860  0.5376
 6342TIP3   OH240440   2.840   6.219  12.308 -0.2903  0.1981 -0.0704
 6342TIP3    H140441   2.858   6.312  12.318 -0.2856  0.0549  1.6422
 6342TIP3    H240442   2.813   6.191  12.396 -1.1583 -1.2256 -0.7671
 6343TIP3   OH240443   1.099   6.447   0.240 -0.0697  0.7119 -0.1650
 6343TIP3    H140444   1.077   6.439   0.333 -1.7020 -1.3180 -0.6329
 6343TIP3    H240445   1.172   6.386   0.228 -0.8048 -0.1343 -0.4477
 6344TIP3   OH240446   4.624   2.825  15.012  0.1325  0.5320  0.0155
 6344TIP3    H140447   4.610   2.748  15.069 -0.0051  0.8502  0.4176
 6344TIP3    H240448   4.623   2.899  15.072  0.9827  0.7961 -0.2786
 6345TIP3   OH240449   5.342   6.622  10.503  0.6093  0.2062  0.1989
 6345TIP3    H140450   5.286   6.662  10.570 -0.8421  0.0982 -0.9098
 6345TIP3    H240451   5.336   6.528  10.519  0.5282  0.1976  0.1149
 6346TIP3   OH240452   5.343   2.199   0.266  0.5585 -0.7763 -0.1371
 6346TIP3    H140453   5.376   2.286   0.243  0.7265 -0.6685  0.4747
 6346TIP3    H240454   5.278   2.216   0.334  1.8574 -1.2373  1.2723
 6347TIP3   OH240455   5.044   3.738   5.208 -0.2963  0.4704  0.1260
 6347TIP3    H140456   5.112   3.689   5.254 -0.6210  0.6987  0.8585
 6347TIP3    H240457   4.975   3.751   5.273 -1.7079 -1.0057 -0.9896
 6348TIP3   OH240458   6.349   1.210  13.880 -0.2905  0.0601  0.0736
 6348TIP3    H140459   6.392   1.128  13.856  1.4475  0.5295  1.3745
 6348TIP3    H240460   6.375   1.272  13.812  0.6849  0.2015  0.5613
 6349TIP3   OH240461   4.142   1.420   2.636 -0.0659  0.3091  0.3716
 6349TIP3    H140462   4.124   1.513   2.624 -0.0578  0.3311  0.5387
 6349TIP3    H240463   4.076   1.390   2.699  0.2653  0.3138  0.7197
 6350TIP3   OH240464   6.725   6.670  13.009 -0.3595  0.0956 -0.3043
 6350TIP3    H140465   6.643   6.675  12.959 -1.3721 -1.1382  1.1458
 6350TIP3    H240466   6.736   6.759  13.044 -1.1866  0.2415 -0.3779
 6351TIP3   OH240467   3.031   4.968  13.124  0.5633  0.4082 -0.5108
 6351TIP3    H140468   2.979   5.042  13.156 -0.2229  0.1132 -1.0967
 6351TIP3    H240469   3.019   4.900  13.190  0.2426  0.3559 -0.6231
 6352TIP3   OH240470   3.808   0.830  15.940 -0.3602 -0.0534  0.1967
 6352TIP3    H140471   3.817   0.924  15.929  0.1157 -0.2711 -1.6253
 6352TIP3    H240472   3.896   0.795  15.925 -0.4799 -0.7751  1.0731
 6353TIP3   OH240473   3.509   3.815  13.948  0.3911 -0.0978 -0.1226
 6353TIP3    H140474   3.463   3.845  14.026  2.1034 -2.1981  1.8287
 6353TIP3    H240475   3.466   3.732  13.926  2.1934 -1.3686  0.8876
 6354TIP3   OH240476   4.743   3.505   0.691 -0.2025 -0.5605 -0.2144
 6354TIP3    H140477   4.836   3.501   0.713 -0.7243 -0.6611  2.1474
 6354TIP3    H240478   4.724   3.598   0.681 -0.0614 -0.4822  0.2503
 6355TIP3   OH240479   6.652   2.627   3.713  0.4153 -0.2858  0.0412
 6355TIP3    H140480   6.651   2.657   3.622 -0.2574  0.8219  0.3905
 6355TIP3    H240481   6.720   2.559   3.715  0.1380 -0.6355 -1.3699
 6356TIP3   OH240482   5.890   3.263   6.039 -0.5498 -0.3256  0.1947
 6356TIP3    H140483   5.930   3.266   6.125  0.1970  0.2025 -0.1601
 6356TIP3    H240484   5.874   3.354   6.016 -0.9328 -0.4711 -0.1399
 6357TIP3   OH240485   5.237   3.825   2.083 -0.1578 -0.1963  0.2212
 6357TIP3    H140486   5.182   3.756   2.120 -1.0550  0.6453  0.4910
 6357TIP3    H240487   5.253   3.797   1.993 -0.8091 -0.5902  0.2232
 6358TIP3   OH240488   6.532   0.821  11.033 -0.3357  0.5825 -0.5421
 6358TIP3    H140489   6.455   0.767  11.052 -0.5661  0.6901 -1.1441
 6358TIP3    H240490   6.555   0.799  10.942  1.3034 -0.6295  0.1167
 6359TIP3   OH240491   3.772   4.041  14.033 -0.0309  0.0032  0.0438
 6359TIP3    H140492   3.775   4.134  14.055 -2.2738  0.0724  0.2640
 6359TIP3    H240493   3.701   4.033  13.970  1.4582 -1.2993 -1.5724
 6360TIP3   OH240494   3.194   1.416  14.071  0.3654  0.1585 -0.1655
 6360TIP3    H140495   3.264   1.425  14.136 -2.1729  1.0514  2.6791
 6360TIP3    H240496   3.166   1.325  14.079  0.2723  0.1827 -0.2171
 6361TIP3   OH240497   3.559   0.908  10.600  0.6553  0.3099 -0.1832
 6361TIP3    H140498   3.609   0.831  10.576 -0.0290 -1.2679  3.0185
 6361TIP3    H240499   3.625   0.976  10.617  1.3559 -0.1162 -1.1134
 6362TIP3   OH240500   3.365   5.869  16.269  0.3136 -0.1748  0.4745
 6362TIP3    H140501   3.315   5.926  16.328  0.8593  0.5085  0.2768
 6362TIP3    H240502   3.334   5.781  16.291 -1.0446  0.2281  0.3065
 6363TIP3   OH240503   0.489   2.277  16.766 -0.0023 -0.3890  0.5663
 6363TIP3    H140504   0.417   2.258  16.826 -1.4058  1.3541 -0.4649
 6363TIP3    H240505   0.542   2.343  16.811  0.9791 -1.6416  1.3083
 6364TIP3   OH240506   3.696   3.031   5.177 -0.8117  0.5720  0.2275
 6364TIP3    H140507   3.784   3.067   5.166 -0.9669  0.5086 -1.4146
 6364TIP3    H240508   3.692   3.006   5.270  1.9298 -2.0280 -0.1947
 6365TIP3   OH240509   1.930   6.610  12.853  0.1336 -0.3940 -0.7397
 6365TIP3    H140510   1.920   6.686  12.910  2.2478 -0.8011  0.2708
 6365TIP3    H240511   1.909   6.535  12.908  1.2436 -0.7309 -0.7470
 6366TIP3   OH240512   2.645   0.896  16.870  0.0637  0.1852  0.0155
 6366TIP3    H140513   2.682   0.808  16.855 -0.0998  0.1610 -0.2602
 6366TIP3    H240514   2.578   0.883  16.937 -3.4806 -0.8698 -3.3176
 6367TIP3   OH240515   5.478   5.619   1.846 -0.3128 -0.2063  0.4581
 6367TIP3    H140516   5.416   5.628   1.918 -0.1548 -0.1855  0.5921
 6367TIP3    H240517   5.553   5.575   1.885  0.5201  1.4065  0.7514
 6368TIP3   OH240518   5.968   0.539  13.701 -0.0458 -0.0015  0.1077
 6368TIP3    H140519   6.031   0.525  13.629  1.2576  0.2840  1.1463
 6368TIP3    H240520   5.998   0.619  13.744 -3.5198  2.5784 -1.7567
 6369TIP3   OH240521   3.681   3.344  11.730 -0.3921  0.1688  0.3932
 6369TIP3    H140522   3.746   3.405  11.696 -0.1296 -0.1712  0.2742
 6369TIP3    H240523   3.602   3.396  11.741  0.0233  0.6886  0.9553
 6370TIP3   OH240524   6.622   2.592  15.417  0.5107 -0.0857 -0.0828
 6370TIP3    H140525   6.603   2.524  15.352  1.2465 -1.3524  0.9676
 6370TIP3    H240526   6.717   2.604  15.413  0.2308  2.2856 -1.5432
 6371TIP3   OH240527   5.230   1.834   3.603 -0.1472  0.1892  0.5891
 6371TIP3    H140528   5.182   1.751   3.592 -1.6563  0.9157  1.3322
 6371TIP3    H240529   5.295   1.814   3.671 -0.5823 -0.3634  0.8606
 6372TIP3   OH240530   3.006   0.408   0.139  0.5065  0.7972  0.2005
 6372TIP3    H140531   2.914   0.384   0.147  0.6010  0.9008  1.7829
 6372TIP3    H240532   3.047   0.333   0.095 -0.2688  0.6254 -0.2432
 6373TIP3   OH240533   4.091   2.230  11.438  0.1683 -0.0634 -0.3082
 6373TIP3    H140534   4.116   2.312  11.481 -0.0631  0.4321 -1.0927
 6373TIP3    H240535   4.171   2.177  11.441 -0.1268 -0.4813  1.6571
 6374TIP3   OH240536   1.882   4.290  16.111 -0.3834  0.0949  0.4794
 6374TIP3    H140537   1.955   4.318  16.165 -0.2409 -1.3231  1.0644
 6374TIP3    H240538   1.823   4.365  16.109 -0.6038  0.0712  2.9814
 6375TIP3   OH240539   5.672   6.671  12.752 -0.2638 -0.2874 -0.6235
 6375TIP3    H140540   5.577   6.662  12.759 -0.2031  0.6041  2.8847
 6375TIP3    H240541   5.685   6.763  12.726 -0.3582 -0.0402  0.1862
 6376TIP3   OH240542   1.581   6.176   4.919  0.0484 -0.0209  0.2260
 6376TIP3    H140543   1.637   6.115   4.967 -0.4988 -0.4696  0.3019
 6376TIP3    H240544   1.525   6.215   4.986  0.9977  1.2573  0.3185
 6377TIP3   OH240545   0.329   1.394  13.128 -0.0498  0.7544  0.4207
 6377TIP3    H140546   0.420   1.381  13.102 -0.2963  0.5694 -0.3871
 6377TIP3    H240547   0.295   1.305  13.143 -0.5249  0.7146 -0.8149
 6378TIP3   OH240548   3.980   0.770  12.515  0.1396 -0.5685  0.4435
 6378TIP3    H140549   3.888   0.756  12.535  0.1160 -0.2923  0.5414
 6378TIP3    H240550   3.997   0.859  12.546  0.2308 -0.3198 -0.3062
 6379TIP3   OH240551   2.033   2.805   4.017  0.0627  0.2575  0.9141
 6379TIP3    H140552   1.960   2.777   3.962  0.9244  0.0696 -0.1664
 6379TIP3    H240553   2.026   2.901   4.019  0.3688  0.3027 -0.0136
 6380TIP3   OH240554   2.846   0.590  15.510  0.0065  0.0996 -0.8778
 6380TIP3    H140555   2.890   0.675  15.511 -1.3686  0.8269 -0.0805
 6380TIP3    H240556   2.796   0.589  15.428 -3.1072  1.7883  0.8297
 6381TIP3   OH240557   2.209   1.373   2.737 -0.3004 -1.0948  0.1022
 6381TIP3    H140558   2.231   1.363   2.829  1.2340  0.5387 -0.0329
 6381TIP3    H240559   2.286   1.416   2.698 -0.3916 -2.8113 -2.1933
 6382TIP3   OH240560   6.603   5.263   2.372  0.4550 -0.5521 -0.6837
 6382TIP3    H140561   6.563   5.218   2.297 -0.1903  0.1561 -0.7714
 6382TIP3    H240562   6.545   5.243   2.446 -0.0568  0.4576 -0.8060
 6383TIP3   OH240563   4.107   6.064  12.505 -0.0042 -0.6424 -0.2685
 6383TIP3    H140564   4.019   6.027  12.514 -0.5427  0.3249 -1.2261
 6383TIP3    H240565   4.129   6.048  12.413  0.4059 -0.0328 -0.2811
 6384TIP3   OH240566   5.452   1.072  16.961 -0.1810 -0.0723 -0.4651
 6384TIP3    H140567   5.421   1.082  16.871 -1.1797 -0.9171 -0.2367
 6384TIP3    H240568   5.410   1.144  17.008  2.0803  1.7360 -1.0462
 6385TIP3   OH240569   0.062   6.357  17.233 -0.1309  0.3249  0.3855
 6385TIP3    H140570  -0.021   6.309  17.241  0.0459 -0.1162 -0.3169
 6385TIP3    H240571   0.079   6.391  17.320 -1.2230  0.6922  0.4702
 6386TIP3   OH240572   1.841   0.224   0.479 -0.3834  0.1094  0.0091
 6386TIP3    H140573   1.864   0.295   0.538 -0.4604  0.2697 -0.1521
 6386TIP3    H240574   1.868   0.256   0.392  2.2686 -1.1898  0.2531
 6387TIP3   OH240575   1.539   0.014   4.630  0.1436 -0.7772  0.1227
 6387TIP3    H140576   1.443   0.007   4.627  0.0509  0.4248 -0.9806
 6387TIP3    H240577   1.557   0.100   4.591  1.6383 -0.6353  1.0817
 6388TIP3   OH240578   4.048   6.190  17.202 -0.7080 -1.0417  0.3030
 6388TIP3    H140579   4.080   6.120  17.146  2.0675 -0.4902  0.9978
 6388TIP3    H240580   3.999   6.248  17.144 -0.1419 -1.8353 -0.9999
 6389TIP3   OH240581   0.673   4.838  17.062  0.4789 -0.1436 -0.1296
 6389TIP3    H140582   0.708   4.870  17.145  2.7186 -1.3650 -0.5480
 6389TIP3    H240583   0.652   4.746  17.079 -0.1773 -0.0939 -0.6164
 6390TIP3   OH240584   2.666   4.651   2.319 -0.1987  0.6926  0.3103
 6390TIP3    H140585   2.661   4.691   2.232 -0.4697  1.2230  0.5655
 6390TIP3    H240586   2.575   4.634   2.343 -0.0924  0.0780  0.2753
 6391TIP3   OH240587   3.076   6.490  15.558 -0.0243  0.1580  0.3239
 6391TIP3    H140588   3.152   6.491  15.617 -0.3419  2.1715  0.7458
 6391TIP3    H240589   3.112   6.460  15.475  1.2634  1.1031  0.5033
 6392TIP3   OH240590   6.227   0.186  16.005 -0.8911 -0.2393  0.3107
 6392TIP3    H140591   6.317   0.165  16.030 -0.1186  2.5246  0.2396
 6392TIP3    H240592   6.221   0.159  15.913  0.0329 -0.0754  0.1897
 6393TIP3   OH240593   2.314   3.859  17.169 -0.2931  0.3808 -0.2802
 6393TIP3    H140594   2.265   3.901  17.099  0.2601 -1.5148 -1.8874
 6393TIP3    H240595   2.268   3.885  17.249 -1.0209  2.4862 -1.2990
 6394TIP3   OH240596   1.467   2.838   5.736 -0.2481  0.3621 -0.0509
 6394TIP3    H140597   1.530   2.766   5.738 -0.3659  0.2560 -0.1307
 6394TIP3    H240598   1.516   2.913   5.703  0.0489  0.4853  0.6533
 6395TIP3   OH240599   4.814   1.405  13.533 -0.0834 -0.2890 -0.0926
 6395TIP3    H140600   4.777   1.318  13.521  0.6601 -0.5846 -0.2376
 6395TIP3    H240601   4.833   1.436  13.445  0.4324 -0.3196  0.0056
 6396TIP3   OH240602   6.182   3.469   3.352  0.0995  0.2610  0.2567
 6396TIP3    H140603   6.250   3.532   3.378  0.0601 -0.1547  1.4457
 6396TIP3    H240604   6.115   3.522   3.310  0.5753  0.8635  0.2435
 6397TIP3   OH240605   0.974   1.922  16.631  0.2928  0.1635 -0.6152
 6397TIP3    H140606   1.011   1.979  16.699 -1.7831 -0.5469  1.2421
 6397TIP3    H240607   1.015   1.837  16.646  1.0948  0.3928 -1.4008
 6398TIP3   OH240608   4.834   3.565   4.139  0.8625  0.1451 -0.6352
 6398TIP3    H140609   4.785   3.549   4.058  1.2992 -2.9049 -0.4308
 6398TIP3    H240610   4.926   3.561   4.113  1.0001 -0.2277 -0.1221
 6399TIP3   OH240611   4.849   0.433   0.832 -0.1738 -0.6166 -0.2650
 6399TIP3    H140612   4.908   0.462   0.902  1.9458  0.1285 -2.2333
 6399TIP3    H240613   4.771   0.487   0.842  1.3674  1.7892 -0.3323
 6400TIP3   OH240614   4.841   1.099  14.234 -0.0704 -0.1933 -0.5174
 6400TIP3    H140615   4.930   1.130  14.217 -0.0834  0.3575  0.4009
 6400TIP3    H240616   4.789   1.135  14.162  0.3256  0.0351 -0.6921
 6401TIP3   OH240617   6.287   6.266  11.891  0.5708 -0.2461 -0.0356
 6401TIP3    H140618   6.372   6.225  11.905 -0.6601 -1.9048  4.2106
 6401TIP3    H240619   6.294   6.351  11.934  0.4460  0.2307 -0.9267
 6402TIP3   OH240620   5.923   0.870   0.668 -0.1066 -0.1289  0.3162
 6402TIP3    H140621   5.993   0.879   0.603 -1.1834 -1.0527 -1.0644
 6402TIP3    H240622   5.913   0.957   0.706 -0.0556  0.6986 -1.4576
 6403TIP3   OH240623   4.454   2.768  11.335  0.4492  0.1762  0.1109
 6403TIP3    H140624   4.392   2.739  11.268 -1.0996 -0.6857  1.8420
 6403TIP3    H240625   4.525   2.809  11.285 -2.3826  3.1045 -1.9627
 6404TIP3   OH240626   1.885   1.912   3.971 -0.1846 -0.7803 -0.4185
 6404TIP3    H140627   1.937   1.956   3.904 -0.8185  1.3482  0.4212
 6404TIP3    H240628   1.808   1.879   3.925 -1.1770  1.6383 -0.6354
 6405TIP3   OH240629   4.823   2.797   4.648  0.4126 -0.0744 -0.0671
 6405TIP3    H140630   4.733   2.789   4.680  0.5933 -0.7104  0.3090
 6405TIP3    H240631   4.825   2.742   4.570  1.1713 -2.3997  1.4750
 6406TIP3   OH240632   2.311   6.752  16.450 -0.4517 -0.0085 -0.8636
 6406TIP3    H140633   2.285   6.774  16.360 -1.7024 -0.4375 -0.6276
 6406TIP3    H240634   2.376   6.682  16.439 -1.0668 -0.5062 -1.4275
 6407TIP3   OH240635   3.374   0.269   4.572 -0.2632  0.6402  0.1069
 6407TIP3    H140636   3.465   0.292   4.588 -0.1476 -0.4449  1.1478
 6407TIP3    H240637   3.368   0.177   4.596 -1.7714  0.8448  0.6283
 6408TIP3   OH240638   6.287   5.728   5.280 -0.6259  0.2423  0.1886
 6408TIP3    H140639   6.315   5.640   5.305  0.4182  0.4040 -0.3780
 6408TIP3    H240640   6.203   5.714   5.235  0.6357 -0.7550 -2.0366
 6409TIP3   OH240641   5.616   5.538  16.205  0.2191 -0.3705  0.8188
 6409TIP3    H140642   5.547   5.602  16.188  0.4130  0.6343  3.3372
 6409TIP3    H240643   5.573   5.453  16.196 -1.0211  0.2098  1.0630
 6410TIP3   OH240644   4.030   6.155  12.175 -0.2684  0.1155  0.1458
 6410TIP3    H140645   4.058   6.220  12.110  0.7448  0.0893  0.5389
 6410TIP3    H240646   3.935   6.147  12.162 -0.1291  0.3388 -1.1156
 6411TIP3   OH240647   4.935   5.422  12.314  0.1167  0.2867 -0.0295
 6411TIP3    H140648   4.949   5.431  12.408  2.1547 -2.5182  0.0453
 6411TIP3    H240649   4.926   5.512  12.282 -0.9389  1.2936  2.8196
 6412TIP3   OH240650   1.252   2.079   3.240 -0.5859  0.2356  0.3789
 6412TIP3    H140651   1.289   1.996   3.269  0.0874  0.8436  1.2821
 6412TIP3    H240652   1.199   2.056   3.163  1.4230 -0.7083 -0.8049
 6413TIP3   OH240653   0.900   0.536  11.897  0.6447  0.5285 -0.5913
 6413TIP3    H140654   0.954   0.610  11.870  1.6344 -0.3377 -1.0555
 6413TIP3    H240655   0.892   0.482  11.818  0.7372 -0.3303 -0.0287
 6414TIP3   OH240656   5.307   3.291   5.581 -0.0132  0.1523 -0.2217
 6414TIP3    H140657   5.317   3.323   5.491  0.3103  1.3871  0.2322
 6414TIP3    H240658   5.276   3.367   5.630 -0.6726 -0.6380  0.6316
 6415TIP3   OH240659   5.538   6.190   2.068  0.2441 -0.6869 -0.0602
 6415TIP3    H140660   5.538   6.134   1.991 -0.2004 -0.6467 -0.0950
 6415TIP3    H240661   5.629   6.217   2.079  0.5615 -1.8317  0.2749
 6416TIP3   OH240662   3.872   0.772  11.187 -0.3052  0.5784  0.1841
 6416TIP3    H140663   3.850   0.748  11.096 -0.3584 -1.9047  0.7765
 6416TIP3    H240664   3.787   0.789  11.228 -0.5903 -1.5211  0.5492
 6417TIP3   OH240665   0.945   0.211  13.403 -0.6208  0.0334 -0.2869
 6417TIP3    H140666   0.905   0.141  13.454 -1.3795  1.3199  0.9514
 6417TIP3    H240667   0.906   0.291  13.437  1.3534  1.1997 -0.5899
 6418TIP3   OH240668   3.912   0.376  10.729  0.0906 -0.7726 -0.0994
 6418TIP3    H140669   3.854   0.302  10.746 -0.8276 -0.0690 -0.1018
 6418TIP3    H240670   3.995   0.353  10.771 -0.9181 -0.7593  2.0172
 6419TIP3   OH240671   4.650   0.039  11.436  0.2496  0.4187 -0.5914
 6419TIP3    H140672   4.625  -0.039  11.387 -0.0661 -1.2709  2.0401
 6419TIP3    H240673   4.742   0.024  11.459 -0.2534 -0.0784  1.3254
 6420TIP3   OH240674   1.148   5.792   5.173  0.0732 -0.1465 -0.2601
 6420TIP3    H140675   1.182   5.766   5.087  0.9681  1.1941 -0.3474
 6420TIP3    H240676   1.091   5.867   5.154 -1.1638 -0.9580  0.1458
 6421TIP3   OH240677   6.090   1.840   1.421 -0.1125 -0.0119 -0.0918
 6421TIP3    H140678   6.023   1.778   1.393 -0.1641  0.1301 -0.2870
 6421TIP3    H240679   6.159   1.833   1.355  0.1141 -0.2380  0.1690
 6422TIP3   OH240680   3.621   4.392  11.010  0.4314 -0.3535  0.5137
 6422TIP3    H140681   3.683   4.323  10.988  1.3200  0.5282  0.1763
 6422TIP3    H240682   3.553   4.387  10.942 -0.1617 -1.6416  1.1654
 6423TIP3   OH240683   6.441   5.044  12.345 -0.0510  0.2076  0.4647
 6423TIP3    H140684   6.346   5.042  12.360  0.0050 -0.1941  0.7765
 6423TIP3    H240685   6.464   5.136  12.353 -0.5981  0.4789 -0.7864
 6424TIP3   OH240686   4.276   6.062   2.831  0.4744 -0.0057  0.0526
 6424TIP3    H140687   4.287   5.972   2.800  0.5833 -0.5767  1.6595
 6424TIP3    H240688   4.227   6.054   2.913 -0.1292  1.4630 -0.1270
 6425TIP3   OH240689   2.349   0.170   1.515  0.2717 -0.2241 -0.0221
 6425TIP3    H140690   2.405   0.093   1.502  1.0355 -0.0134  1.7822
 6425TIP3    H240691   2.300   0.150   1.594 -1.0557  0.2941 -0.6913
 6426TIP3   OH240692   2.867   6.221   2.234  0.3168  0.3430  0.4936
 6426TIP3    H140693   2.812   6.144   2.250  0.2273 -0.5853 -3.3882
 6426TIP3    H240694   2.955   6.186   2.222  0.6974  1.1533  0.8087
 6427TIP3   OH240695   6.408   1.652  11.667  0.6140  0.0410  0.3976
 6427TIP3    H140696   6.504   1.651  11.666  0.6647  1.1191  1.7313
 6427TIP3    H240697   6.385   1.565  11.699  1.1588 -0.0565  0.5466
 6428TIP3   OH240698   1.925   3.991   5.290  0.2349 -0.2077 -0.2340
 6428TIP3    H140699   1.879   4.036   5.361 -0.0494 -0.8875  0.0212
 6428TIP3    H240700   1.855   3.952   5.237  0.5032 -2.4055  0.9217
 6429TIP3   OH240701   6.502   5.724  11.889  0.0907  0.5057 -0.0406
 6429TIP3    H140702   6.573   5.788  11.893 -0.9433  1.6325  1.0605
 6429TIP3    H240703   6.433   5.767  11.838  0.1322 -0.5496 -1.0420
 6430TIP3   OH240704   6.480   4.347  15.662  0.1495 -0.4016  0.2253
 6430TIP3    H140705   6.516   4.377  15.579  0.7589  0.1463  0.6728
 6430TIP3    H240706   6.489   4.252  15.659 -0.1609 -0.4113 -0.4746
 6431TIP3   OH240707   1.762   4.511   1.906  0.4225  0.5909  0.1736
 6431TIP3    H140708   1.683   4.458   1.899  2.1920 -2.0214 -1.9942
 6431TIP3    H240709   1.791   4.499   1.997  0.0586 -1.1335  0.0886
 6432TIP3   OH240710   4.671   1.356   1.187 -0.4589 -0.2396 -0.7707
 6432TIP3    H140711   4.700   1.438   1.147 -3.0379  0.6817 -0.9514
 6432TIP3    H240712   4.665   1.376   1.281 -2.0304  0.1602 -0.9218
 6433TIP3   OH240713   4.359   6.067   5.368 -0.3345 -0.4159 -0.7866
 6433TIP3    H140714   4.305   6.000   5.409  1.2779 -2.3435 -1.6505
 6433TIP3    H240715   4.312   6.089   5.287 -1.6356  0.6803  0.2170
 6434TIP3   OH240716   6.318   5.145   2.358  0.6140  0.8079 -0.1688
 6434TIP3    H140717   6.343   5.115   2.271  1.0258 -0.7242  0.4318
 6434TIP3    H240718   6.224   5.161   2.351  0.5054  0.0040 -0.7272
 6435TIP3   OH240719   5.193   2.193   2.364 -0.3183  0.2479  0.3698
 6435TIP3    H140720   5.175   2.135   2.437 -1.1348  1.1692  0.9338
 6435TIP3    H240721   5.156   2.278   2.391  0.2145  0.8473 -0.7066
 6436TIP3   OH240722   2.660   1.320   1.655  0.7128 -0.5683  0.4404
 6436TIP3    H140723   2.600   1.394   1.642 -1.2505 -1.9083  1.2837
 6436TIP3    H240724   2.713   1.318   1.575  2.4392  3.0285  1.2846
 6437TIP3   OH240725   1.735   2.827  12.954  0.9357 -0.6032 -0.3781
 6437TIP3    H140726   1.721   2.906  12.903  0.7453 -0.3672  0.0292
 6437TIP3    H240727   1.772   2.858  13.037  0.2212 -0.8690  0.0516
 6438TIP3   OH240728   3.916   6.676   2.011 -0.5059 -0.4112  0.3048
 6438TIP3    H140729   4.008   6.654   2.026 -0.1166  1.4027  0.7830
 6438TIP3    H240730   3.871   6.592   2.013  1.2473 -1.4519 -0.8319
 6439TIP3   OH240731   2.654   3.224   1.649  0.3542  0.3673  0.5775
 6439TIP3    H140732   2.709   3.275   1.709  1.5035 -1.2890  1.0182
 6439TIP3    H240733   2.717   3.184   1.588 -0.6404  0.6000 -0.6413
 6440TIP3   OH240734   3.606   4.763   3.544 -0.2305  0.0866 -1.0344
 6440TIP3    H140735   3.666   4.823   3.500  0.2324  0.1610 -0.3159
 6440TIP3    H240736   3.602   4.687   3.487  0.1547  0.2889 -1.3361
 6441TIP3   OH240737   3.617   2.090  11.809  0.0677  0.2349  0.3395
 6441TIP3    H140738   3.593   2.123  11.896  0.2678  1.0383  0.0996
 6441TIP3    H240739   3.577   2.003  11.805  0.2162  0.1065  1.3060
 6442TIP3   OH240740   4.318   3.199  15.751 -0.5775 -0.0251  0.3964
 6442TIP3    H140741   4.335   3.224  15.841  0.6850  0.6785 -0.0172
 6442TIP3    H240742   4.381   3.129  15.733 -0.8365 -0.1772  0.0666
 6443TIP3   OH240743   1.450   2.681  13.532  0.2107  0.5210 -0.4045
 6443TIP3    H140744   1.445   2.636  13.617  0.9647 -1.6679 -1.4547
 6443TIP3    H240745   1.494   2.619  13.474 -1.1566  1.5568 -2.6825
 6444TIP3   OH240746   0.362   2.784   1.623 -0.2258 -0.1437  0.5463
 6444TIP3    H140747   0.356   2.855   1.687  0.0216  0.6990 -0.3403
 6444TIP3    H240748   0.418   2.719   1.664 -0.4316  0.1884  1.3612
 6445TIP3   OH240749   2.849   3.981   1.408  0.1705 -0.1293  0.2781
 6445TIP3    H140750   2.926   3.947   1.363 -0.0910 -1.0621  0.5149
 6445TIP3    H240751   2.879   4.062   1.450  0.3024  1.0296 -1.9314
 6446TIP3   OH240752   4.394   3.676   5.722 -0.2865 -0.4008 -0.0451
 6446TIP3    H140753   4.432   3.733   5.789  0.6935 -0.9524 -0.1093
 6446TIP3    H240754   4.336   3.733   5.672  0.4220  0.4713  0.0977
 6447TIP3   OH240755   1.040   6.359   3.908  0.6665  0.4201  0.3446
 6447TIP3    H140756   1.005   6.360   3.997  0.4344  0.7081  0.2500
 6447TIP3    H240757   1.060   6.266   3.891  0.0795  0.2707  0.4493
 6448TIP3   OH240758   4.129   4.955  15.582  0.4494  0.6203 -0.0863
 6448TIP3    H140759   4.075   4.943  15.659  2.0849  1.5602  1.2761
 6448TIP3    H240760   4.116   4.876  15.530 -0.6033 -0.0725  1.1990
 6449TIP3   OH240761   5.363   3.286  11.437 -0.4436  0.3792 -0.1061
 6449TIP3    H140762   5.372   3.297  11.342  0.5559  1.4141  0.0887
 6449TIP3    H240763   5.400   3.200  11.454 -2.4621 -0.7265 -0.8677
 6450TIP3   OH240764   0.217   3.050   4.177  0.8238  0.1024 -0.0244
 6450TIP3    H140765   0.281   2.989   4.141  1.8318  1.2577 -0.2476
 6450TIP3    H240766   0.249   3.070   4.265  0.4879  0.2838  0.0608
 6451TIP3   OH240767   4.474   5.442   1.172  1.2459  0.4203 -0.6232
 6451TIP3    H140768   4.538   5.510   1.152  0.1206  1.1469 -1.9556
 6451TIP3    H240769   4.453   5.404   1.087 -2.2145  2.1915 -0.7604
 6452TIP3   OH240770   5.417   2.280  14.359 -0.3082  0.3664  0.1038
 6452TIP3    H140771   5.436   2.210  14.421  0.5298 -0.2847 -0.8616
 6452TIP3    H240772   5.484   2.346  14.377 -0.0848  0.1913 -0.0689
 6453TIP3   OH240773   3.315   3.147   2.961 -0.1510  0.2107  0.4424
 6453TIP3    H140774   3.410   3.143   2.963 -0.2014 -1.8466  1.6117
 6453TIP3    H240775   3.291   3.164   3.052 -0.9194  0.0265  0.2780
 6454TIP3   OH240776   2.577   2.840  14.771  0.1474 -0.8981  0.9519
 6454TIP3    H140777   2.598   2.894  14.847  1.8096  1.5270 -1.0310
 6454TIP3    H240778   2.642   2.866  14.705 -0.3801 -3.8051 -0.9114
 6455TIP3   OH240779   2.029   5.216  13.998 -0.0210  0.0189  0.5449
 6455TIP3    H140780   2.022   5.247  14.089 -1.8032 -2.4508  1.3845
 6455TIP3    H240781   2.122   5.198  13.985  0.0311 -1.9345  2.8543
 6456TIP3   OH240782   1.370   1.878   3.560 -0.3048 -0.4120 -0.9433
 6456TIP3    H140783   1.274   1.876   3.561 -0.3196  0.0553  0.0949
 6456TIP3    H240784   1.394   1.860   3.469 -1.4074  0.7271 -1.4843
 6457TIP3   OH240785   0.502   0.901  13.363  0.0900  0.1457  0.0845
 6457TIP3    H140786   0.544   0.932  13.442  1.9281  0.8620 -1.1066
 6457TIP3    H240787   0.552   0.823  13.338 -0.9322 -0.5083  0.0175
 6458TIP3   OH240788   5.355   3.024  11.241 -0.3597 -0.4242 -0.2443
 6458TIP3    H140789   5.380   3.111  11.210  0.9430 -1.2372 -1.6476
 6458TIP3    H240790   5.277   3.003  11.191 -0.1560 -0.4117 -0.5712
 6459TIP3   OH240791   2.499   5.946   4.254  0.4529 -0.1485 -0.5088
 6459TIP3    H140792   2.521   5.854   4.239  2.1092  0.1914 -0.2647
 6459TIP3    H240793   2.412   5.943   4.295  1.4173 -1.7557  1.6362
 6460TIP3   OH240794   5.406   2.520   3.380 -0.4165  0.0425 -0.5940
 6460TIP3    H140795   5.397   2.451   3.314 -0.0494  0.9112 -1.5800
 6460TIP3    H240796   5.400   2.474   3.464  2.4058 -1.5951 -1.1742
 6461TIP3   OH240797   2.138   0.582  10.934 -0.1499  0.0886  0.7422
 6461TIP3    H140798   2.125   0.636  10.855 -0.1183 -1.3601 -0.2979
 6461TIP3    H240799   2.171   0.644  10.999  1.7765  0.9976 -0.9586
 6462TIP3   OH240800   3.602   1.103  16.397 -0.1562 -0.1300  0.3640
 6462TIP3    H140801   3.606   1.198  16.396  0.2189 -0.0586  3.1024
 6462TIP3    H240802   3.509   1.083  16.405 -0.1813  0.0316  0.4813
 6463TIP3   OH240803   2.950   3.156   3.491  0.6747 -0.0300 -0.2432
 6463TIP3    H140804   2.989   3.191   3.411  3.1614 -2.5020 -0.2684
 6463TIP3    H240805   2.864   3.122   3.463 -1.3229  4.5139 -0.4367
 6464TIP3   OH240806   2.628   3.601  12.585  0.6568  0.0204  0.1548
 6464TIP3    H140807   2.652   3.538  12.653 -0.2858 -2.0279 -1.2927
 6464TIP3    H240808   2.551   3.646  12.620  1.9815  1.1909  1.6534
 6465TIP3   OH240809   1.874   2.820  16.404 -0.1384  0.3659 -0.1291
 6465TIP3    H140810   1.805   2.857  16.459 -0.2573  1.3949 -0.9442
 6465TIP3    H240811   1.829   2.763  16.343 -0.2510  0.8833 -0.5328
 6466TIP3   OH240812   3.163   1.228  11.006 -0.1039  0.0947  0.0159
 6466TIP3    H140813   3.220   1.162  11.045  0.3467 -0.2262 -1.1476
 6466TIP3    H240814   3.192   1.311  11.043 -0.4499 -0.3113  1.2304
 6467TIP3   OH240815   3.632   1.156  16.718 -0.0004  0.1301  0.1224
 6467TIP3    H140816   3.654   1.173  16.626 -1.3499  0.7222 -0.1304
 6467TIP3    H240817   3.600   1.241  16.750  2.4358  0.5096  1.7902
 6468TIP3   OH240818   2.723   2.636   3.964 -0.1048 -0.3828  0.4268
 6468TIP3    H140819   2.775   2.600   4.036 -1.1021 -1.8514  0.4617
 6468TIP3    H240820   2.788   2.670   3.902  0.9825 -2.7942  0.1153
 6469TIP3   OH240821   0.849   5.714   3.802  0.8430 -0.1497 -0.0479
 6469TIP3    H140822   0.894   5.689   3.721 -0.1929  0.7292 -0.9465
 6469TIP3    H240823   0.758   5.730   3.774  0.4061 -0.0818  1.3483
 6470TIP3   OH240824   2.887   3.900  14.470 -0.3743  0.2074  0.2744
 6470TIP3    H140825   2.849   3.988  14.479 -0.4646  0.0237  1.9734
 6470TIP3    H240826   2.839   3.846  14.532 -0.5948 -1.1760 -1.0425
 6471TIP3   OH240827   1.620   6.586   5.256  0.3077 -0.1917  0.4544
 6471TIP3    H140828   1.612   6.566   5.349 -1.9301 -1.6662  0.0052
 6471TIP3    H240829   1.564   6.662   5.243  1.5514  0.7668  0.4732
 6472TIP3   OH240830   3.982   4.396   4.337  0.8550 -0.5098  0.2368
 6472TIP3    H140831   4.075   4.379   4.353  0.5369 -1.7211  0.8917
 6472TIP3    H240832   3.981   4.464   4.270  2.2144 -0.0322  0.6758
 6473TIP3   OH240833   3.721   2.092  16.302  0.5817  0.6361 -0.3952
 6473TIP3    H140834   3.727   2.012  16.250  0.6362 -0.7349  1.5894
 6473TIP3    H240835   3.627   2.107  16.312  0.3185 -1.8543  2.8466
 6474TIP3   OH240836   1.181   1.305  12.081 -0.2075 -0.3414 -0.0556
 6474TIP3    H140837   1.184   1.388  12.128 -1.9701  0.1674 -0.7506
 6474TIP3    H240838   1.135   1.245  12.141  1.2283 -0.9163  0.5251
 6475TIP3   OH240839   2.771   2.600   5.720  0.0324  0.4830  0.0882
 6475TIP3    H140840   2.704   2.553   5.770  0.8746  1.0006  1.7952
 6475TIP3    H240841   2.729   2.621   5.636 -1.1729 -1.1200  0.2527
 6476TIP3   OH240842   1.726   4.452  14.809  0.0355  0.3390 -1.0821
 6476TIP3    H140843   1.782   4.528  14.795  0.0123  0.5120 -0.2593
 6476TIP3    H240844   1.784   4.387  14.850 -0.6921  1.0387  1.1539
 6477TIP3   OH240845   3.081   2.582   2.840 -0.1378 -0.0143 -0.5246
 6477TIP3    H140846   3.171   2.596   2.870  0.1335 -1.5263 -0.5623
 6477TIP3    H240847   3.049   2.510   2.895 -1.6644  1.1024  0.1384
 6478TIP3   OH240848   4.823   5.217  15.415 -0.0158  0.6393  0.5659
 6478TIP3    H140849   4.842   5.198  15.323  0.4839  0.7589  0.6378
 6478TIP3    H240850   4.904   5.258  15.448  0.9895 -2.0747  1.8193
 6479TIP3   OH240851   4.259   3.632   5.049 -0.1989  0.2919 -0.1832
 6479TIP3    H140852   4.315   3.605   4.977 -0.9632  1.3961 -1.2240
 6479TIP3    H240853   4.299   3.713   5.082  0.2735 -0.3226  0.8044
 6480TIP3   OH240854   6.258   2.541  13.361 -0.2561 -0.9355 -0.6226
 6480TIP3    H140855   6.267   2.529  13.267  0.0973  1.9832 -1.0706
 6480TIP3    H240856   6.205   2.621  13.370 -0.2925 -1.1430  1.6449
 6481TIP3   OH240857   2.307   6.486  15.716 -0.0387  0.5261 -0.5436
 6481TIP3    H140858   2.353   6.537  15.782 -1.2159 -0.3341  0.9932
 6481TIP3    H240859   2.227   6.537  15.697  1.8034  2.5591 -3.9737
 6482TIP3   OH240860   0.399   0.593   4.661 -0.3815  0.3075 -0.1654
 6482TIP3    H140861   0.334   0.537   4.703 -1.4518  0.1874 -1.8947
 6482TIP3    H240862   0.388   0.679   4.703  1.9949 -0.8647  3.2743
 6483TIP3   OH240863   5.609   3.246  12.448 -0.4103  0.5610 -0.1115
 6483TIP3    H140864   5.606   3.285  12.536  0.7921 -1.5512  0.9655
 6483TIP3    H240865   5.689   3.281  12.409 -1.4654  2.2855 -0.8143
 6484TIP3   OH240866   4.749   0.856  16.556  0.4783 -0.4247 -0.0854
 6484TIP3    H140867   4.769   0.938  16.599  0.6166  0.0322 -0.9912
 6484TIP3    H240868   4.765   0.873  16.463  1.1700 -1.6641 -0.2176
 6485TIP3   OH240869   4.591   3.718  13.022  0.2000 -0.0998 -0.2349
 6485TIP3    H140870   4.642   3.770  12.960 -0.2303  0.7409  0.1112
 6485TIP3    H240871   4.504   3.757  13.021  0.0342 -0.4283  0.4919
 6486TIP3   OH240872   6.401   2.262   5.895  0.0923  0.9788 -0.5953
 6486TIP3    H140873   6.411   2.198   5.825 -1.5071  1.1747 -1.0395
 6486TIP3    H240874   6.359   2.213   5.966 -1.3719  1.5571 -1.0284
 6487TIP3   OH240875   4.207   1.989  10.519 -0.0291 -0.0072 -0.3561
 6487TIP3    H140876   4.274   1.952  10.462 -1.3758 -0.8093 -1.4962
 6487TIP3    H240877   4.209   1.933  10.597  1.2869  0.6059  0.0699
 6488TIP3   OH240878   4.520   6.546   4.938  0.5432  0.0751 -0.1892
 6488TIP3    H140879   4.509   6.495   5.018  1.0458 -0.3108 -0.3655
 6488TIP3    H240880   4.451   6.613   4.943 -0.8933 -1.3248 -0.5220
 6489TIP3   OH240881   5.231   4.708   0.761 -0.4251 -0.0174  0.2551
 6489TIP3    H140882   5.257   4.767   0.691  0.9550  0.2842  0.9918
 6489TIP3    H240883   5.247   4.620   0.726 -0.4698  0.1007 -0.0681
 6490TIP3   OH240884   6.124   5.895   2.249 -0.7261  0.0453  0.4302
 6490TIP3    H140885   6.132   5.851   2.165 -0.4731  1.0218 -0.0784
 6490TIP3    H240886   6.181   5.845   2.308 -0.3980 -0.2638 -0.1387
 6491TIP3   OH240887   3.214   6.294  11.809 -0.6068 -1.2007  0.2289
 6491TIP3    H140888   3.182   6.293  11.719 -0.9776 -0.8263  0.3570
 6491TIP3    H240889   3.154   6.351  11.856  1.5011  1.3572  0.0227
 6492TIP3   OH240890   5.633   4.076  17.224  0.2918  0.2706 -0.5607
 6492TIP3    H140891   5.684   4.057  17.303 -1.6255 -2.0686  0.2438
 6492TIP3    H240892   5.688   4.045  17.152  1.4559  1.0903 -0.0669
 6493TIP3   OH240893   0.903   0.375  16.686  0.6431  0.2540  0.1188
 6493TIP3    H140894   0.926   0.339  16.772 -0.2329  0.3581  0.4030
 6493TIP3    H240895   0.986   0.377  16.639  1.1042  0.0091  0.8928
 6494TIP3   OH240896   2.726   2.489  16.548  0.1022  0.1836 -0.1116
 6494TIP3    H140897   2.765   2.564  16.593  1.9074  1.0658 -2.8633
 6494TIP3    H240898   2.672   2.529  16.480  1.0849 -0.9562 -1.6098
 6495TIP3   OH240899   3.481   2.713  16.096  0.6036 -0.5748 -0.2531
 6495TIP3    H140900   3.489   2.622  16.122 -0.5949 -0.8540 -0.8034
 6495TIP3    H240901   3.438   2.711  16.011  0.7540  0.4932 -0.3768
 6496TIP3   OH240902   2.912   2.958  11.167 -0.0717  0.0452 -0.3419
 6496TIP3    H140903   2.819   2.967  11.148  0.0700 -0.1699 -1.1696
 6496TIP3    H240904   2.946   3.048  11.165  0.1784 -0.0510 -2.4391
 6497TIP3   OH240905   3.396   4.862   1.418  0.7729  0.3195  0.1503
 6497TIP3    H140906   3.311   4.824   1.394  0.6447 -0.7030  2.0439
 6497TIP3    H240907   3.441   4.875   1.334 -1.1865  0.7868 -0.8815
 6498TIP3   OH240908   5.169   2.856   4.656  0.2569 -0.3316 -0.0570
 6498TIP3    H140909   5.085   2.811   4.662 -0.1651  0.1338 -1.7689
 6498TIP3    H240910   5.213   2.815   4.582  1.7447 -0.8258  1.0430
 6499TIP3   OH240911   0.420   2.178   1.396 -0.7639 -0.1213  0.2852
 6499TIP3    H140912   0.373   2.222   1.467 -0.1271  1.1418 -0.0506
 6499TIP3    H240913   0.444   2.093   1.433 -4.2252 -1.3361  0.1087
 6500TIP3   OH240914   4.519   1.304   5.133  0.6613 -0.6402 -0.2259
 6500TIP3    H140915   4.437   1.335   5.172  0.7322 -0.4884 -0.1951
 6500TIP3    H240916   4.521   1.211   5.152 -0.6429 -1.1360 -2.2512
 6501TIP3   OH240917   0.698   2.982   4.743 -0.3807 -0.0409  0.1452
 6501TIP3    H140918   0.741   2.896   4.747 -1.5272 -0.6055  1.6036
 6501TIP3    H240919   0.614   2.964   4.702  0.1399  0.7935 -1.3709
 6502TIP3   OH240920   4.014   2.135  16.088 -0.1520  0.4183 -0.2190
 6502TIP3    H140921   3.998   2.042  16.078  1.9364  0.0717 -1.0040
 6502TIP3    H240922   3.957   2.177  16.023 -0.0051 -0.4486 -0.9245
 6503TIP3   OH240923   5.418   3.030   1.504  0.1947 -0.4486  0.6810
 6503TIP3    H140924   5.512   3.013   1.497  0.3794  0.4544  0.8471
 6503TIP3    H240925   5.404   3.107   1.449 -0.8649 -1.9138 -1.2146
 6504TIP3   OH240926   0.518   2.629   1.822 -0.2240 -0.1609  0.2503
 6504TIP3    H140927   0.529   2.541   1.859 -2.2792 -0.2457  0.7969
 6504TIP3    H240928   0.595   2.677   1.852 -0.6669 -0.8781  2.8420
 6505TIP3   OH240929   4.007   0.731   3.127  0.5818 -0.1950  0.3743
 6505TIP3    H140930   3.959   0.657   3.165 -0.5379  1.5951  2.6706
 6505TIP3    H240931   4.058   0.766   3.200  3.1457 -0.1978 -1.2826
 6506TIP3   OH240932   5.344   2.187  11.722  0.0548 -0.0463  0.1011
 6506TIP3    H140933   5.307   2.211  11.637  1.0677  1.0617 -0.0449
 6506TIP3    H240934   5.383   2.100  11.707 -0.6945 -0.3209 -0.2789
 6507TIP3   OH240935   3.943   1.814  14.174 -0.1212 -0.6887 -0.1887
 6507TIP3    H140936   3.904   1.899  14.192 -0.0643 -0.3325 -1.6012
 6507TIP3    H240937   4.036   1.831  14.162 -0.3846 -0.5262 -2.6136
 6508TIP3   OH240938   1.770   1.598  12.073 -0.2097  0.4548  0.3491
 6508TIP3    H140939   1.696   1.619  12.130 -0.5489  0.8377 -0.2264
 6508TIP3    H240940   1.744   1.516  12.031  0.4580 -0.3507  1.4529
 6509TIP3   OH240941   3.143   0.122  11.387  0.4196  0.4831  0.2079
 6509TIP3    H140942   3.169   0.121  11.479  0.1830  1.5330  0.2979
 6509TIP3    H240943   3.048   0.120  11.388  0.3327 -3.4418 -0.1291
 6510TIP3   OH240944   3.767   4.294  14.325 -0.3798  0.1057  0.0739
 6510TIP3    H140945   3.694   4.232  14.334 -0.1670 -0.3433 -1.0324
 6510TIP3    H240946   3.738   4.373  14.368 -1.5997 -0.0175 -0.4861
 6511TIP3   OH240947   2.526   1.652  16.023 -0.1345  0.4447  0.1312
 6511TIP3    H140948   2.443   1.624  16.063 -0.4067  0.7672 -0.1972
 6511TIP3    H240949   2.587   1.580  16.041 -0.5024  0.1766  0.3268
 6512TIP3   OH240950   2.128   5.131  16.891 -0.1993 -0.9575  0.7598
 6512TIP3    H140951   2.105   5.049  16.846  1.7460 -1.5665  0.8128
 6512TIP3    H240952   2.221   5.143  16.874 -0.4552  1.3167  0.6864
 6513TIP3   OH240953   3.370   6.322  15.952  0.7106 -0.5515  1.0825
 6513TIP3    H140954   3.312   6.367  16.014 -0.1456  1.4269 -1.0317
 6513TIP3    H240955   3.457   6.331  15.991  0.1774  0.4580  2.1140
 6514TIP3   OH240956   4.531   4.770   2.969  0.2067 -0.3751  0.0395
 6514TIP3    H140957   4.505   4.863   2.974  3.0445  0.4341  1.5864
 6514TIP3    H240958   4.489   4.738   2.889 -1.3106  2.0803 -0.2483
 6515TIP3   OH240959   1.422   3.452  16.605 -0.5498 -0.1513 -0.7722
 6515TIP3    H140960   1.505   3.423  16.642 -1.8445 -0.6291  1.9789
 6515TIP3    H240961   1.445   3.483  16.517  2.6223  0.3815  0.1166
 6516TIP3   OH240962   3.736   4.269   1.016 -0.2417 -0.2830  0.0269
 6516TIP3    H140963   3.651   4.312   1.024  0.1375  0.5378 -0.2887
 6516TIP3    H240964   3.741   4.213   1.094 -0.5657  0.5694  0.6754
 6517TIP3   OH240965   5.978   5.267   1.101 -0.8788 -0.2388 -0.0356
 6517TIP3    H140966   6.049   5.311   1.054 -0.4344 -0.2313  0.6293
 6517TIP3    H240967   5.899   5.291   1.053 -0.3195 -1.2925 -1.5755
 6518TIP3   OH240968   6.479   2.423   5.053 -0.3380 -0.1633  0.0954
 6518TIP3    H140969   6.438   2.357   5.109  2.6904  0.2147  3.0666
 6518TIP3    H240970   6.462   2.506   5.097  0.5998  0.3685 -0.5073
 6519TIP3   OH240971   1.620   2.103   2.181  0.1327  0.0623  0.9021
 6519TIP3    H140972   1.532   2.074   2.156 -0.2254  1.4028  0.4785
 6519TIP3    H240973   1.676   2.077   2.108  0.0048 -0.4216  0.9764
 6520TIP3   OH240974   3.782   1.868   2.677  0.4912 -0.6087 -0.4933
 6520TIP3    H140975   3.847   1.876   2.747 -0.8271  2.3552  0.5273
 6520TIP3    H240976   3.711   1.816   2.716  0.5274 -0.4759 -0.2492
 6521TIP3   OH240977   1.847   4.171   0.915 -0.1645 -0.4235 -0.1752
 6521TIP3    H140978   1.763   4.146   0.877 -1.2055 -1.4793  2.5301
 6521TIP3    H240979   1.827   4.193   1.006  1.9343  3.0827 -0.3482
 6522TIP3   OH240980   2.386   5.514  11.596 -0.3549  0.1182 -0.0855
 6522TIP3    H140981   2.339   5.553  11.523  0.5739  0.9713 -0.2460
 6522TIP3    H240982   2.478   5.540  11.583 -0.0660 -0.2817  1.0045
 6523TIP3   OH240983   1.111   0.391   0.634  0.0767 -0.0021  0.0573
 6523TIP3    H140984   1.105   0.354   0.723 -0.4374 -0.0454  0.0070
 6523TIP3    H240985   1.047   0.461   0.633  1.6490  1.5271  0.4309
 6524TIP3   OH240986   3.628   5.875  11.427 -0.1985 -0.7005  0.0836
 6524TIP3    H140987   3.563   5.927  11.474 -0.9590  0.6220 -2.2727
 6524TIP3    H240988   3.586   5.852  11.344  2.1850 -0.0604 -1.4155
 6525TIP3   OH240989   3.840   3.178  15.749 -0.4800 -0.2296  0.1413
 6525TIP3    H140990   3.814   3.261  15.790  1.9917  1.6018 -1.6953
 6525TIP3    H240991   3.775   3.115  15.780 -1.3000  1.9043  3.2715
 6526TIP3   OH240992   1.892   4.230  15.347  0.6350 -0.3723 -0.2931
 6526TIP3    H140993   1.834   4.195  15.415  1.4069 -1.4109 -0.1248
 6526TIP3    H240994   1.973   4.179  15.358  2.7445  2.9729  1.4860
 6527TIP3   OH240995   0.880   0.348  14.718 -0.5073  0.0724  0.0212
 6527TIP3    H140996   0.831   0.370  14.798 -1.2893 -2.1673  0.2081
 6527TIP3    H240997   0.927   0.268  14.739  0.6670  0.3841 -1.2413
 6528TIP3   OH240998   2.984   3.587   1.135  0.0183 -0.8577  0.2729
 6528TIP3    H140999   3.018   3.564   1.048  1.3955 -0.7139  0.7487
 6528TIP3    H241000   3.028   3.669   1.157 -2.5313  0.6962 -0.0982
 6529TIP3   OH241001   0.417   5.401   1.871 -0.0850  0.0897  0.6322
 6529TIP3    H141002   0.438   5.311   1.897 -0.5773 -0.6205 -1.2230
 6529TIP3    H241003   0.331   5.393   1.829 -0.9819  1.7576  2.0351
 6530TIP3   OH241004   0.004   6.750  13.799  0.2448  0.0106 -1.1624
 6530TIP3    H141005   0.009   6.693  13.875 -2.1495 -0.0621 -0.9811
 6530TIP3    H241006   0.068   6.714  13.737  1.3689 -0.6421  0.3353
 6531TIP3   OH241007   0.777   3.565  10.922 -0.1937 -0.1174 -0.2928
 6531TIP3    H141008   0.819   3.493  10.875 -1.1276  0.5552 -2.2598
 6531TIP3    H241009   0.700   3.526  10.962 -0.2693 -0.3741 -0.6840
 6532TIP3   OH241010   1.844   5.028  12.739  0.0829 -0.6371  0.3017
 6532TIP3    H141011   1.877   4.975  12.812  0.8527  0.7739  1.0214
 6532TIP3    H241012   1.846   5.118  12.772 -1.3712 -0.1598 -0.8218
 6533TIP3   OH241013   4.521   6.611  11.612 -0.2925  0.1616  0.2125
 6533TIP3    H141014   4.479   6.684  11.568  1.2230  1.3250  0.6077
 6533TIP3    H241015   4.614   6.632  11.610  0.3097 -2.2582 -0.5313
 6534TIP3   OH241016   4.329   5.416  15.813  0.1244 -0.4195  0.2871
 6534TIP3    H141017   4.311   5.371  15.730  1.7970  0.2146 -0.4457
 6534TIP3    H241018   4.294   5.356  15.879 -2.5581 -0.2992 -0.8590
 6535TIP3   OH241019   4.844   1.673   5.992 -0.5045 -0.1278  0.8804
 6535TIP3    H141020   4.762   1.720   5.978  0.0929  0.6339 -0.2002
 6535TIP3    H241021   4.853   1.618   5.915 -0.3590 -0.7669  1.3493
 6536TIP3   OH241022   2.759   2.723   4.656 -0.2193  0.1772 -0.0945
 6536TIP3    H141023   2.767   2.728   4.751 -0.6659  2.9097 -0.1300
 6536TIP3    H241024   2.819   2.653   4.630  1.6433  0.8779  2.0109
 6537TIP3   OH241025   1.117   1.782   3.055 -0.0145 -0.3815 -1.0206
 6537TIP3    H141026   1.102   1.770   3.149  1.9076 -1.6834 -0.8266
 6537TIP3    H241027   1.033   1.764   3.015 -0.7799 -0.1804  0.4178
 6538TIP3   OH241028   3.431   6.067   2.379  0.2669  0.3520  0.5383
 6538TIP3    H141029   3.487   6.137   2.347 -0.1795  0.4030 -0.1590
 6538TIP3    H241030   3.414   6.090   2.471 -1.5874  2.3421 -0.1995
 6539TIP3   OH241031   3.313   1.232  15.374 -0.4921 -0.0124  0.0621
 6539TIP3    H141032   3.395   1.277  15.354  0.7320 -0.6830  3.0366
 6539TIP3    H241033   3.255   1.301  15.406 -1.9806  0.8200 -3.7980
 6540TIP3   OH241034   6.197   5.393   0.527  0.6038  0.1376  0.7818
 6540TIP3    H141035   6.217   5.359   0.440  0.6426 -0.7384  1.1203
 6540TIP3    H241036   6.229   5.326   0.587 -0.4313  0.2057  1.4416
 6541TIP3   OH241037   2.905   2.376  14.286 -0.4877  0.1527  0.3522
 6541TIP3    H141038   2.986   2.367  14.235  2.1739  0.5754  4.1054
 6541TIP3    H241039   2.866   2.458  14.256  0.5428  0.0727 -1.3618
 6542TIP3   OH241040   4.893   5.050  12.085 -0.0431  0.7002  0.3512
 6542TIP3    H141041   4.881   5.135  12.042 -1.0123  0.2615 -0.2742
 6542TIP3    H241042   4.889   4.986  12.014 -2.3829 -0.0891  1.0802
 6543TIP3   OH241043   2.262   0.627   0.660 -0.1043  0.0131 -0.5031
 6543TIP3    H141044   2.337   0.685   0.659 -0.5945  0.6702 -2.0798
 6543TIP3    H241045   2.262   0.589   0.748  1.8144  0.2908 -0.3401
 6544TIP3   OH241046   0.771   4.088   4.025 -0.1176  0.2262  0.1015
 6544TIP3    H141047   0.802   4.054   4.109 -1.4487  0.8402  0.8912
 6544TIP3    H241048   0.711   4.021   3.992 -1.1782  0.8434  0.6795
 6545TIP3   OH241049   5.587   5.758   5.415  0.0671  0.4251 -0.3616
 6545TIP3    H141050   5.586   5.669   5.449  0.2708  0.1073 -1.1496
 6545TIP3    H241051   5.507   5.798   5.447 -1.0453 -0.6856 -1.6383
 6546TIP3   OH241052   4.923   6.168   3.484  0.6286 -0.1810 -0.1868
 6546TIP3    H141053   4.854   6.194   3.422  0.1661  2.0553  1.1486
 6546TIP3    H241054   4.893   6.086   3.521 -0.1813 -0.4086 -1.2978
 6547TIP3   OH241055   1.258   0.496  11.348 -0.3730 -0.0983  0.5952
 6547TIP3    H141056   1.267   0.542  11.265  0.0422 -1.2980 -0.0480
 6547TIP3    H241057   1.165   0.505  11.371 -0.1061  1.9720  1.0637
 6548TIP3   OH241058   0.840   6.349   4.114  0.0777  0.7742  0.1412
 6548TIP3    H141059   0.762   6.315   4.071  0.1968 -0.7153  1.0280
 6548TIP3    H241060   0.807   6.399   4.189 -0.0391  0.3153  0.3988
 6549TIP3   OH241061   0.680   3.332   1.195 -0.4167  0.7874  0.0198
 6549TIP3    H141062   0.726   3.326   1.279 -0.8974  0.0195  0.2347
 6549TIP3    H241063   0.667   3.426   1.182 -2.0782  0.8481  1.7591
 6550TIP3   OH241064   3.003   0.328   3.548  0.2352  0.6509  0.2784
 6550TIP3    H141065   3.078   0.367   3.592 -0.9381  1.6688  1.4756
 6550TIP3    H241066   2.995   0.377   3.466  2.8764 -1.7375 -1.5728
 6551TIP3   OH241067   0.431   5.212  15.199  0.3566 -0.4352  0.2047
 6551TIP3    H141068   0.495   5.212  15.127  1.4224 -0.9977  1.1121
 6551TIP3    H241069   0.447   5.130  15.245 -0.8900 -0.4795  0.5991
 6552TIP3   OH241070   2.115   0.919   2.476 -0.0884 -0.7613 -0.0447
 6552TIP3    H141071   2.171   0.908   2.552 -0.1998 -1.7134 -0.0875
 6552TIP3    H241072   2.153   0.861   2.410 -0.5901 -0.7203 -0.3724
 6553TIP3   OH241073   0.042   5.148  13.222 -0.1350  0.0469  1.3196
 6553TIP3    H141074  -0.044   5.106  13.225 -0.4357  0.4650 -0.1970
 6553TIP3    H241075   0.027   5.236  13.255 -0.8288  0.8610 -0.9700
 6554TIP3   OH241076   6.225   6.041   1.090  0.2672 -0.3330 -0.2472
 6554TIP3    H141077   6.180   6.110   1.041  0.4534 -0.2888 -0.3583
 6554TIP3    H241078   6.250   6.081   1.173  2.1241  0.3451 -1.0815
 6555TIP3   OH241079   5.440   0.814  11.848  0.8106 -0.2370 -0.3421
 6555TIP3    H141080   5.373   0.882  11.836  0.0259 -1.0712 -0.8354
 6555TIP3    H241081   5.499   0.850  11.914  0.5546  1.0289 -0.7785
 6556TIP3   OH241082   4.007   5.057  17.227 -0.1382  0.4192  0.5559
 6556TIP3    H141083   4.001   5.149  17.251 -0.5852  0.7006 -0.5393
 6556TIP3    H241084   3.923   5.038  17.183  0.6829  0.0450 -0.9432
 6557TIP3   OH241085   2.602   4.709   2.023 -1.0308  0.3579  0.3287
 6557TIP3    H141086   2.526   4.732   1.969 -0.9795  0.0287  0.1142
 6557TIP3    H241087   2.657   4.656   1.965 -0.5173  0.8043  0.4045
 6558TIP3   OH241088   6.212   0.291  11.999 -0.5026  0.3875  0.6059
 6558TIP3    H141089   6.277   0.322  12.063 -0.3610  1.5501 -0.0612
 6558TIP3    H241090   6.229   0.344  11.921 -1.3049 -0.3296 -0.0735
 6559TIP3   OH241091   4.152   6.315   1.980  0.1140  0.4152 -0.0616
 6559TIP3    H141092   4.138   6.270   2.063  1.3892  1.3651  0.7030
 6559TIP3    H241093   4.247   6.317   1.969  0.0189  1.4346 -0.8947
 6560TIP3   OH241094   5.763   2.233   4.417  0.2200  0.0464 -0.3345
 6560TIP3    H141095   5.701   2.161   4.401  0.8814 -0.5715 -0.1910
 6560TIP3    H241096   5.709   2.312   4.416 -0.2914 -0.2534 -2.3467
 6561TIP3   OH241097   3.492   3.457   2.683 -0.1231  0.0786  0.6408
 6561TIP3    H141098   3.486   3.366   2.654  0.9753  0.4723 -1.0044
 6561TIP3    H241099   3.406   3.494   2.663 -0.9319 -0.8202  2.2923
 6562TIP3   OH241100   0.570   5.221  17.042 -0.7785 -0.3626  0.0825
 6562TIP3    H141101   0.550   5.276  17.118  1.6590  1.9523 -0.7977
 6562TIP3    H241102   0.555   5.278  16.967 -1.9545 -2.2158 -1.1660
 6563TIP3   OH241103   3.672   2.336  14.789 -0.6485  0.3043 -0.1513
 6563TIP3    H141104   3.748   2.332  14.847  0.3514  1.1580 -1.3497
 6563TIP3    H241105   3.600   2.367  14.845  0.1059  0.4115  0.7839
 6564TIP3   OH241106   3.698   4.566   2.939  0.2933  0.1079 -0.3126
 6564TIP3    H141107   3.670   4.560   2.847  0.7345 -0.8994 -0.4025
 6564TIP3    H241108   3.624   4.532   2.989  0.7887 -1.2834 -0.4591
 6565TIP3   OH241109   5.519   0.735   3.472 -0.1005  1.0731  0.1455
 6565TIP3    H141110   5.592   0.676   3.455  1.7402  2.1906  3.2264
 6565TIP3    H241111   5.476   0.698   3.549 -1.1708  1.8558 -0.0521
 6566TIP3   OH241112   0.976   3.725  17.017 -0.0709  0.0855 -0.1381
 6566TIP3    H141113   1.068   3.700  17.022 -0.0338  0.3918  1.1943
 6566TIP3    H241114   0.961   3.775  17.097 -1.3415  0.2256 -0.4480
 6567TIP3   OH241115   6.766   2.388   2.954 -0.4140 -0.1712  0.0680
 6567TIP3    H141116   6.693   2.327   2.963 -0.9373  0.3557 -0.5254
 6567TIP3    H241117   6.773   2.430   3.040 -2.3822  1.5098 -0.5211
 6568TIP3   OH241118   3.751   0.460   6.410  0.6750  0.1876  0.3897
 6568TIP3    H141119   3.771   0.539   6.360  0.7402 -0.3676 -0.4689
 6568TIP3    H241120   3.680   0.417   6.361  1.1870 -0.6960  0.4040
 6569TIP3   OH241121   1.499   4.125  13.870 -0.1829  0.1688  0.6578
 6569TIP3    H141122   1.577   4.168  13.906  0.9861  0.2336 -1.7462
 6569TIP3    H241123   1.434   4.195  13.863  1.1247  1.2740 -1.5925
 6570TIP3   OH241124   3.736   3.664   4.405 -0.8541  0.0800  0.2138
 6570TIP3    H141125   3.827   3.676   4.433 -0.3503  0.5392 -1.4911
 6570TIP3    H241126   3.738   3.678   4.311 -2.6486 -0.2709  0.0859
 6571TIP3   OH241127   5.216   6.357  15.604  0.2864  0.1929 -0.0139
 6571TIP3    H141128   5.215   6.268  15.638  1.5458  0.5494  1.0581
 6571TIP3    H241129   5.262   6.408  15.672 -1.1069  1.8157 -0.2169
 6572TIP3   OH241130   4.100   2.846   6.023  0.4064  0.0740  0.2033
 6572TIP3    H141131   4.096   2.891   5.938 -1.3841  0.4245  0.4170
 6572TIP3    H241132   4.082   2.755   6.003 -0.1872  0.1845  0.1985
 6573TIP3   OH241133   1.732   2.389   3.944  0.2132  0.4927  0.0155
 6573TIP3    H141134   1.746   2.321   4.009 -0.2441 -0.3046 -0.6984
 6573TIP3    H241135   1.704   2.342   3.865 -1.0247  1.5597 -0.2221
 6574TIP3   OH241136   5.512   4.521  15.483 -0.0830  0.0348  0.5685
 6574TIP3    H141137   5.480   4.480  15.403  1.4329 -1.5373  0.7026
 6574TIP3    H241138   5.433   4.543  15.532 -1.0187  0.3597 -1.0122
 6575TIP3   OH241139   5.808   6.018   1.339  0.4460 -0.6123 -0.1949
 6575TIP3    H141140   5.864   6.071   1.282 -0.4944 -0.2794 -0.8467
 6575TIP3    H241141   5.797   5.936   1.290 -1.5102  0.1948 -1.2253
 6576TIP3   OH241142   6.696   4.447   6.439 -0.0202 -0.2750  0.3475
 6576TIP3    H141143   6.650   4.487   6.513 -0.2498  1.8484 -0.8493
 6576TIP3    H241144   6.746   4.375   6.477  1.5675  2.0024  2.9586
 6577TIP3   OH241145   0.141   6.187  13.081 -0.5629  0.4682 -0.1746
 6577TIP3    H141146   0.130   6.092  13.073 -0.1806  0.5437 -1.9955
 6577TIP3    H241147   0.079   6.224  13.018 -0.3162  1.4103  0.1243
 6578TIP3   OH241148   4.588   4.446   2.861  0.5646 -0.0568  0.3159
 6578TIP3    H141149   4.496   4.466   2.845  0.5053  0.3673  1.1129
 6578TIP3    H241150   4.634   4.478   2.784  0.1604  0.7169  0.3889
 6579TIP3   OH241151   0.108   5.927  14.452 -0.2821 -0.7626 -0.6179
 6579TIP3    H141152   0.038   5.865  14.472  0.9380 -2.2291 -0.6047
 6579TIP3    H241153   0.170   5.876  14.399  2.4843 -0.7138  2.2349
 6580TIP3   OH241154   5.123   3.486   3.776 -0.2610  0.1663 -0.0175
 6580TIP3    H141155   5.031   3.478   3.750  0.0768 -2.3684 -0.7791
 6580TIP3    H241156   5.169   3.421   3.721  1.7370  0.3213  1.3653
 6581TIP3   OH241157   5.896   4.417   0.758  0.0091 -0.2430  0.4784
 6581TIP3    H141158   5.861   4.467   0.684 -0.4391  0.3971  1.1087
 6581TIP3    H241159   5.977   4.380   0.725  0.6784  1.4112  0.1628
 6582TIP3   OH241160   0.468   0.506  14.101  0.0386 -0.7209 -0.0816
 6582TIP3    H141161   0.399   0.440  14.092 -0.1320 -0.6121  0.4282
 6582TIP3    H241162   0.440   0.561  14.174  0.0852  0.0385 -0.6252
 6583TIP3   OH241163   1.200   1.373   4.926  0.2680  0.3425  0.0256
 6583TIP3    H141164   1.136   1.307   4.902  0.8416  0.4655 -1.9958
 6583TIP3    H241165   1.162   1.417   5.002 -0.2816 -2.0272  1.2042
 6584TIP3   OH241166   5.778   1.078  10.564  0.3916 -0.3062 -0.5948
 6584TIP3    H141167   5.853   1.035  10.523  1.1918  0.7821 -0.3015
 6584TIP3    H241168   5.758   1.151  10.506  1.3299  1.0637  0.7225
 6585TIP3   OH241169   2.520   1.538  15.745 -0.3357 -0.4255  0.6522
 6585TIP3    H141170   2.474   1.508  15.666 -0.9239  1.4291  0.2545
 6585TIP3    H241171   2.492   1.477  15.813 -0.3856 -1.6177 -0.3964
 6586TIP3   OH241172   3.117   1.679   2.222 -0.3204 -0.5287 -0.3737
 6586TIP3    H141173   3.119   1.775   2.220  0.0124 -0.5417 -0.8350
 6586TIP3    H241174   3.140   1.653   2.132 -1.3792 -1.0227 -0.5164
 6587TIP3   OH241175   0.600   2.147   0.857  0.0219 -0.5336  0.6268
 6587TIP3    H141176   0.531   2.150   0.923 -0.1783 -0.3550  0.4153
 6587TIP3    H241177   0.609   2.055   0.834 -1.3152 -0.4075 -0.5442
 6588TIP3   OH241178   2.902   2.846  14.071 -0.6046 -0.1700 -0.3252
 6588TIP3    H141179   2.865   2.768  14.030 -0.5053 -0.3803 -0.0160
 6588TIP3    H241180   2.974   2.872  14.013  0.7105 -1.5231  0.6454
 6589TIP3   OH241181   3.749   6.243  16.780 -0.2627  0.2305 -0.0913
 6589TIP3    H141182   3.800   6.163  16.773 -2.9172 -1.4344 -2.1049
 6589TIP3    H241183   3.696   6.231  16.858  0.1090  0.5576  0.2190
 6590TIP3   OH241184   1.319   6.321  11.056  0.7020 -0.2189  0.0298
 6590TIP3    H141185   1.408   6.335  11.088  0.5454 -1.8692  1.2961
 6590TIP3    H241186   1.326   6.245  10.999  0.0585 -0.5290  0.3600
 6591TIP3   OH241187   3.014   3.787  13.505 -0.1509  0.2688  0.0219
 6591TIP3    H141188   3.080   3.735  13.551 -1.6542  0.0286  2.0638
 6591TIP3    H241189   3.002   3.742  13.422  0.3078 -1.2796  0.7545
 6592TIP3   OH241190   1.698   1.694   2.604 -0.2997  0.1014  0.0585
 6592TIP3    H141191   1.729   1.762   2.664 -0.8468 -0.9078  1.5566
 6592TIP3    H241192   1.775   1.672   2.551  0.4996  0.3102  1.0914
 6593TIP3   OH241193   4.261   6.610   0.424  0.4277  0.4054  0.4941
 6593TIP3    H141194   4.281   6.687   0.371 -1.3888  0.0023 -0.8824
 6593TIP3    H241195   4.333   6.604   0.486  3.1553  0.4539 -2.4121
 6594TIP3   OH241196   2.120   2.625   1.821  0.0544  0.1220 -0.7382
 6594TIP3    H141197   2.051   2.587   1.875 -0.1550  1.7684  0.2335
 6594TIP3    H241198   2.165   2.550   1.782 -0.3508 -1.1117  1.0400
 6595TIP3   OH241199   2.358   4.017   5.083  0.1247 -0.4886  0.2090
 6595TIP3    H141200   2.342   4.107   5.113 -1.6594 -0.9350  0.7021
 6595TIP3    H241201   2.431   3.987   5.137  2.9535  1.6284 -2.0678
 6596TIP3   OH241202   0.548   1.022  13.619 -0.3404  0.3827 -0.1506
 6596TIP3    H141203   0.550   1.117  13.602  1.4050  0.5977  1.0314
 6596TIP3    H241204   0.506   1.015  13.705 -0.0713  0.1155 -0.0422
 6597TIP3   OH241205   2.644   6.683  14.400 -0.2593 -0.0238 -0.1263
 6597TIP3    H141206   2.589   6.750  14.358 -0.7850  0.1999  0.8944
 6597TIP3    H241207   2.615   6.601  14.361 -0.3210  0.2343 -0.6408
 6598TIP3   OH241208   3.641   0.918  11.681 -0.3047  0.4174  0.2900
 6598TIP3    H141209   3.601   0.990  11.632  0.0591  0.7895  0.5296
 6598TIP3    H241210   3.634   0.842  11.623 -1.8119  0.3423  0.5260
 6599TIP3   OH241211   3.959   5.494  14.513  0.2489  0.0908  0.4128
 6599TIP3    H141212   3.980   5.425  14.450  0.5752 -0.7333  1.3973
 6599TIP3    H241213   3.865   5.487  14.526  0.0933  0.6164 -0.3721
 6600TIP3   OH241214   5.062   4.517   4.723 -0.0115 -0.4216 -0.3224
 6600TIP3    H141215   5.131   4.453   4.741  0.4312 -0.7425 -2.8184
 6600TIP3    H241216   5.095   4.567   4.649 -1.6988  0.6538 -0.3948
 6601TIP3   OH241217   1.465   4.538  14.849 -0.6910 -0.2665 -0.0067
 6601TIP3    H141218   1.477   4.593  14.772  0.9641  1.3943  1.3621
 6601TIP3    H241219   1.544   4.484  14.852 -1.3968 -1.3574 -0.2083
 6602TIP3   OH241220   1.367   4.910   0.682 -0.0204  0.0738  0.0933
 6602TIP3    H141221   1.422   4.961   0.741 -1.0040 -0.0239  1.1105
 6602TIP3    H241222   1.290   4.965   0.666  0.9366  0.8291 -2.4559
 6603TIP3   OH241223   6.269   1.348  14.888 -0.0189 -0.2121 -0.6466
 6603TIP3    H141224   6.180   1.383  14.888 -0.6717 -1.7448 -2.6629
 6603TIP3    H241225   6.321   1.416  14.845 -0.8946 -0.7666 -2.6683
 6604TIP3   OH241226   5.536   3.880  14.036 -0.4467  0.1070  0.3760
 6604TIP3    H141227   5.621   3.840  14.017 -0.8917 -0.6738 -0.0899
 6604TIP3    H241228   5.552   3.940  14.108  0.4510 -0.2102  0.4515
 6605TIP3   OH241229   4.549   2.146  14.072  0.3086 -0.0387 -0.5586
 6605TIP3    H141230   4.505   2.191  14.144  1.2791  1.8494 -1.1094
 6605TIP3    H241231   4.619   2.096  14.113  0.3596  0.3991 -0.1182
 6606TIP3   OH241232   0.671   2.785  14.337  0.5581 -0.4149  0.5727
 6606TIP3    H141233   0.717   2.857  14.380 -1.0509  2.1995 -1.7024
 6606TIP3    H241234   0.699   2.791  14.245 -3.0753  0.4986 -0.6511
 6607TIP3   OH241235   6.396   6.621  11.571 -0.2229  0.0207 -0.1974
 6607TIP3    H141236   6.356   6.543  11.535 -0.7194  0.1086  0.1640
 6607TIP3    H241237   6.477   6.632  11.521 -1.0783  0.3525 -1.5436
 6608TIP3   OH241238   5.792   4.583  13.606  0.8045  0.2119 -0.2137
 6608TIP3    H141239   5.727   4.650  13.629  0.6390 -0.0702  0.1492
 6608TIP3    H241240   5.747   4.525  13.545 -0.1743 -1.4789  1.9876
 6609TIP3   OH241241   0.252   6.647  15.790  0.0577 -0.2103 -0.2033
 6609TIP3    H141242   0.248   6.694  15.707 -0.6514  0.0301 -0.0408
 6609TIP3    H241243   0.226   6.711  15.856 -2.0586 -1.0911 -0.1060
 6610TIP3   OH241244   2.159   1.727   2.725 -0.0001  0.0473  0.1996
 6610TIP3    H141245   2.117   1.737   2.811 -0.5518 -0.5816  0.0063
 6610TIP3    H241246   2.102   1.669   2.676  1.0086 -0.7111 -0.1258
 6611TIP3   OH241247   0.236   0.164   4.730  0.4106  0.4381 -0.1767
 6611TIP3    H141248   0.299   0.116   4.676  0.0194 -0.1168 -0.1583
 6611TIP3    H241249   0.162   0.103   4.738 -0.5213  1.4262 -0.9693
 6612TIP3   OH241250   6.398   6.457   5.036  0.0534 -0.3423 -0.0172
 6612TIP3    H141251   6.415   6.400   5.111  2.6774 -0.6434 -0.7526
 6612TIP3    H241252   6.483   6.465   4.992 -0.5949  2.7570 -0.9310
 6613TIP3   OH241253   0.237   5.150  12.865 -0.3999  0.3659 -0.3051
 6613TIP3    H141254   0.167   5.133  12.801 -1.1853  1.5309  0.2189
 6613TIP3    H241255   0.315   5.165  12.811 -0.4983 -1.0208 -0.8957
 6614TIP3   OH241256   1.596   5.611   2.011 -0.1356  0.4011 -0.0429
 6614TIP3    H141257   1.578   5.557   1.934 -0.3608 -0.4732  0.6056
 6614TIP3    H241258   1.515   5.659   2.025 -1.0157 -1.2895  1.0837
 6615TIP3   OH241259   0.916   0.678   5.973 -0.2333 -0.1782 -0.2216
 6615TIP3    H141260   0.892   0.643   6.059 -0.5780  1.5397  0.4111
 6615TIP3    H241261   1.004   0.643   5.957 -0.0637 -0.3250  0.9449
 6616TIP3   OH241262   2.948   3.546  16.023  0.3813 -0.1238  0.0803
 6616TIP3    H141263   3.038   3.513  16.027  0.8032  0.6971 -1.6674
 6616TIP3    H241264   2.932   3.559  15.930 -1.2645  0.5631  0.4337
 6617TIP3   OH241265   2.995   4.426   1.720  0.0535  0.3116 -0.4131
 6617TIP3    H141266   3.063   4.424   1.653  0.0152  0.4718 -0.4554
 6617TIP3    H241267   2.980   4.519   1.736  0.1868  0.2718 -0.0562
 6618TIP3   OH241268   0.693   4.540  16.512  0.1651  0.6769 -0.8365
 6618TIP3    H141269   0.746   4.605  16.466  1.2794  0.8966  0.6740
 6618TIP3    H241270   0.651   4.490  16.443  1.2122  1.4509 -2.0778
 6619TIP3   OH241271   0.478   5.234   4.446 -0.0852 -0.2892 -0.1159
 6619TIP3    H141272   0.404   5.204   4.393 -0.1777  0.5832 -0.4934
 6619TIP3    H241273   0.552   5.234   4.386  0.0392 -0.3275  0.0378
 6620TIP3   OH241274   4.847   5.987   2.378  0.0735  0.4998  0.4624
 6620TIP3    H141275   4.811   5.985   2.466 -1.7192  1.4161 -0.1815
 6620TIP3    H241276   4.896   5.906   2.369  0.4242  0.4780  2.3437
 6621TIP3   OH241277   4.076   6.169   0.952  0.0092  0.9472 -0.1164
 6621TIP3    H141278   4.157   6.153   1.001  1.2011  1.1514 -1.9309
 6621TIP3    H241279   4.051   6.259   0.977  1.0717  1.3680 -0.4971
 6622TIP3   OH241280   4.433   3.987  16.522 -0.1033  0.5468 -0.1591
 6622TIP3    H141281   4.500   4.041  16.564  0.0307  1.0606 -1.0140
 6622TIP3    H241282   4.425   3.910  16.578 -0.6431  1.6623  1.3618
 6623TIP3   OH241283   6.397   2.990  14.238  0.2951  0.0229 -0.0029
 6623TIP3    H141284   6.380   2.920  14.175  0.7330  0.0473 -0.1567
 6623TIP3    H241285   6.486   2.972  14.269  0.4300  0.5427 -0.0864
 6624TIP3   OH241286   6.136   4.552  14.370 -0.2032 -0.1241  0.0544
 6624TIP3    H141287   6.078   4.506  14.308 -0.4359  2.0750 -1.4835
 6624TIP3    H241288   6.110   4.520  14.456 -3.0666  0.0330 -0.6530
 6625TIP3   OH241289   0.992   2.962   1.528  0.0673 -0.0290 -0.2177
 6625TIP3    H141290   0.918   2.916   1.568 -0.8202  1.5347  0.0303
 6625TIP3    H241291   1.007   3.037   1.586  0.9955  0.4021 -0.9875
 6626TIP3   OH241292   3.416   2.458   4.206  0.2127  0.0362 -0.1502
 6626TIP3    H141293   3.479   2.530   4.211  1.2544 -0.8279 -0.5065
 6626TIP3    H241294   3.359   2.471   4.282  0.8137  0.8376  0.1808
 6627TIP3   OH241295   1.219   1.453  11.192  0.3361 -0.3032 -0.2800
 6627TIP3    H141296   1.275   1.411  11.126  2.8707  2.7522 -0.3191
 6627TIP3    H241297   1.170   1.520  11.143 -2.0852 -1.6981  0.0907
 6628TIP3   OH241298   2.739   0.885  11.802 -0.1630 -0.3625  0.2486
 6628TIP3    H141299   2.820   0.936  11.812  0.8280 -1.3012 -2.1612
 6628TIP3    H241300   2.737   0.863  11.709 -1.2544 -3.5254  0.9161
 6629TIP3   OH241301   0.291   2.134   3.867 -0.3192 -0.1387  0.0238
 6629TIP3    H141302   0.300   2.164   3.957  0.4498  0.6991 -0.3179
 6629TIP3    H241303   0.246   2.049   3.874 -0.0332 -0.2063  1.1981
 6630TIP3   OH241304   5.561   6.628  12.350  0.0067  0.0995 -0.0882
 6630TIP3    H141305   5.510   6.594  12.276  0.2202  0.6387 -0.4925
 6630TIP3    H241306   5.540   6.570  12.423 -0.6582 -0.0931 -0.4266
 6631TIP3   OH241307   2.839   3.569   0.353  0.3722  0.6425  0.3394
 6631TIP3    H141308   2.860   3.633   0.421  1.9833 -0.3682  0.8725
 6631TIP3    H241309   2.801   3.495   0.400  0.7333  0.2692  0.0599
 6632TIP3   OH241310   4.201   1.986   1.038  0.6542  0.6300  0.2584
 6632TIP3    H141311   4.277   1.929   1.044  1.5934  1.5591 -1.9847
 6632TIP3    H241312   4.147   1.947   0.970 -0.8374  0.0966  1.6758
 6633TIP3   OH241313   2.163   5.860   5.135 -0.5696  0.2386 -0.0337
 6633TIP3    H141314   2.225   5.850   5.063  2.1640  0.5356  2.1204
 6633TIP3    H241315   2.095   5.918   5.100  0.0516 -0.4858 -2.6623
 6634TIP3   OH241316   5.407   4.274   6.442  0.3800 -0.8785  0.4015
 6634TIP3    H141317   5.477   4.219   6.477  1.6070  1.2075  1.4193
 6634TIP3    H241318   5.440   4.304   6.357 -0.1769 -1.4802 -0.0380
 6635TIP3   OH241319   0.375   0.790  13.673 -0.3190  0.2382 -0.4073
 6635TIP3    H141320   0.470   0.787  13.663 -0.4472 -0.7996 -1.5615
 6635TIP3    H241321   0.353   0.715  13.728 -0.5279  0.0282 -0.7704
 6636TIP3   OH241322   5.422   1.002  12.994 -0.1062  0.3618 -0.5215
 6636TIP3    H141323   5.341   0.956  12.971 -0.7147  1.0288  0.2370
 6636TIP3    H241324   5.395   1.092  13.008  0.5052  0.3163  1.1656
 6637TIP3   OH241325   5.696   3.914   4.693  0.1253 -0.6431  0.2931
 6637TIP3    H141326   5.765   3.947   4.635  0.9672  0.7228  1.9863
 6637TIP3    H241327   5.712   3.820   4.698  1.1370 -0.5175 -0.2788
 6638TIP3   OH241328   0.407   2.890  16.955 -0.7967  0.4724 -0.5594
 6638TIP3    H141329   0.388   2.839  16.877 -0.5279  1.1776 -1.0939
 6638TIP3    H241330   0.327   2.941  16.970 -0.3741  1.3297 -1.1604
 6639TIP3   OH241331   1.446   3.477   4.861  0.4812  0.5577 -0.0448
 6639TIP3    H141332   1.397   3.424   4.923 -0.1665  0.4668 -0.6281
 6639TIP3    H241333   1.431   3.567   4.890  0.4530  0.4974  0.1286
 6640TIP3   OH241334   4.990   1.674   4.022  0.2362  0.4144  0.0108
 6640TIP3    H141335   4.954   1.610   3.960 -1.2180  0.1465  1.0858
 6640TIP3    H241336   4.990   1.757   3.973 -1.4082  0.3206 -0.2287
 6641TIP3   OH241337   5.628   3.774   3.401  0.4659 -0.1690 -0.3040
 6641TIP3    H141338   5.653   3.866   3.410  1.4959 -0.4944  0.2353
 6641TIP3    H241339   5.586   3.752   3.484  1.5324 -0.5832  0.1334
 6642TIP3   OH241340   6.309   0.966  15.818 -0.4419 -0.3829  0.3480
 6642TIP3    H141341   6.296   0.930  15.730  0.5179 -0.2250  0.1286
 6642TIP3    H241342   6.387   1.021  15.810 -0.4218 -0.2594  1.2747
 6643TIP3   OH241343   6.337   1.312   2.755 -0.0599 -0.2239  0.0628
 6643TIP3    H141344   6.308   1.279   2.670  2.0737  1.3212 -1.3708
 6643TIP3    H241345   6.432   1.299   2.755  0.1624  1.0719  1.6320
 6644TIP3   OH241346   5.454   0.109  11.609  0.3482  0.4751  0.3355
 6644TIP3    H141347   5.547   0.107  11.585  0.8178 -1.6719  1.9686
 6644TIP3    H241348   5.450   0.168  11.685 -0.2650  3.1926 -1.6843
 6645TIP3   OH241349   4.443   3.222   0.972  0.1897  0.8938  0.2016
 6645TIP3    H141350   4.499   3.298   0.987  1.5360 -0.0883  0.2436
 6645TIP3    H241351   4.447   3.208   0.877  0.0859  0.7546  0.2174
 6646TIP3   OH241352   2.558   5.423   1.667  0.2186 -0.2732  0.1545
 6646TIP3    H141353   2.643   5.462   1.649 -0.0998  1.3709  1.9749
 6646TIP3    H241354   2.531   5.385   1.583  1.8321  0.9214 -0.9611
 6647TIP3   OH241355   0.312   6.227  11.282 -0.1374  0.4112 -0.1819
 6647TIP3    H141356   0.263   6.254  11.204 -0.3025 -0.8803 -0.5409
 6647TIP3    H241357   0.260   6.259  11.355 -0.0391  1.5374 -0.5895
 6648TIP3   OH241358   0.352   4.601  13.850 -0.3182 -0.2202 -0.5438
 6648TIP3    H141359   0.431   4.652  13.864  0.2234 -1.3820  0.8914
 6648TIP3    H241360   0.383   4.512  13.831 -1.2300 -0.9778  1.2198
 6649TIP3   OH241361   6.024   3.552  15.496 -0.4938 -0.4909 -0.2491
 6649TIP3    H141362   6.053   3.496  15.568 -1.0428 -1.3148 -0.6517
 6649TIP3    H241363   5.932   3.528  15.482 -0.7155  0.4534 -0.4934
 6650TIP3   OH241364   4.609   6.155  13.617 -0.2263  0.6837  0.6208
 6650TIP3    H141365   4.542   6.088  13.605  0.5515 -0.4247  2.1998
 6650TIP3    H241366   4.639   6.144  13.707  2.8189  0.4423 -0.3077
 6651TIP3   OH241367   5.587   3.231   6.377  0.1700 -0.9608 -0.4146
 6651TIP3    H141368   5.568   3.147   6.336  0.2831 -0.8777 -0.6388
 6651TIP3    H241369   5.667   3.217   6.426  0.5021 -0.8322 -0.9142
 6652TIP3   OH241370   1.872   6.065   1.506 -0.3213 -0.2032  0.2971
 6652TIP3    H141371   1.947   6.057   1.448  0.1253 -1.3286  1.0151
 6652TIP3    H241372   1.817   5.990   1.485 -0.1706 -0.6050  1.2956
 6653TIP3   OH241373   5.635   6.445   1.755 -0.0440 -0.1559  0.6073
 6653TIP3    H141374   5.622   6.537   1.734  3.8077  0.3803 -0.0245
 6653TIP3    H241375   5.622   6.399   1.671 -1.4211 -0.1787  0.8104
 6654TIP3   OH241376   1.253   0.884  10.444 -0.0942 -0.1917  0.0403
 6654TIP3    H141377   1.217   0.919  10.526 -1.2607 -1.1884 -0.0243
 6654TIP3    H241378   1.224   0.793  10.442  1.1715 -0.5942 -0.7762
 6655TIP3   OH241379   3.084   1.373   1.841 -0.5005 -0.1830 -0.5451
 6655TIP3    H141380   2.999   1.398   1.878  0.1480 -1.5293  2.0855
 6655TIP3    H241381   3.136   1.453   1.846 -0.8002 -0.0298  0.4703
 6656TIP3   OH241382   2.872   1.346   0.600 -0.1908  0.0083  0.6157
 6656TIP3    H141383   2.936   1.416   0.612  1.3383 -1.6182  2.5653
 6656TIP3    H241384   2.867   1.335   0.505  2.8276 -0.0884  0.3648
 6657TIP3   OH241385   6.363   5.473   5.356  0.1039  0.3163  0.1079
 6657TIP3    H141386   6.390   5.442   5.270 -1.9767  0.3153 -0.6197
 6657TIP3    H241387   6.436   5.453   5.414  1.2480 -0.3654 -1.5195
 6658TIP3   OH241388   0.311   2.380   6.522 -0.6984  0.4467 -0.4443
 6658TIP3    H141389   0.322   2.342   6.609 -0.4481 -0.9918 -1.0757
 6658TIP3    H241390   0.396   2.371   6.480 -1.0441  0.3050 -1.1382
 6659TIP3   OH241391   3.943   0.635  13.308  0.3234  0.3165 -0.1709
 6659TIP3    H141392   3.937   0.554  13.358 -1.9750  0.9586  0.7374
 6659TIP3    H241393   3.918   0.611  13.219  3.0048 -0.5498 -0.7783
 6660TIP3   OH241394   2.279   2.194  15.561  0.1189 -0.2155  0.2133
 6660TIP3    H141395   2.244   2.230  15.643  2.0463 -0.3236  1.1656
 6660TIP3    H241396   2.339   2.262  15.529  0.7272 -0.8973 -0.1422
 6661TIP3   OH241397   5.665   0.240  16.652  0.1152  0.3310 -0.1213
 6661TIP3    H141398   5.591   0.214  16.597  0.6094  1.0926 -1.1835
 6661TIP3    H241399   5.631   0.238  16.741 -0.2448 -2.6504 -0.2086
 6662TIP3   OH241400   5.287   3.930   3.263  0.1734 -0.1368  0.0300
 6662TIP3    H141401   5.362   3.882   3.228 -0.4638 -1.4574  0.3940
 6662TIP3    H241402   5.326   3.998   3.318  1.1469  0.9334 -1.8764
 6663TIP3   OH241403   1.089   0.573   4.097  0.5594  0.0165 -0.6355
 6663TIP3    H141404   1.115   0.665   4.103  1.0995 -0.1175 -0.8313
 6663TIP3    H241405   1.172   0.525   4.096  0.2921 -0.4462 -0.9414
 6664TIP3   OH241406   1.725   5.227   5.268 -0.4766  0.6187  0.1693
 6664TIP3    H141407   1.722   5.225   5.364 -1.0129  1.4013  0.1794
 6664TIP3    H241408   1.797   5.169   5.245 -1.1943 -0.6297  0.9873
 6665TIP3   OH241409   0.544   5.561   1.656 -0.0286  0.5074 -0.5439
 6665TIP3    H141410   0.551   5.548   1.751 -0.8563 -0.5676 -0.6131
 6665TIP3    H241411   0.614   5.507   1.619 -1.2388 -1.0664 -0.6447
 6666TIP3   OH241412   1.276   5.066   2.417 -0.5825 -0.6716  0.6068
 6666TIP3    H141413   1.223   4.991   2.443 -1.9236  0.0549  0.0796
 6666TIP3    H241414   1.308   5.103   2.499 -2.6172  0.0717  1.1083
 6667TIP3   OH241415   2.143   2.319   3.468 -0.8373  0.4578 -0.1545
 6667TIP3    H141416   2.183   2.242   3.509  0.3053  1.1022 -0.0180
 6667TIP3    H241417   2.073   2.345   3.528  0.4584  1.0643  1.1308
 6668TIP3   OH241418   1.732   4.173   2.375 -0.5545 -0.4434  0.5938
 6668TIP3    H141419   1.788   4.165   2.298 -0.3248  0.0184  0.7104
 6668TIP3    H241420   1.648   4.136   2.347 -0.9395  1.0725 -0.3655
 6669TIP3   OH241421   0.557   4.906  12.345 -0.2833  0.5334  0.0878
 6669TIP3    H141422   0.651   4.917  12.330 -0.1171 -1.2345 -0.2930
 6669TIP3    H241423   0.534   4.980  12.402  1.3146  1.0270  0.1505
 6670TIP3   OH241424   5.315   0.475  14.214  0.4071 -0.3703 -0.3675
 6670TIP3    H141425   5.394   0.476  14.268 -0.4546  0.6653  0.9398
 6670TIP3    H241426   5.268   0.556  14.238 -1.3163 -1.2206 -0.6983
 6671TIP3   OH241427   0.186   6.767   0.312  0.1147 -0.5957 -0.4918
 6671TIP3    H141428   0.198   6.853   0.272 -0.8730 -0.5922 -0.8101
 6671TIP3    H241429   0.098   6.740   0.285 -0.9083 -0.3036  2.2735
 6672TIP3   OH241430   4.029   1.333   1.426 -0.1926 -0.5360 -0.1715
 6672TIP3    H141431   4.028   1.259   1.487 -1.1189  0.1878  0.7349
 6672TIP3    H241432   3.953   1.386   1.451  0.8312  1.0974 -0.3374
 6673TIP3   OH241433   1.435   4.644   1.468  0.1183  0.3941  0.2534
 6673TIP3    H141434   1.527   4.662   1.447  0.0153 -0.1158 -0.6789
 6673TIP3    H241435   1.437   4.559   1.513 -0.1180 -0.9046 -2.0591
 6674TIP3   OH241436   4.928   0.316   1.416 -0.1386 -0.5924  0.0606
 6674TIP3    H141437   4.946   0.242   1.475  0.4167 -0.7735 -0.3295
 6674TIP3    H241438   4.926   0.277   1.329  1.1933 -0.0108 -0.2651
 6675TIP3   OH241439   6.021   6.721  14.588  0.4590 -0.1427 -0.0128
 6675TIP3    H141440   5.977   6.653  14.538  1.6464 -0.5292 -0.5544
 6675TIP3    H241441   6.109   6.725  14.552  0.2846  2.0564 -0.3774
 6676TIP3   OH241442   1.145   5.583  12.418 -0.0152  0.1555 -0.0634
 6676TIP3    H141443   1.069   5.572  12.360  0.0786 -0.2788 -0.1130
 6676TIP3    H241444   1.115   5.643  12.486 -0.2377  0.4001 -0.3739
 6677TIP3   OH241445   2.872   2.606  10.854 -0.1889 -0.2117  0.3088
 6677TIP3    H141446   2.930   2.570  10.787  0.6584 -0.9894  1.4291
 6677TIP3    H241447   2.793   2.552  10.850  0.1120 -0.6549  0.3690
 6678TIP3   OH241448   4.043   2.448   5.118 -0.0703 -0.1240 -0.4744
 6678TIP3    H141449   3.998   2.526   5.086  1.0309  0.1788 -1.3092
 6678TIP3    H241450   4.000   2.376   5.072 -0.8544  0.0050  0.0380
 6679TIP3   OH241451   5.167   3.132  13.415  0.1109 -0.0611  0.2150
 6679TIP3    H141452   5.131   3.076  13.483 -1.1953  0.7657  0.2348
 6679TIP3    H241453   5.261   3.135  13.434  0.1004 -1.5889  0.6632
 6680TIP3   OH241454   4.310   2.590   2.229  0.3339 -0.1874  0.1333
 6680TIP3    H141455   4.316   2.496   2.211  1.1022 -0.1066 -0.1044
 6680TIP3    H241456   4.375   2.605   2.298  0.4707  0.2289 -0.0833
 6681TIP3   OH241457   5.467   5.815  11.338 -0.8530  0.4760 -0.4878
 6681TIP3    H141458   5.466   5.764  11.419 -0.6259 -0.5024 -1.0907
 6681TIP3    H241459   5.528   5.887  11.356 -1.3695  0.7046  0.4534
 6682TIP3   OH241460   5.736   1.160   0.984 -0.1958  0.2765 -0.6283
 6682TIP3    H141461   5.645   1.142   1.007 -0.5529  1.7787 -0.7761
 6682TIP3    H241462   5.743   1.132   0.893 -1.0293  1.7572 -1.1904
 6683TIP3   OH241463   3.768   2.859  12.132 -0.0141  0.5224 -0.1238
 6683TIP3    H141464   3.734   2.943  12.102 -0.4004  0.5676  0.4114
 6683TIP3    H241465   3.831   2.833  12.066 -1.6929  0.0377 -1.6084
 6684TIP3   OH241466   0.522   5.721  13.415 -0.1533  0.3081 -0.5008
 6684TIP3    H141467   0.447   5.677  13.455  0.7183  0.3342  1.2540
 6684TIP3    H241468   0.494   5.739  13.325 -1.3930 -1.7257 -0.5833
 6685TIP3   OH241469   2.539   0.443  15.165  0.1355  0.0054 -0.1520
 6685TIP3    H141470   2.496   0.520  15.201 -0.3496 -0.7849  1.0283
 6685TIP3    H241471   2.467   0.389  15.132  0.0967 -1.5048  2.1812
 6686TIP3   OH241472   2.110   3.676  11.421  0.1559 -0.9729  0.4445
 6686TIP3    H141473   2.103   3.750  11.482 -0.1153 -1.9063  1.5746
 6686TIP3    H241474   2.028   3.629  11.431  0.8700 -2.1870  0.7440
 6687TIP3   OH241475   2.500   1.714  16.791  0.1724  0.4697  0.0087
 6687TIP3    H141476   2.420   1.722  16.740  0.3153 -0.7976 -0.4615
 6687TIP3    H241477   2.470   1.693  16.880 -0.0316 -0.4688 -0.2671
 6688TIP3   OH241478   1.461   5.689  12.479  0.1805  0.2206 -0.1821
 6688TIP3    H141479   1.464   5.772  12.432  0.4827  0.4644  0.2687
 6688TIP3    H241480   1.393   5.638  12.433 -1.2339  1.3514  0.5683
 6689TIP3   OH241481   6.618   6.552   2.761 -0.1928  0.1307 -0.1803
 6689TIP3    H141482   6.652   6.630   2.805  0.2269 -0.1204 -0.0584
 6689TIP3    H241483   6.548   6.586   2.704  0.8622  0.7707 -1.1282
 6690TIP3   OH241484   5.938   1.589  11.606  0.3630  0.2547 -0.8396
 6690TIP3    H141485   6.014   1.550  11.563 -0.1070  1.3834 -2.8720
 6690TIP3    H241486   5.871   1.520  11.603  0.4416  0.1981 -1.7070
 6691TIP3   OH241487   4.105   5.276   4.282 -0.1571  0.1271 -0.2788
 6691TIP3    H141488   4.119   5.200   4.339  0.5760  0.5280  0.0952
 6691TIP3    H241489   4.182   5.331   4.296 -0.5816  0.8497 -0.6867
 6692TIP3   OH241490   4.009   1.500   3.685 -0.2801  0.2316  0.1689
 6692TIP3    H141491   3.965   1.427   3.641  1.7707 -1.4572  0.7652
 6692TIP3    H241492   4.099   1.471   3.696  0.1941  2.1368  2.0771
 6693TIP3   OH241493   4.354   4.627   4.296  0.1037 -0.5133 -0.3730
 6693TIP3    H141494   4.321   4.545   4.333  1.3639 -0.2742  1.4531
 6693TIP3    H241495   4.448   4.612   4.285  0.2050  0.3973 -0.8323
 6694TIP3   OH241496   2.459   5.850   4.584  0.0645  0.1626 -0.9831
 6694TIP3    H141497   2.365   5.834   4.591  0.0314  0.5959 -0.2742
 6694TIP3    H241498   2.498   5.763   4.591 -0.1634  0.1731  1.6771
 6695TIP3   OH241499   1.199   3.122   2.041 -0.3934  0.1463  0.0592
 6695TIP3    H141500   1.207   3.089   2.130 -0.1412  0.9151  0.3213
 6695TIP3    H241501   1.280   3.093   1.997 -0.2591  0.2521  0.2369
 6696TIP3   OH241502   3.490   0.952  16.857 -0.0677  0.0801 -0.7576
 6696TIP3    H141503   3.462   1.017  16.922  2.0144 -0.2091  0.4982
 6696TIP3    H241504   3.554   0.998  16.804 -1.0995  0.0352 -2.1033
 6697TIP3   OH241505   0.384   0.980   2.399  0.3779  0.2002 -0.0404
 6697TIP3    H141506   0.382   0.985   2.304 -0.5347  0.0189 -0.0413
 6697TIP3    H241507   0.474   0.955   2.420  0.7907  0.9963 -0.8092
 6698TIP3   OH241508   4.891   3.462   3.606  0.3124  0.2240 -0.2261
 6698TIP3    H141509   4.798   3.455   3.586  0.4530  2.0721 -1.7986
 6698TIP3    H241510   4.929   3.380   3.575 -0.4756  0.3781 -1.6695
 6699TIP3   OH241511   0.933   3.689   5.489  0.1737  0.4453  0.1546
 6699TIP3    H141512   0.849   3.735   5.492 -0.2320 -0.3336  2.3124
 6699TIP3    H241513   0.923   3.618   5.552  2.4050  0.2495  0.3427
 6700TIP3   OH241514   2.744   6.505  15.110 -0.4951 -0.1876  0.1968
 6700TIP3    H141515   2.678   6.462  15.055  1.7323 -1.2067 -1.8722
 6700TIP3    H241516   2.806   6.543  15.048  0.1257  2.0163  2.0460
 6701TIP3   OH241517   1.259   2.542  14.574 -0.4306  0.0053  0.2345
 6701TIP3    H141518   1.198   2.556  14.648 -0.8415  0.8283 -0.2394
 6701TIP3    H241519   1.204   2.550  14.496  0.1124 -0.2466 -0.1779
 6702TIP3   OH241520   0.185   6.663  15.249  0.1010  0.3657  0.4617
 6702TIP3    H141521   0.204   6.745  15.203  0.5737 -0.1027 -0.2051
 6702TIP3    H241522   0.103   6.633  15.210 -0.1804  0.6176  0.8515
 6703TIP3   OH241523   4.340   5.741   4.747 -0.1648  0.2914 -0.6746
 6703TIP3    H141524   4.348   5.823   4.796  0.0376  0.0405 -0.2798
 6703TIP3    H241525   4.325   5.768   4.657 -0.3491  0.7628 -0.5038
 6704TIP3   OH241526   6.347   0.502   0.799 -0.3013 -0.0599 -0.1750
 6704TIP3    H141527   6.391   0.417   0.793 -0.2147 -0.0164 -0.1600
 6704TIP3    H241528   6.260   0.482   0.834 -0.8333 -0.3311 -1.5592
 6705TIP3   OH241529   3.419   3.373   3.808 -0.3479 -0.2295 -0.8037
 6705TIP3    H141530   3.478   3.378   3.883 -0.7738 -0.3232 -0.4651
 6705TIP3    H241531   3.367   3.294   3.823  0.3050 -0.8574 -1.7355
 6706TIP3   OH241532   6.640   3.193   0.584 -0.5419 -0.3424 -0.4285
 6706TIP3    H141533   6.568   3.211   0.524  0.0610 -1.0457 -1.4021
 6706TIP3    H241534   6.664   3.278   0.619 -2.5001 -0.2145  0.7104
 6707TIP3   OH241535   4.709   4.840   6.064 -0.0054 -0.2628 -0.7547
 6707TIP3    H141536   4.715   4.842   6.160 -0.4543 -0.9038 -0.7007
 6707TIP3    H241537   4.647   4.769   6.046 -0.0018 -0.0801 -1.5189
 6708TIP3   OH241538   0.596   2.374   1.671 -0.1863 -0.1539  0.2016
 6708TIP3    H141539   0.512   2.344   1.636  0.1365 -0.0128 -0.7280
 6708TIP3    H241540   0.585   2.469   1.679  0.2329  0.0068 -0.9482
 6709TIP3   OH241541   5.989   4.768  13.549  0.3342  0.1970 -0.3149
 6709TIP3    H141542   5.902   4.732  13.568  0.4678 -0.3364 -0.6720
 6709TIP3    H241543   6.034   4.768  13.633 -0.3283  1.3843  0.0601
 6710TIP3   OH241544   0.950   1.153  14.041 -0.2364  0.0587  0.4754
 6710TIP3    H141545   1.036   1.178  14.007 -0.4232 -0.8228 -0.7066
 6710TIP3    H241546   0.888   1.188  13.977 -0.6415 -1.0093  0.2665
 6711TIP3   OH241547   6.434   5.410  16.659 -0.7074  0.1737 -0.0211
 6711TIP3    H141548   6.416   5.493  16.614 -3.4470 -0.9916 -1.2921
 6711TIP3    H241549   6.527   5.415  16.682 -0.7522  3.5068 -0.1631
 6712TIP3   OH241550   1.285   3.871  14.589  0.0465 -0.2689 -0.2639
 6712TIP3    H141551   1.236   3.790  14.601  0.0553 -0.1916  0.3432
 6712TIP3    H241552   1.309   3.898  14.678  0.2760  0.2545 -0.4780
 6713TIP3   OH241553   2.870   3.625  12.184  0.1550  0.1637  0.1022
 6713TIP3    H141554   2.835   3.685  12.250  2.2382  1.1472  0.3759
 6713TIP3    H241555   2.793   3.579  12.151 -1.0063 -0.4834  3.2928
 6714TIP3   OH241556   0.698   2.149  11.707 -0.2882 -0.2207 -0.2185
 6714TIP3    H141557   0.614   2.145  11.661 -0.6819  0.4262  0.4233
 6714TIP3    H241558   0.698   2.073  11.764 -0.3493 -0.3306 -0.3637
 6715TIP3   OH241559   1.077   2.825   0.241 -0.1919  0.2354  0.3573
 6715TIP3    H141560   1.148   2.886   0.224  1.2118 -1.3514  0.2354
 6715TIP3    H241561   1.048   2.846   0.330  0.2923  1.0302  0.3310
 6716TIP3   OH241562   1.749   5.998  11.432 -0.2190 -0.0648  0.0198
 6716TIP3    H141563   1.733   6.085  11.397  1.4039  0.3180  0.1549
 6716TIP3    H241564   1.690   5.990  11.507 -0.5493  0.8269 -0.1392
 6717TIP3   OH241565   0.212   2.068   0.339 -0.2637  0.0075 -0.3054
 6717TIP3    H141566   0.281   2.045   0.402 -1.6746 -0.2827  1.1956
 6717TIP3    H241567   0.172   1.984   0.316 -1.0759  0.3112 -0.0113
 6718TIP3   OH241568   0.583   6.303  14.547  0.0149  0.1380  0.4295
 6718TIP3    H141569   0.648   6.306  14.617 -0.0666  1.0950  0.4700
 6718TIP3    H241570   0.500   6.324  14.590 -0.1382  0.0853  0.1625
 6719TIP3   OH241571   2.454   2.111   2.054 -0.3120 -0.2760  0.0571
 6719TIP3    H141572   2.420   2.036   2.102 -1.0855 -0.3299 -0.5659
 6719TIP3    H241573   2.389   2.180   2.068  0.7836  0.5610  1.3109
 6720TIP3   OH241574   4.759   6.371   4.022 -0.0011  1.0517  0.1395
 6720TIP3    H141575   4.757   6.412   4.109  0.8970  1.8356 -0.1866
 6720TIP3    H241576   4.852   6.373   3.997  0.0791 -1.1256  0.0530
 6721TIP3   OH241577   1.454   4.818   1.191 -0.2988 -0.3894  0.4314
 6721TIP3    H141578   1.455   4.764   1.270 -1.1018  0.4196  1.0244
 6721TIP3    H241579   1.546   4.837   1.173 -0.1205 -0.3482  1.3455
 6722TIP3   OH241580   2.907   2.224  15.130 -0.2184 -0.2038 -0.1391
 6722TIP3    H141581   2.887   2.145  15.180  1.2130  0.8180  2.2318
 6722TIP3    H241582   2.970   2.272  15.185  2.2746  0.5911 -3.4064
 6723TIP3   OH241583   5.121   0.950   2.997  0.1253 -0.0507  0.1919
 6723TIP3    H141584   5.159   0.869   2.962  2.2287  1.6399 -1.7326
 6723TIP3    H241585   5.192   0.992   3.045  0.3318  2.3527 -1.9891
 6724TIP3   OH241586   5.133   3.933  13.388 -0.0525 -0.0796 -0.1487
 6724TIP3    H141587   5.209   3.963  13.338  1.4675 -2.1361  0.7494
 6724TIP3    H241588   5.103   3.856  13.340 -0.5052 -0.2619  0.4210
 6725TIP3   OH241589   3.105   3.890   4.370 -0.1001 -0.2881  0.3605
 6725TIP3    H141590   3.020   3.927   4.393 -2.0033 -3.1390 -1.4204
 6725TIP3    H241591   3.138   3.852   4.451  0.0054  1.7043  1.2872
 6726TIP3   OH241592   2.584   4.520  14.353 -0.3012 -0.6773  0.0304
 6726TIP3    H141593   2.530   4.592  14.320 -1.4569 -0.8037  1.5000
 6726TIP3    H241594   2.521   4.461  14.394  0.8543 -1.4113  0.7915
 6727TIP3   OH241595   0.611   4.616  12.358  0.7560  0.0856  0.3714
 6727TIP3    H141596   0.529   4.650  12.396  0.6107  0.5036 -0.2970
 6727TIP3    H241597   0.642   4.687  12.301 -0.0756 -1.2358 -1.8610
 6728TIP3   OH241598   1.562   5.069   4.412 -0.0024  0.4908 -0.0985
 6728TIP3    H141599   1.621   5.136   4.378 -2.1112  3.4062  1.5058
 6728TIP3    H241600   1.597   4.987   4.379  2.2892  2.4029 -2.9165
 6729TIP3   OH241601   3.636   2.157   4.713 -0.1677  0.6504 -0.9125
 6729TIP3    H141602   3.616   2.250   4.711 -0.5636  0.5617 -1.9304
 6729TIP3    H241603   3.566   2.118   4.765 -0.0097  0.9215 -0.4977
 6730TIP3   OH241604   0.697   6.286  16.188 -0.3652  0.1084  0.4119
 6730TIP3    H141605   0.617   6.288  16.136  0.3453 -1.0760 -0.8099
 6730TIP3    H241606   0.717   6.193  16.198 -0.3807  0.2965  2.7218
 6731TIP3   OH241607   4.078   3.752  15.953 -0.2128 -0.3761  0.3521
 6731TIP3    H141608   4.021   3.783  15.882 -0.4244 -1.0657  0.2117
 6731TIP3    H241609   4.118   3.673  15.918  1.3224  0.4154  0.2200
 6732TIP3   OH241610   2.725   0.239   4.736 -0.2768  0.4038 -0.2524
 6732TIP3    H141611   2.712   0.211   4.827  1.3187  0.1320 -0.0960
 6732TIP3    H241612   2.738   0.158   4.687  1.0486  0.6488 -0.3443
 6733TIP3   OH241613   5.972   3.769  13.585 -0.6979  0.2784  0.2273
 6733TIP3    H141614   6.043   3.772  13.649 -0.2719 -0.2152 -0.2186
 6733TIP3    H241615   5.916   3.843  13.609  0.7965  1.6762 -0.3744
 6734TIP3   OH241616   3.397   0.695   3.324 -0.3594  0.1628  0.3773
 6734TIP3    H141617   3.406   0.766   3.261 -0.5913  0.3479  0.5481
 6734TIP3    H241618   3.419   0.616   3.275 -0.1263  0.3501  0.1790
 6735TIP3   OH241619   5.891   5.884  13.060 -0.2646  0.7731  0.5201
 6735TIP3    H141620   5.826   5.815  13.052 -1.3263  1.7976  0.1211
 6735TIP3    H241621   5.958   5.862  12.996 -1.0337  0.5846 -0.2286
 6736TIP3   OH241622   3.103   5.994  16.280 -0.0700 -0.1260 -0.0044
 6736TIP3    H141623   3.076   6.069  16.333  0.9589  0.8363 -0.8015
 6736TIP3    H241624   3.091   6.024  16.190 -0.7511 -1.3477 -0.3419
 6737TIP3   OH241625   4.266   3.860   5.982 -0.4659 -0.1820  0.5808
 6737TIP3    H141626   4.253   3.930   6.046 -3.0152 -1.3164  1.4388
 6737TIP3    H241627   4.256   3.903   5.897  0.1441  0.8478  1.0073
 6738TIP3   OH241628   1.580   1.030   0.176  0.3337 -0.6455  0.2253
 6738TIP3    H141629   1.516   1.100   0.161  1.4134 -0.1110 -2.5785
 6738TIP3    H241630   1.531   0.950   0.162 -0.7665 -0.5297  2.8421
 6739TIP3   OH241631   4.766   5.560   5.526  0.4999  0.4667 -0.1895
 6739TIP3    H141632   4.775   5.479   5.577  0.8835  0.7103  0.1281
 6739TIP3    H241633   4.804   5.539   5.441  1.7764  0.7036  0.3086
 6740TIP3   OH241634   4.544   6.772  14.011 -0.7464  0.2402 -0.4785
 6740TIP3    H141635   4.475   6.783  14.077  1.2141 -2.0532  2.2002
 6740TIP3    H241636   4.589   6.857  14.009 -1.3965  0.6235  0.4712
 6741TIP3   OH241637   4.052   4.612  12.670  0.8276  0.2789  0.2062
 6741TIP3    H141638   4.051   4.622  12.765  0.9552  0.5693  0.1760
 6741TIP3    H241639   4.117   4.543  12.654  0.4815 -0.0886  0.3572
 6742TIP3   OH241640   0.964   5.426   4.830 -0.1112  0.0890 -0.1259
 6742TIP3    H141641   1.039   5.448   4.886  0.1748  2.4136 -1.3118
 6742TIP3    H241642   0.887   5.453   4.881  0.1023  1.4358 -0.4931
 6743TIP3   OH241643   2.411   3.314   3.909  0.1411  0.5518  0.3716
 6743TIP3    H141644   2.488   3.308   3.966  0.9499  1.9163 -0.5087
 6743TIP3    H241645   2.337   3.297   3.967  1.0698 -0.2627  1.3562
 6744TIP3   OH241646   2.032   0.708   0.475  0.0891 -0.1506  0.0845
 6744TIP3    H141647   2.122   0.698   0.505  0.2633  0.5410 -0.1899
 6744TIP3    H241648   2.026   0.799   0.446 -0.2384 -0.6316 -1.4150
 6745TIP3   OH241649   4.176   3.418  13.420  0.7226 -0.2827  0.4498
 6745TIP3    H141650   4.147   3.441  13.331 -1.4701 -1.0135  0.9145
 6745TIP3    H241651   4.105   3.365  13.455  1.7801 -0.4329  2.4870
 6746TIP3   OH241652   6.125   4.395   3.965  0.0181 -0.4427  0.0759
 6746TIP3    H141653   6.199   4.446   3.932  0.6226 -0.3892  1.4146
 6746TIP3    H241654   6.114   4.426   4.055 -0.2127 -2.0170  0.6122
 6747TIP3   OH241655   5.891   1.363   4.661 -0.4327 -0.2620 -0.2172
 6747TIP3    H141656   5.919   1.404   4.743 -1.6036  1.0417 -0.4277
 6747TIP3    H241657   5.952   1.397   4.595  0.3441 -1.1043  0.0454
 6748TIP3   OH241658   3.348   4.969   3.242  0.7777  0.5991  0.0149
 6748TIP3    H141659   3.393   5.000   3.321  0.2221 -0.7009  0.8665
 6748TIP3    H241660   3.403   4.898   3.209 -0.0852 -0.2998  0.4683
 6749TIP3   OH241661   5.239   4.270  15.252 -0.4137 -0.0966  0.3886
 6749TIP3    H141662   5.298   4.262  15.327 -0.7793 -1.2089  0.5733
 6749TIP3    H241663   5.285   4.328  15.191  0.9725 -1.0858  0.4473
 6750TIP3   OH241664   5.344   3.458   5.867  0.2971  0.2327 -0.5182
 6750TIP3    H141665   5.399   3.460   5.788 -0.6396  2.3397 -1.2021
 6750TIP3    H241666   5.301   3.372   5.864  1.4639 -0.3499 -1.4371
 6751TIP3   OH241667   2.739   1.665   3.861 -0.0944  0.3885 -0.1350
 6751TIP3    H141668   2.745   1.582   3.815 -0.2146  0.8085 -0.9321
 6751TIP3    H241669   2.678   1.717   3.808 -0.5256  0.7558  0.7028
 6752TIP3   OH241670   2.959   1.242  17.029  0.0186 -0.0500  0.4356
 6752TIP3    H141671   2.991   1.332  17.034 -0.2101  0.0757 -0.2349
 6752TIP3    H241672   2.980   1.204  17.114  0.5978  0.4754  0.5320
 6753TIP3   OH241673   3.236   5.386   6.555 -0.1880  0.0542  0.7554
 6753TIP3    H141674   3.262   5.468   6.513 -0.4434  0.6034  1.6373
 6753TIP3    H241675   3.309   5.327   6.540 -0.0223  0.4209  0.0572
 6754TIP3   OH241676   0.578   2.861   5.756 -0.4975  0.3782 -0.0625
 6754TIP3    H141677   0.585   2.918   5.680 -3.3528 -0.3672 -1.0377
 6754TIP3    H241678   0.488   2.876   5.788 -0.6672 -2.0828  0.8222
 6755TIP3   OH241679   2.591   2.386  13.602  0.1852  0.3974 -0.0125
 6755TIP3    H141680   2.546   2.388  13.517 -0.1474  2.2656  0.1827
 6755TIP3    H241681   2.552   2.311  13.647 -1.8086  1.1610 -0.3649
 6756TIP3   OH241682   3.223   2.321   5.231  0.0993  0.1922 -0.0110
 6756TIP3    H141683   3.291   2.372   5.189 -0.5174  0.8691 -0.2147
 6756TIP3    H241684   3.189   2.263   5.162 -0.5445  0.9194 -0.3179
 6757TIP3   OH241685   6.446   0.621   1.733 -0.4826  0.2465  0.5798
 6757TIP3    H141686   6.460   0.689   1.799  3.3565  0.7177 -0.4492
 6757TIP3    H241687   6.443   0.539   1.783  1.1617  0.6899  1.4801
 6758TIP3   OH241688   3.808   0.746   2.609  0.1745  0.0008 -0.0287
 6758TIP3    H141689   3.833   0.760   2.700 -1.5555 -1.4785  0.7363
 6758TIP3    H241690   3.754   0.822   2.587 -2.1702 -1.1378  1.3418
 6759TIP3   OH241691   2.257   2.658   4.088 -0.3318  0.5607  0.2511
 6759TIP3    H141692   2.329   2.711   4.054 -0.1407  0.1248 -0.0318
 6759TIP3    H241693   2.179   2.713   4.076 -0.2101  0.5831 -0.5029
 6760TIP3   OH241694   5.854   2.342   5.257  0.2624 -0.9102  0.3680
 6760TIP3    H141695   5.792   2.405   5.219  1.0561 -0.5450 -0.3437
 6760TIP3    H241696   5.919   2.396   5.301 -0.3466 -1.3169  1.8233
 6761TIP3   OH241697   1.978   5.089   2.574  0.1786 -0.2702  0.0647
 6761TIP3    H141698   2.071   5.112   2.581 -0.0696  0.7171  0.3129
 6761TIP3    H241699   1.966   5.064   2.483  0.4332  0.8669 -0.2991
 6762TIP3   OH241700   6.378   4.328  16.856 -0.5239  0.0829  0.2744
 6762TIP3    H141701   6.432   4.390  16.806  0.7953 -1.0364  0.2302
 6762TIP3    H241702   6.414   4.242  16.833  0.1702 -0.5039  3.1207
 6763TIP3   OH241703   0.594   0.834  15.690 -0.2656  0.0671  0.2207
 6763TIP3    H141704   0.636   0.875  15.766 -0.1174  0.9347 -0.3168
 6763TIP3    H241705   0.514   0.885  15.677 -0.0322  0.2500 -0.5140
 6764TIP3   OH241706   4.942   0.950  11.621 -0.4123  0.4263 -0.0437
 6764TIP3    H141707   4.899   1.012  11.681 -0.7975  0.2942 -0.1762
 6764TIP3    H241708   4.939   0.866  11.668  0.4239  0.5686  0.2869
 6765TIP3   OH241709   0.377   0.573  11.595  0.7692 -0.5049 -0.2481
 6765TIP3    H141710   0.354   0.527  11.515  0.6272 -1.1112  0.1296
 6765TIP3    H241711   0.294   0.591  11.638  0.7809  0.6376 -0.6642
 6766TIP3   OH241712   4.790   5.429  16.589 -0.0040 -1.1148  0.1740
 6766TIP3    H141713   4.807   5.508  16.641 -1.8043 -0.6501  0.1257
 6766TIP3    H241714   4.715   5.389  16.632 -0.9091 -1.2491 -1.4867
 6767TIP3   OH241715   3.495   1.426   4.504  0.2031 -0.3709 -0.1833
 6767TIP3    H141716   3.443   1.379   4.438  1.8123 -0.6297 -1.3460
 6767TIP3    H241717   3.563   1.363   4.529  0.8160  0.4313  0.1991
 6768TIP3   OH241718   1.057   6.300   1.068  0.4567 -0.5874 -0.1563
 6768TIP3    H141719   1.100   6.340   0.992 -0.6696 -0.2796 -0.6639
 6768TIP3    H241720   1.103   6.336   1.143  0.0374  1.0492 -0.6295
 6769TIP3   OH241721   4.935   4.243   3.394  0.1945 -0.0327  0.1715
 6769TIP3    H141722   4.905   4.322   3.438 -0.2626  0.5497 -1.1332
 6769TIP3    H241723   5.023   4.264   3.364 -0.6774  0.7924 -1.9941
 6770TIP3   OH241724   4.340   4.454   5.021 -0.0255  0.4610 -0.2157
 6770TIP3    H141725   4.261   4.486   4.977 -0.6318  0.2845  0.7325
 6770TIP3    H241726   4.373   4.530   5.069  0.1132  0.3974 -0.2100
 6771TIP3   OH241727   0.229   4.720  11.856  0.2312  0.1264  0.4983
 6771TIP3    H141728   0.299   4.785  11.863 -0.4189  0.6932  2.7884
 6771TIP3    H241729   0.152   4.771  11.831  0.0851 -0.0478  0.5899
 6772TIP3   OH241730   6.662   4.404   2.839  0.5426 -0.0789 -0.3059
 6772TIP3    H141731   6.726   4.458   2.885  1.7865 -0.8210 -1.1022
 6772TIP3    H241732   6.618   4.354   2.908  1.6429 -0.4093  0.1713
 6773TIP3   OH241733   1.922   3.407   2.160  0.4877  0.1762  0.0463
 6773TIP3    H141734   1.965   3.476   2.109  1.1067 -0.3067 -0.0939
 6773TIP3    H241735   1.871   3.358   2.095  2.2504 -1.2046 -0.3709
 6774TIP3   OH241736   1.829   3.567  11.440  0.2960 -0.1426 -0.5610
 6774TIP3    H141737   1.840   3.477  11.470 -0.2123 -0.0123  0.0395
 6774TIP3    H241738   1.815   3.559  11.345  1.0872 -0.6226 -0.6477
 6775TIP3   OH241739   0.233   0.224  10.678 -0.4280 -0.2859  0.0554
 6775TIP3    H141740   0.165   0.158  10.665 -0.4274 -0.3467  0.3545
 6775TIP3    H241741   0.315   0.179  10.657 -0.5214 -0.0673 -0.8037
 6776TIP3   OH241742   3.093   2.800  13.653 -0.0772  0.4482 -0.0228
 6776TIP3    H141743   3.071   2.718  13.609  0.4020  0.7848 -0.9108
 6776TIP3    H241744   3.136   2.853  13.586  0.1243  1.2137  0.6890
 6777TIP3   OH241745   6.433   5.030  15.252  0.7573  0.2133 -0.3891
 6777TIP3    H141746   6.487   4.993  15.323  1.6326  2.6554  0.3191
 6777TIP3    H241747   6.347   4.989  15.265  1.7844 -2.0802 -0.1584
 6778TIP3   OH241748   4.972   1.234   3.712  0.5906 -0.1826 -0.1926
 6778TIP3    H141749   4.927   1.188   3.641  2.3251 -2.0234 -0.1809
 6778TIP3    H241750   5.050   1.272   3.670  1.4459 -0.9839  0.6222
 6779TIP3   OH241751   4.724   5.853  11.493 -0.2151  0.2024  0.1969
 6779TIP3    H141752   4.698   5.944  11.485  0.1550  0.3788  0.9180
 6779TIP3    H241753   4.795   5.853  11.557  0.3129 -0.4953 -0.3679
 6780TIP3   OH241754   1.802   4.922   5.219 -0.5012 -0.0673  0.0704
 6780TIP3    H141755   1.771   4.863   5.151 -1.8661  1.1434 -0.4090
 6780TIP3    H241756   1.859   4.868   5.274 -0.2104 -1.3314 -1.4117
 6781TIP3   OH241757   0.033   1.383  13.013 -0.2137 -0.0951 -0.3800
 6781TIP3    H141758   0.053   1.290  13.010  0.6527  0.1079 -1.2300
 6781TIP3    H241759   0.049   1.408  13.104  0.1723 -0.6340 -0.2980
 6782TIP3   OH241760   1.742   5.211   5.546  0.3617 -0.0795  0.1818
 6782TIP3    H141761   1.831   5.177   5.551  0.7070  0.6360 -0.8523
 6782TIP3    H241762   1.686   5.133   5.555  1.0303 -0.3747  2.3107
 6783TIP3   OH241763   6.588   6.401  13.496  0.1155  0.5454  0.2830
 6783TIP3    H141764   6.626   6.463  13.434  1.4676  0.4469  0.9873
 6783TIP3    H241765   6.663   6.364  13.542 -0.6559 -1.5835 -0.0626
 6784TIP3   OH241766   0.725   2.274  17.113 -0.2645  0.5298 -0.3278
 6784TIP3    H141767   0.803   2.265  17.168 -0.2771 -0.0192 -0.3947
 6784TIP3    H241768   0.756   2.254  17.025 -0.8418 -1.5654 -0.1079
 6785TIP3   OH241769   1.750   3.725  15.123  0.2195  0.3393  0.3762
 6785TIP3    H141770   1.798   3.807  15.119 -0.6358  0.8147 -0.3371
 6785TIP3    H241771   1.667   3.742  15.078 -0.3759 -0.6355  1.0499
 6786TIP3   OH241772   0.613   6.354   0.952  0.5725  0.3147  0.6138
 6786TIP3    H141773   0.677   6.309   1.008  0.0944 -0.8040  0.2979
 6786TIP3    H241774   0.566   6.283   0.908 -0.7018  1.1137  0.6266
 6787TIP3   OH241775   4.291   1.622  15.254 -0.2195 -0.1333  0.0699
 6787TIP3    H141776   4.288   1.685  15.326  2.5112  0.7122 -0.4519
 6787TIP3    H241777   4.302   1.537  15.297  0.9414  0.3128  0.7211
 6788TIP3   OH241778   3.122   3.571   4.415  0.1614  0.5980  0.5713
 6788TIP3    H141779   3.126   3.666   4.405  2.2039  0.5404  0.2669
 6788TIP3    H241780   3.197   3.550   4.472  1.9729 -1.0800 -2.1703
 6789TIP3   OH241781   0.239   3.583  14.764 -0.6754  0.7660  0.7121
 6789TIP3    H141782   0.185   3.564  14.687 -0.3157  1.1040  0.3692
 6789TIP3    H241783   0.188   3.551  14.838 -0.4015 -0.9048  0.2301
 6790TIP3   OH241784   3.060   0.874  10.900  0.0098 -0.2164 -0.4161
 6790TIP3    H141785   3.115   0.796  10.912  0.4937  0.1773 -0.0212
 6790TIP3    H241786   3.101   0.921  10.828 -0.1409 -0.1998 -0.4911
 6791TIP3   OH241787   5.755   1.942  12.634 -0.5179 -0.5389  0.2147
 6791TIP3    H141788   5.769   1.965  12.542  1.7899 -1.8221  0.1797
 6791TIP3    H241789   5.814   2.000  12.683 -3.0730  1.4878  1.1648
 6792TIP3   OH241790   2.848   4.602  11.521  0.1340 -0.7705  0.1158
 6792TIP3    H141791   2.939   4.616  11.493 -0.0339 -1.9135 -1.1054
 6792TIP3    H241792   2.854   4.555  11.603  0.6554 -1.0629 -0.0877
 6793TIP3   OH241793   4.270   1.010   3.778 -0.7643 -0.0588 -0.1378
 6793TIP3    H141794   4.363   0.993   3.767 -0.5739 -2.8878  3.7439
 6793TIP3    H241795   4.266   1.082   3.840 -1.2347  0.3821 -0.6630
 6794TIP3   OH241796   4.924   4.872   3.128 -0.6080 -0.7769  0.2819
 6794TIP3    H141797   4.943   4.861   3.035 -0.7978  0.4651  0.0873
 6794TIP3    H241798   5.007   4.853   3.172 -0.4248 -1.0192 -0.1557
 6795TIP3   OH241799   3.077   5.677   2.571  0.1200 -0.0046 -0.0349
 6795TIP3    H141800   3.154   5.631   2.537 -1.2580 -1.3255 -1.5233
 6795TIP3    H241801   3.024   5.609   2.612 -0.9645  0.6032 -0.3888
 6796TIP3   OH241802   3.541   3.326  15.405 -0.2392  0.3322  0.1743
 6796TIP3    H141803   3.617   3.365  15.447  0.1765  0.4781 -0.6999
 6796TIP3    H241804   3.491   3.288  15.477  0.8009 -0.0097  0.7357
 6797TIP3   OH241805   1.023   2.926  15.675  0.0463  0.4874  0.2205
 6797TIP3    H141806   1.089   2.995  15.666  1.7763 -1.2227 -1.0140
 6797TIP3    H241807   1.015   2.889  15.587  1.0740 -2.4874  1.2467
 6798TIP3   OH241808   5.006   4.984   6.243 -0.3231  0.3614 -0.0611
 6798TIP3    H141809   5.096   4.956   6.259 -0.5487 -0.9249 -0.8300
 6798TIP3    H241810   5.014   5.066   6.194  0.3843  1.2921  1.5390
 6799TIP3   OH241811   4.074   3.550   1.522  0.6218  0.1942 -0.5666
 6799TIP3    H141812   4.153   3.502   1.548  0.7536  0.3579 -0.6625
 6799TIP3    H241813   4.096   3.642   1.538  0.8354  0.3337 -1.5816
 6800TIP3   OH241814   4.317   1.391  12.498 -0.4102 -0.8625  0.7248
 6800TIP3    H141815   4.229   1.422  12.475  1.1320  2.1091 -1.9485
 6800TIP3    H241816   4.326   1.410  12.591 -1.6022  1.6164  0.4004
 6801TIP3   OH241817   3.509   0.261   3.895  0.5545  0.0553 -0.0045
 6801TIP3    H141818   3.537   0.345   3.932 -0.0422 -0.1788  1.0258
 6801TIP3    H241819   3.578   0.200   3.918  1.1090  0.3052 -0.9710
 6802TIP3   OH241820   4.669   2.152  12.402  0.1364  0.3683 -0.0749
 6802TIP3    H141821   4.678   2.240  12.439 -1.7379  1.5802 -2.2740
 6802TIP3    H241822   4.662   2.166  12.308  1.1773 -2.2876 -0.6235
 6803TIP3   OH241823   5.712   5.079   4.412  0.4009 -0.5254  0.5702
 6803TIP3    H141824   5.703   5.150   4.349 -0.2752 -2.2554 -1.3861
 6803TIP3    H241825   5.805   5.075   4.432  0.4132  1.0873  1.0022
 6804TIP3   OH241826   0.828   5.722  16.463  0.0176 -0.0868 -0.7710
 6804TIP3    H141827   0.785   5.716  16.377  0.0667 -0.3919 -0.7753
 6804TIP3    H241828   0.904   5.665  16.455  0.5721  0.6446 -0.8476
 6805TIP3   OH241829   3.865   3.945  13.679 -0.0153 -0.1803  0.8616
 6805TIP3    H141830   3.888   3.910  13.593  0.9410 -1.9007  1.7571
 6805TIP3    H241831   3.947   3.942  13.729 -0.6041  0.5522  1.9021
 6806TIP3   OH241832   5.762   3.695   2.965 -0.8261 -0.4063 -0.5149
 6806TIP3    H141833   5.724   3.759   2.905  2.2459  0.0732 -2.1878
 6806TIP3    H241834   5.805   3.749   3.032 -0.6941 -0.8200 -0.2664
 6807TIP3   OH241835   3.259   1.075   5.314 -0.6952  0.0161 -0.5745
 6807TIP3    H141836   3.350   1.044   5.317 -0.4328  0.6579 -1.3520
 6807TIP3    H241837   3.208   1.004   5.353  0.3238  0.4253  1.6518
 6808TIP3   OH241838   1.913   2.686  14.476 -0.0837  0.2537 -0.0003
 6808TIP3    H141839   1.915   2.772  14.433 -2.3209 -0.0813 -0.9104
 6808TIP3    H241840   2.005   2.662  14.486  0.6466  0.8717 -3.6528
 6809TIP3   OH241841   1.595   4.634   1.743  0.4221 -0.2882 -0.0296
 6809TIP3    H141842   1.557   4.553   1.710 -1.5908  0.1289  1.0753
 6809TIP3    H241843   1.651   4.606   1.816  0.5335 -0.7640 -0.2948
 6810TIP3   OH241844   5.760   0.113  12.929  0.0957 -0.4381 -0.1177
 6810TIP3    H141845   5.841   0.068  12.903 -0.2959 -0.9297 -0.5158
 6810TIP3    H241846   5.771   0.130  13.022  0.6715 -0.4788 -0.1720
 6811TIP3   OH241847   1.987   6.569  13.881  0.1210  0.2795  0.1973
 6811TIP3    H141848   1.986   6.664  13.867  0.1281  0.4156  1.0736
 6811TIP3    H241849   1.994   6.559  13.976  1.7061 -0.5867  0.0310
 6812TIP3   OH241850   4.044   5.294   3.918  0.4909 -0.3234 -0.0233
 6812TIP3    H141851   4.102   5.289   3.994 -2.4956  2.6700  2.7964
 6812TIP3    H241852   4.071   5.373   3.872  1.4516 -1.4151 -1.3914
 6813TIP3   OH241853   6.674   3.647  15.891 -0.7670  0.3481 -0.5028
 6813TIP3    H141854   6.707   3.576  15.837  0.0559  0.9484 -0.8138
 6813TIP3    H241855   6.724   3.724  15.863 -1.5708  1.0334 -0.1177
 6814TIP3   OH241856   6.317   3.886   5.727  0.7750  0.1319  0.0255
 6814TIP3    H141857   6.291   3.853   5.641  0.6680 -2.2623  0.9003
 6814TIP3    H241858   6.239   3.932   5.759  0.3204 -0.2042 -0.5659
 6815TIP3   OH241859   6.223   0.405   2.141 -0.1330  0.4221  0.2579
 6815TIP3    H141860   6.273   0.473   2.096  0.6452  0.2062  0.7704
 6815TIP3    H241861   6.240   0.419   2.234 -0.1691 -0.3060  0.3856
 6816TIP3   OH241862   0.198   4.572   4.043  0.6652 -0.2715 -0.1662
 6816TIP3    H141863   0.109   4.540   4.054  0.5160 -0.1957 -1.0922
 6816TIP3    H241864   0.253   4.507   4.088  0.3974 -2.0330 -2.2401
 6817TIP3   OH241865   6.174   3.350  13.770  0.3071  0.4446  0.3125
 6817TIP3    H141866   6.164   3.397  13.687 -0.6904  2.4201  1.4745
 6817TIP3    H241867   6.218   3.412  13.827 -0.7359 -0.1548  1.8257
 6818TIP3   OH241868   3.761   3.370   3.853  0.0770 -0.4560 -0.3558
 6818TIP3    H141869   3.825   3.426   3.898 -2.1367  0.9217  1.2721
 6818TIP3    H241870   3.814   3.298   3.818  2.5256  0.6302  0.8079
 6819TIP3   OH241871   3.938   4.268  14.570 -0.2067  0.5029  0.2794
 6819TIP3    H141872   3.930   4.221  14.487 -3.1019 -0.4949  1.0002
 6819TIP3    H241873   4.032   4.274  14.586  0.3531 -1.2388 -1.9731
 6820TIP3   OH241874   5.529   2.556   0.492 -0.4457 -0.1664 -0.2092
 6820TIP3    H141875   5.485   2.490   0.545 -2.5335  1.3031  0.0081
 6820TIP3    H241876   5.559   2.621   0.555  1.2627 -0.6635 -0.4584
 6821TIP3   OH241877   1.931   2.413  13.034 -0.0523 -0.5123 -0.0130
 6821TIP3    H141878   1.908   2.418  13.126  1.0804  0.3232  0.2443
 6821TIP3    H241879   1.847   2.407  12.988 -0.7040  0.6002  0.9813
 6822TIP3   OH241880   5.667   6.030  11.350  0.0328 -0.1750 -0.1640
 6822TIP3    H141881   5.694   6.120  11.367  0.2364 -0.4509  1.0564
 6822TIP3    H241882   5.742   5.991  11.305 -0.1375  0.3104 -0.8890
 6823TIP3   OH241883   0.594   4.429  13.597 -0.1206 -0.8454 -0.0872
 6823TIP3    H141884   0.652   4.454  13.668  0.9383 -0.0911 -1.1697
 6823TIP3    H241885   0.560   4.512  13.562 -2.0453 -1.2676  0.6365
 6824TIP3   OH241886   1.772   3.417  10.743  0.0269 -0.8694  0.2844
 6824TIP3    H141887   1.742   3.328  10.725  0.7267 -1.0663  0.0670
 6824TIP3    H241888   1.855   3.425  10.696  1.1652 -0.8990  2.1675
 6825TIP3   OH241889   0.424   3.116   3.879  0.1279 -0.2075 -0.4287
 6825TIP3    H141890   0.439   3.110   3.785  1.1655  0.7728 -0.3400
 6825TIP3    H241891   0.474   3.044   3.916 -0.1581 -0.5003 -0.6049
 6826TIP3   OH241892   3.936   2.098  13.437  0.2179  1.0930 -0.3583
 6826TIP3    H141893   3.870   2.030  13.443 -0.3727  1.5993 -0.9598
 6826TIP3    H241894   3.894   2.168  13.387  1.2099  1.4182 -0.7667
 6827TIP3   OH241895   0.673   4.387   3.951 -0.6134 -0.3755  0.2907
 6827TIP3    H141896   0.692   4.296   3.975 -0.8773 -0.3586  0.5778
 6827TIP3    H241897   0.738   4.409   3.884 -1.5740 -1.3118 -0.9980
 6828TIP3   OH241898   4.558   4.615   0.663  0.4017  0.0324 -0.0437
 6828TIP3    H141899   4.502   4.622   0.585 -0.0467  1.2684  0.3571
 6828TIP3    H241900   4.588   4.525   0.663 -0.6429 -0.3420 -0.9383
 6829TIP3   OH241901   0.824   0.335   5.958  0.2102  0.6000 -0.2753
 6829TIP3    H141902   0.771   0.413   5.938  0.8322  1.0216 -0.3255
 6829TIP3    H241903   0.760   0.265   5.969 -0.2547  0.4746 -3.0571
 6830TIP3   OH241904   2.266   0.160   3.500 -0.0697 -0.3183  0.0360
 6830TIP3    H141905   2.323   0.185   3.428  2.5967  1.8355  2.6510
 6830TIP3    H241906   2.299   0.074   3.529  0.5102 -0.0373  0.2210
 6831TIP3   OH241907   0.836   5.895   2.487  0.2982 -0.1907 -0.5975
 6831TIP3    H141908   0.747   5.927   2.474 -0.4483 -1.5695  0.7500
 6831TIP3    H241909   0.835   5.855   2.574  2.2577 -0.2136 -0.5279
 6832TIP3   OH241910   5.955   3.110  13.438 -0.4177 -1.2896  0.4701
 6832TIP3    H141911   6.024   3.133  13.500 -0.6279 -0.7822  0.5156
 6832TIP3    H241912   6.002   3.078  13.361 -0.1299 -0.9106  0.4838
 6833TIP3   OH241913   3.616   0.534   3.712  0.9409 -0.0007 -0.0113
 6833TIP3    H141914   3.686   0.472   3.692 -2.0388 -3.6605 -0.3920
 6833TIP3    H241915   3.612   0.536   3.808  1.8412  0.6255  0.0180
 6834TIP3   OH241916   0.663   3.521   4.345  0.2812 -0.0007 -0.4229
 6834TIP3    H141917   0.676   3.442   4.398  0.9628 -0.0785 -0.6848
 6834TIP3    H241918   0.729   3.582   4.377  1.2321 -0.3151 -1.6649
 6835TIP3   OH241919   3.284   4.667   0.566 -0.0475 -0.4196 -0.0529
 6835TIP3    H141920   3.244   4.710   0.490  0.7701 -1.8000 -1.3488
 6835TIP3    H241921   3.231   4.589   0.580  0.7556 -1.0182 -0.2709
 6836TIP3   OH241922   5.765   6.429  11.209  0.7151  0.2449 -0.3759
 6836TIP3    H141923   5.732   6.403  11.295  0.0307 -0.7810 -0.9172
 6836TIP3    H241924   5.710   6.502  11.182 -0.0946 -0.4237 -0.5819
 6837TIP3   OH241925   4.622   4.986  16.930  0.1759  1.0021 -0.0339
 6837TIP3    H141926   4.653   4.930  17.001 -2.4521 -0.1757  0.3275
 6837TIP3    H241927   4.547   5.033  16.967 -2.6275 -1.1716 -2.3700
 6838TIP3   OH241928   5.801   5.058  11.158 -0.4455 -0.0868 -0.3622
 6838TIP3    H141929   5.891   5.047  11.128 -0.9744 -0.5588 -1.8544
 6838TIP3    H241930   5.761   4.972  11.149 -0.4746 -0.4780  2.5007
 6839TIP3   OH241931   2.533   0.781   4.671 -0.4025  0.1919 -0.5692
 6839TIP3    H141932   2.472   0.753   4.740 -0.9244  0.7676 -0.7914
 6839TIP3    H241933   2.479   0.787   4.592 -0.2897  1.7446 -0.5504
 6840TIP3   OH241934   0.635   0.964  14.369 -0.2725 -0.0839 -0.1851
 6840TIP3    H141935   0.671   0.949  14.281 -1.0460 -1.3513 -0.3155
 6840TIP3    H241936   0.679   1.043  14.400  0.7309 -0.1629 -1.3295
 6841TIP3   OH241937   2.359   4.359  15.895 -0.1748  0.2156 -0.5601
 6841TIP3    H141938   2.341   4.273  15.856  0.0649 -1.1111  2.0310
 6841TIP3    H241939   2.408   4.406  15.828 -0.1728 -1.7171 -2.0043
 6842TIP3   OH241940   4.205   1.134   3.516 -0.6774  0.1949 -0.2832
 6842TIP3    H141941   4.230   1.083   3.593  1.0269  2.0751  0.4827
 6842TIP3    H241942   4.250   1.091   3.444  2.5374  1.6919  0.6518
 6843TIP3   OH241943   1.844   1.246   4.019 -0.5445 -0.2701 -0.7579
 6843TIP3    H141944   1.805   1.315   3.965  0.5963  0.6620 -0.4268
 6843TIP3    H241945   1.921   1.217   3.970 -1.3846 -1.8105 -1.2178
 6844TIP3   OH241946   2.321   1.014  11.480 -0.6697 -0.0638  0.0337
 6844TIP3    H141947   2.326   0.952  11.408 -0.3890  0.4022 -0.3578
 6844TIP3    H241948   2.347   0.964  11.557 -2.4835 -0.9867  0.1037
 6845TIP3   OH241949   4.545   0.183   2.749 -0.4842 -0.3064 -0.3028
 6845TIP3    H141950   4.562   0.095   2.714  0.6451  0.1298 -0.8967
 6845TIP3    H241951   4.629   0.211   2.784 -1.1233  0.0705  0.9995
 6846TIP3   OH241952   6.677   4.442  17.095 -0.3870 -0.1618  0.2203
 6846TIP3    H141953   6.583   4.450  17.110 -0.3997  2.3526 -0.6647
 6846TIP3    H241954   6.702   4.361  17.140 -2.9767 -0.9976  0.3090
 6847TIP3   OH241955   5.146   1.616  10.346  0.3533 -0.2016 -0.2146
 6847TIP3    H141956   5.218   1.673  10.321  0.0769  0.5167  0.5717
 6847TIP3    H241957   5.188   1.537  10.379  0.8678  0.7875  1.6411
 6848TIP3   OH241958   0.581   0.618   2.701  0.0887 -0.3711  0.6278
 6848TIP3    H141959   0.626   0.536   2.682  1.8883  0.3448  1.5311
 6848TIP3    H241960   0.532   0.601   2.781 -1.2532 -1.1331 -0.3128
 6849TIP3   OH241961   2.258   2.419  16.800  0.3220 -0.3530  0.4968
 6849TIP3    H141962   2.206   2.494  16.770 -0.1537 -0.0502  2.0063
 6849TIP3    H241963   2.194   2.354  16.827  0.7345 -0.4425  1.2741
 6850TIP3   OH241964   0.776   3.588   4.081  0.2156  0.4946 -0.3562
 6850TIP3    H141965   0.764   3.519   4.016 -2.9236  1.2016 -0.7017
 6850TIP3    H241966   0.707   3.571   4.146  1.2103  1.6744  1.0628
 6851TIP3   OH241967   5.469   2.692  13.192 -0.1889  0.2034  0.6047
 6851TIP3    H141968   5.387   2.713  13.236  0.6525  1.1009  1.8244
 6851TIP3    H241969   5.509   2.776  13.174  0.2185 -0.2075 -0.5064
 6852TIP3   OH241970   3.043   2.529  13.600 -0.1228 -0.1908 -0.3167
 6852TIP3    H141971   2.977   2.584  13.558  0.2512  0.7681  0.3346
 6852TIP3    H241972   3.004   2.507  13.685  0.9489  1.5123  0.6448
 6853TIP3   OH241973   2.533   3.426   1.850  0.4362  0.6698 -0.0650
 6853TIP3    H141974   2.474   3.411   1.776 -0.6660 -2.4955  1.2828
 6853TIP3    H241975   2.514   3.515   1.878 -0.4623  1.2878 -2.3813
 6854TIP3   OH241976   5.852   0.310   1.782  0.1877  0.3068  0.1180
 6854TIP3    H141977   5.911   0.370   1.827  1.2628 -0.4098 -0.2898
 6854TIP3    H241978   5.890   0.223   1.798 -3.2295 -0.8021  3.7490
 6855TIP3   OH241979   2.711   3.414   4.556 -0.1705  0.5962 -0.0760
 6855TIP3    H141980   2.725   3.458   4.640 -0.7800  0.1487  0.2707
 6855TIP3    H241981   2.717   3.484   4.491  0.6044  0.8980  0.3081
 6856TIP3   OH241982   4.155   3.421  12.556  0.1865  0.1529  0.7430
 6856TIP3    H141983   4.240   3.407  12.598 -1.0390 -0.2879  3.2992
 6856TIP3    H241984   4.135   3.514  12.572 -0.2086  0.0319  0.9670
 6857TIP3   OH241985   5.143   6.327   4.724  0.0551 -0.2052 -0.4567
 6857TIP3    H141986   5.228   6.308   4.764 -0.2229  1.6045  1.1091
 6857TIP3    H241987   5.086   6.257   4.756  0.1392  0.5242  1.4181
 6858TIP3   OH241988   3.675   1.508  11.175 -0.0948 -0.3175  0.0956
 6858TIP3    H141989   3.596   1.455  11.165 -0.6542  0.8201 -2.5215
 6858TIP3    H241990   3.687   1.549  11.089  2.7708  0.3760  0.7198
 6859TIP3   OH241991   4.649   6.164   4.174  0.3197 -0.1719 -0.1639
 6859TIP3    H141992   4.642   6.234   4.111 -1.4035 -1.5569 -1.6108
 6859TIP3    H241993   4.673   6.087   4.123 -1.6303 -1.4504  0.7129
 6860TIP3   OH241994   6.302   6.248  11.631  0.4150  0.6377 -0.1346
 6860TIP3    H141995   6.251   6.312  11.583 -0.6160  0.2023  0.3475
 6860TIP3    H241996   6.275   6.259  11.722  0.1499 -0.5274 -0.0541
 6861TIP3   OH241997   1.266   0.617   0.552  0.3694 -0.4712 -0.4516
 6861TIP3    H141998   1.238   0.528   0.573 -1.7399  0.2519 -0.0449
 6861TIP3    H241999   1.200   0.649   0.491  0.8326  1.0081 -0.2058
 6862TIP3   OH242000   0.110   0.108   0.929 -0.1094  0.3568  0.5150
 6862TIP3    H142001   0.151   0.022   0.920 -0.8839 -0.3192  2.6622
 6862TIP3    H242002   0.022   0.089   0.963 -0.3086  1.9971  1.0130
 6863TIP3   OH242003   6.227   4.526  15.464 -0.2290 -0.4557 -0.2078
 6863TIP3    H142004   6.278   4.559  15.538 -1.6154  0.0356  0.5690
 6863TIP3    H242005   6.240   4.431  15.467  0.9796 -0.3190 -0.3160
 6864TIP3   OH242006   2.777   4.336  14.878 -0.7253 -0.0864  0.1871
 6864TIP3    H142007   2.744   4.248  14.896  0.8432 -0.7269  0.1675
 6864TIP3    H242008   2.843   4.351  14.946  0.0827  0.4472 -0.6890
 6865TIP3   OH242009   1.771   0.388   2.099  0.1111 -0.2987 -0.1667
 6865TIP3    H142010   1.705   0.320   2.086  1.0908 -1.3900  0.3664
 6865TIP3    H242011   1.842   0.366   2.038  1.4286 -1.1276  1.5509
 6866TIP3   OH242012   3.388   4.204   2.193  0.4332  0.4806 -0.3016
 6866TIP3    H142013   3.464   4.210   2.251 -0.7519  0.7900  1.2489
 6866TIP3    H242014   3.405   4.269   2.125  1.3538  0.8390  0.2468
 6867TIP3   OH242015   4.037   4.613  15.074  0.4913 -0.0707  0.1312
 6867TIP3    H142016   4.005   4.673  15.142  1.0767  0.5468 -0.1227
 6867TIP3    H242017   4.021   4.526  15.109 -0.4017  0.2378  0.4998
 6868TIP3   OH242018   4.439   2.592  15.907 -0.1188  0.4198  0.8838
 6868TIP3    H142019   4.385   2.583  15.829 -0.1450 -1.7352  1.0849
 6868TIP3    H242020   4.529   2.582  15.876 -0.0597  0.5787  1.0022
 6869TIP3   OH242021   4.935   1.637   5.523  0.1168  0.0225  0.1119
 6869TIP3    H142022   4.993   1.617   5.450 -1.5037 -2.2697 -0.6875
 6869TIP3    H242023   4.864   1.573   5.515 -2.1968  2.2266  1.3872
 6870TIP3   OH242024   1.909   3.096  17.129 -0.9245 -0.2575  0.0474
 6870TIP3    H142025   1.989   3.047  17.148  0.4432  0.6016 -2.9458
 6870TIP3    H242026   1.847   3.030  17.098  0.2226 -0.4707 -1.9829
 6871TIP3   OH242027   3.679   3.126   3.057 -0.5515 -0.3790  1.0553
 6871TIP3    H142028   3.626   3.170   3.123 -0.0971  0.2673  1.0005
 6871TIP3    H242029   3.725   3.196   3.012 -0.5096 -0.8469  0.3456
 6872TIP3   OH242030   1.227   0.262   2.418 -0.2221  0.6616 -0.0413
 6872TIP3    H142031   1.305   0.229   2.463  0.9673  1.2891 -1.5387
 6872TIP3    H242032   1.172   0.297   2.488  0.3173 -0.7775  1.1696
 6873TIP3   OH242033   1.072   0.670   2.399  0.4247  0.3351  0.0979
 6873TIP3    H142034   0.979   0.652   2.406  0.9228 -3.9196 -0.8718
 6873TIP3    H242035   1.090   0.735   2.466 -2.8218 -0.6687  2.1649
 6874TIP3   OH242036   2.629   6.420  14.299  0.2928 -0.0148 -0.1348
 6874TIP3    H142037   2.621   6.360  14.374  1.8790 -2.0701 -1.5115
 6874TIP3    H242038   2.540   6.425  14.263  0.1228 -1.6349 -0.0210
 6875TIP3   OH242039   3.533   4.760   4.159 -0.1088  0.0835 -0.2741
 6875TIP3    H142040   3.446   4.774   4.121 -0.0350  0.2324 -0.3873
 6875TIP3    H242041   3.516   4.744   4.252 -0.2637  0.0313 -0.3098
 6876TIP3   OH242042   5.053   1.735  12.868 -0.8356 -0.2646  0.1546
 6876TIP3    H142043   5.102   1.777  12.938 -0.1793  0.0269 -0.4609
 6876TIP3    H242044   5.119   1.688  12.818 -1.1083  0.4313 -0.9071
 6877TIP3   OH242045   1.703   6.719  13.997  0.0062 -0.0095 -0.4875
 6877TIP3    H142046   1.772   6.785  14.002 -1.8343  2.0864 -0.8869
 6877TIP3    H242047   1.621   6.769  14.004 -1.5000 -2.5090  1.6837
 6878TIP3   OH242048   2.480   5.585   5.944 -0.0378  0.0933 -0.0630
 6878TIP3    H142049   2.461   5.510   6.001 -1.9567  0.4629 -0.1570
 6878TIP3    H242050   2.517   5.651   6.004 -0.8082  0.0065  0.5309
 6879TIP3   OH242051   4.167   0.502   6.262  0.4175  0.3095 -0.4687
 6879TIP3    H142052   4.257   0.486   6.234 -0.3702 -0.7905 -2.5382
 6879TIP3    H242053   4.172   0.505   6.358  2.3054 -2.0501 -0.4090
 6880TIP3   OH242054   6.768   4.261  15.601 -0.3252  0.0541  0.1213
 6880TIP3    H142055   6.773   4.356  15.605  1.1305  0.0079 -0.1153
 6880TIP3    H242056   6.829   4.236  15.531 -2.8998 -0.8936 -1.9707
 6881TIP3   OH242057   4.182   5.909   3.711 -0.1938  0.4744 -0.2481
 6881TIP3    H142058   4.184   5.978   3.777  0.0600 -0.0006  0.2549
 6881TIP3    H242059   4.240   5.841   3.746 -0.8273 -0.2055 -0.4795
 6882TIP3   OH242060   5.261   4.680   0.297 -0.3121  0.1298  0.0180
 6882TIP3    H142061   5.278   4.725   0.380 -1.3641  0.2335  0.1912
 6882TIP3    H242062   5.200   4.610   0.319 -0.1160 -0.2347 -0.5660
 6883TIP3   OH242063   1.387   1.393  15.153  1.1713 -0.4102 -0.0802
 6883TIP3    H142064   1.404   1.299  15.154  0.7528 -0.4907 -0.1538
 6883TIP3    H242065   1.453   1.429  15.094  0.4669 -0.8360 -1.1604
 6884TIP3   OH242066   0.464   5.906   2.983 -0.0647 -0.1760 -0.2327
 6884TIP3    H142067   0.441   5.981   2.928 -0.0479 -0.6492 -0.9004
 6884TIP3    H242068   0.540   5.935   3.033 -0.4436  0.4661 -0.0166
 6885TIP3   OH242069   6.706   5.684  12.560 -0.0711  0.4777 -0.0439
 6885TIP3    H142070   6.779   5.735  12.524 -0.9038  1.0181 -1.0251
 6885TIP3    H242071   6.735   5.661  12.649  0.5209  2.3163  0.3002
 6886TIP3   OH242072   0.510   2.165  15.523 -0.4237 -0.1294  0.3845
 6886TIP3    H142073   0.448   2.151  15.452 -0.1216  0.0035  0.0948
 6886TIP3    H242074   0.470   2.121  15.598 -1.5493  1.0892  0.5561
 6887TIP3   OH242075   1.038   2.144   5.016  0.2759 -0.3830 -0.1808
 6887TIP3    H142076   0.989   2.226   5.032 -1.0192 -0.9462 -1.1083
 6887TIP3    H242077   1.014   2.088   5.089 -1.7244 -1.1849 -1.3623
 6888TIP3   OH242078   3.089   2.983  13.910  0.0831  0.3500  0.1346
 6888TIP3    H142079   3.074   3.008  13.819 -3.8939 -2.1956 -0.1310
 6888TIP3    H242080   3.043   3.050  13.961  1.0640  0.9616  0.2421
 6889TIP3   OH242081   5.352   2.812   1.267  0.3205  0.2197 -0.3016
 6889TIP3    H142082   5.422   2.859   1.221 -0.0993  1.2130  0.0660
 6889TIP3    H242083   5.388   2.794   1.354  0.9254 -1.2164 -0.8201
 6890TIP3   OH242084   3.548   6.595   5.134 -0.3674  0.0649  0.1637
 6890TIP3    H142085   3.591   6.577   5.051 -1.1979  0.4537 -0.3610
 6890TIP3    H242086   3.573   6.685   5.156  1.0511 -0.5124  1.1017
 6891TIP3   OH242087   5.571   3.307   0.273  0.1525  0.1198  0.1963
 6891TIP3    H142088   5.601   3.227   0.316  0.9282  0.4697  0.3332
 6891TIP3    H242089   5.486   3.325   0.313  0.4604 -0.0470  0.9557
 6892TIP3   OH242090   5.165   2.375  13.550  0.0650  0.9131 -0.3395
 6892TIP3    H142091   5.203   2.316  13.615 -1.0818 -0.0680 -0.5257
 6892TIP3    H242092   5.108   2.434  13.600 -0.3477  0.5503 -0.3773
 6893TIP3   OH242093   3.115   6.586  15.922 -0.2565  0.4080  0.3354
 6893TIP3    H142094   3.166   6.555  15.996 -0.0533  1.9595  0.8740
 6893TIP3    H242095   3.178   6.632  15.867 -0.4331 -0.6064 -0.7671
 6894TIP3   OH242096   3.773   3.477   0.852  0.0819 -0.5181 -0.2745
 6894TIP3    H142097   3.708   3.534   0.810  0.2553  0.0473  0.2139
 6894TIP3    H242098   3.748   3.476   0.944  2.0549  1.5866  0.3927
 6895TIP3   OH242099   1.839   2.466  13.741  0.2055  0.3026 -0.4950
 6895TIP3    H142100   1.857   2.372  13.742 -0.6818  0.1225  0.1525
 6895TIP3    H242101   1.924   2.508  13.752  0.6589 -0.4118 -1.2248
 6896TIP3   OH242102   6.493   0.384  13.683 -0.0717  0.0620 -0.1184
 6896TIP3    H142103   6.535   0.466  13.709  2.1224 -0.4792 -1.7462
 6896TIP3    H242104   6.519   0.321  13.751 -1.3428  0.5426  0.8558
 6897TIP3   OH242105   1.255   6.687   6.029 -0.0263 -0.1924 -0.0115
 6897TIP3    H142106   1.336   6.688   5.978 -0.9845 -1.1007 -1.6491
 6897TIP3    H242107   1.272   6.627   6.101  1.2405  0.8268  0.5953
 6898TIP3   OH242108   1.871   4.239  16.605  0.2800 -0.3581  0.1612
 6898TIP3    H142109   1.802   4.301  16.584 -0.7121 -0.4952  2.6752
 6898TIP3    H242110   1.828   4.153  16.604  0.7384 -0.5979  0.3753
 6899TIP3   OH242111   5.666   5.321  16.011  0.5358 -0.2134  0.0967
 6899TIP3    H142112   5.717   5.313  15.930 -1.8717 -0.1111 -1.5109
 6899TIP3    H242113   5.599   5.387  15.991 -1.8325 -2.1450  1.2007
 6900TIP3   OH242114   3.831   4.877   0.759  0.5212  0.4621  0.5116
 6900TIP3    H142115   3.765   4.828   0.710 -0.0315  2.0987 -0.4691
 6900TIP3    H242116   3.906   4.881   0.699  0.8617  0.1711  0.9065
 6901TIP3   OH242117   4.999   2.231  16.275  0.0804  0.0591  0.1138
 6901TIP3    H142118   4.925   2.171  16.264  0.1513 -0.0054 -0.0165
 6901TIP3    H242119   5.046   2.197  16.351  0.0999 -0.0309  0.0618
 6902TIP3   OH242120   5.974   4.683  12.999 -0.3690 -0.5103 -0.1224
 6902TIP3    H142121   6.036   4.674  13.072 -0.9089 -0.8368  0.2971
 6902TIP3    H242122   5.951   4.776  13.000 -0.1096 -0.4427 -0.1030
 6903TIP3   OH242123   3.776   6.205  15.820 -0.0210  0.1788 -0.0004
 6903TIP3    H142124   3.857   6.168  15.856 -0.6561 -1.5592 -0.2413
 6903TIP3    H242125   3.758   6.151  15.743 -2.3893 -0.7453  1.1160
 6904TIP3   OH242126   3.498   2.410   4.759  0.3853 -0.1707 -0.1169
 6904TIP3    H142127   3.484   2.489   4.707 -1.1807 -0.7891 -0.6780
 6904TIP3    H242128   3.567   2.435   4.821 -0.8080  1.9949  0.4441
 6905TIP3   OH242129   1.102   3.587  10.917  0.4012 -0.1392 -0.0895
 6905TIP3    H142130   1.096   3.544  10.832  0.0001  0.7710 -0.5314
 6905TIP3    H242131   1.186   3.558  10.953  0.1263 -1.2981 -0.3546
 6906TIP3   OH242132   4.848   1.781  14.139  0.0443  0.1084 -0.4571
 6906TIP3    H142133   4.857   1.782  14.044  0.9727  0.2087 -0.3738
 6906TIP3    H242134   4.796   1.702  14.157  1.7953 -1.2126 -0.9080
 6907TIP3   OH242135   2.479   1.666  14.918 -0.1751 -0.1499  0.4904
 6907TIP3    H142136   2.519   1.747  14.950 -0.5102  0.0060  0.5219
 6907TIP3    H242137   2.404   1.696  14.866 -2.1372 -0.4708  2.9331
 6908TIP3   OH242138   5.352   4.014  12.104  0.0993  0.0728  0.4157
 6908TIP3    H142139   5.384   4.101  12.080  1.2104 -0.7014 -1.0298
 6908TIP3    H242140   5.423   3.975  12.155  0.9893 -1.1233 -1.6146
 6909TIP3   OH242141   6.215   3.983   2.264  0.6286 -0.0310 -0.5026
 6909TIP3    H142142   6.182   3.903   2.306  2.1770 -0.4030  0.0522
 6909TIP3    H242143   6.215   4.048   2.333  2.0918 -0.3355 -0.1964
 6910TIP3   OH242144   3.882   0.901  14.909 -0.3460 -0.2840 -0.0823
 6910TIP3    H142145   3.916   0.847  14.838 -0.4458 -0.8116  0.2660
 6910TIP3    H242146   3.795   0.927  14.881  0.1300  0.6214 -0.7410
 6911TIP3   OH242147   1.150   4.371  11.750 -0.3600  0.3039  0.1176
 6911TIP3    H142148   1.231   4.416  11.774  0.4380 -1.0215  0.0107
 6911TIP3    H242149   1.082   4.413  11.803  0.4884  1.0589  0.6316
 6912TIP3   OH242150   6.487   5.014   6.042  0.2414  0.1079  0.7664
 6912TIP3    H142151   6.536   5.047   5.967 -1.5621 -1.9854 -1.4801
 6912TIP3    H242152   6.551   4.960   6.090  0.6421 -1.3823 -1.2856
 6913TIP3   OH242153   1.976   1.910  13.789 -0.4890  0.0776 -0.0778
 6913TIP3    H142154   2.023   1.879  13.711  1.6936  0.0221  1.1766
 6913TIP3    H242155   1.900   1.853  13.796  1.0032 -2.0547 -0.3756
 6914TIP3   OH242156   6.506   1.275   4.663 -0.8473  0.2705  0.2839
 6914TIP3    H142157   6.509   1.180   4.675  2.5621  0.3127  0.5197
 6914TIP3    H242158   6.552   1.290   4.580  0.7541  1.8147  1.3781
 6915TIP3   OH242159   5.371   3.506   1.872  0.6487  0.0823 -0.2649
 6915TIP3    H142160   5.412   3.537   1.953  2.4019 -2.5849  0.0106
 6915TIP3    H242161   5.282   3.483   1.897  0.5729  1.0603  0.4238
 6916TIP3   OH242162   0.575   3.955  16.871 -0.5838 -0.8744 -0.1043
 6916TIP3    H142163   0.636   3.957  16.945 -1.1945  0.0212  0.3921
 6916TIP3    H242164   0.508   3.893  16.897 -0.3924 -1.1430 -0.2445
 6917TIP3   OH242165   5.133   0.349   3.692 -0.1044  0.4560 -0.4562
 6917TIP3    H142166   5.046   0.327   3.725  0.0704  0.8395  0.2789
 6917TIP3    H242167   5.190   0.339   3.768  0.3544  1.0616 -0.7221
 6918TIP3   OH242168   1.262   5.279   1.373  0.2810 -0.4828 -0.4174
 6918TIP3    H142169   1.300   5.193   1.353  1.5242 -0.2134  0.7253
 6918TIP3    H242170   1.335   5.340   1.367 -0.3302  0.3112  0.0741
 6919TIP3   OH242171   4.255   2.801   6.255 -0.0138 -0.1462  0.4947
 6919TIP3    H142172   4.258   2.707   6.273 -0.1525 -1.0646 -3.5071
 6919TIP3    H242173   4.210   2.809   6.171 -1.1339  3.6579  1.2644
 6920TIP3   OH242174   0.118   2.562   6.441 -0.0323  0.3747  0.1346
 6920TIP3    H142175   0.123   2.491   6.506 -0.6097  0.6148  0.4465
 6920TIP3    H242176   0.209   2.577   6.416  0.1950  0.2306  0.8397
 6921TIP3   OH242177   5.530   6.281  15.726 -0.1145  0.6963 -0.4432
 6921TIP3    H142178   5.598   6.348  15.734 -0.3692  1.1086 -1.5009
 6921TIP3    H242179   5.466   6.303  15.793 -1.5858  3.2397 -2.5106
 6922TIP3   OH242180   5.450   1.061   1.398 -0.2413 -0.3894 -0.0902
 6922TIP3    H142181   5.375   1.050   1.339 -0.4057  0.3319 -0.0155
 6922TIP3    H242182   5.510   1.119   1.351  0.0695 -0.5906  0.0492
 6923TIP3   OH242183   0.968   2.541  11.413 -0.7835 -0.3920 -0.2980
 6923TIP3    H142184   1.034   2.546  11.344  3.0839  0.0795  3.0159
 6923TIP3    H242185   0.943   2.633  11.429  1.6924  0.0675  1.5929
 6924TIP3   OH242186   6.316   4.719   4.684 -0.1673 -0.2029 -0.3708
 6924TIP3    H142187   6.323   4.629   4.715 -0.7224 -1.0459 -2.4670
 6924TIP3    H242188   6.277   4.767   4.757 -0.1117 -1.7132  0.6938
 6925TIP3   OH242189   0.619   4.605  11.341 -0.6365  0.1494 -0.4382
 6925TIP3    H142190   0.642   4.553  11.264 -0.5770  0.3193 -0.5370
 6925TIP3    H242191   0.690   4.589  11.403  0.6599  1.9363 -1.3433
 6926TIP3   OH242192   3.792   1.623  14.856 -0.2080 -0.2303 -0.2096
 6926TIP3    H142193   3.823   1.540  14.822  1.0397  0.7008 -1.4457
 6926TIP3    H242194   3.835   1.689  14.802  2.7807  1.4535  3.7217
 6927TIP3   OH242195   6.141   5.004   5.226 -0.1736  0.0531  0.3022
 6927TIP3    H142196   6.232   4.975   5.225  0.0527  0.1568  4.1232
 6927TIP3    H242197   6.097   4.942   5.284 -1.8218  1.8463  1.0497
 6928TIP3   OH242198   2.945   3.030   4.802  0.7304 -0.2708 -0.1162
 6928TIP3    H142199   2.872   2.972   4.825 -0.2869 -0.0954 -2.5771
 6928TIP3    H242200   2.907   3.091   4.738  2.7383  0.6187 -0.5132
 6929TIP3   OH242201   3.453   0.450  12.101  0.6741  0.2570  0.1009
 6929TIP3    H142202   3.420   0.387  12.037  0.1464  0.8970 -0.2567
 6929TIP3    H242203   3.386   0.518  12.107 -0.5169 -0.9909  3.1813
 6930TIP3   OH242204   3.924   3.567   3.941 -0.5117  0.0306 -0.3413
 6930TIP3    H142205   3.944   3.661   3.937  1.3130 -0.3587 -2.5314
 6930TIP3    H242206   4.010   3.525   3.948 -1.3380 -1.4965  1.5829
 6931TIP3   OH242207   5.417   4.115   1.430 -0.0183 -0.1049 -0.4275
 6931TIP3    H142208   5.409   4.163   1.348 -0.8743  1.5551  0.5427
 6931TIP3    H242209   5.366   4.168   1.493  1.4755 -0.7241  1.4047
 6932TIP3   OH242210   5.615   1.858  14.705  0.1236 -0.7288  0.0579
 6932TIP3    H142211   5.600   1.935  14.760 -2.4520  0.5831 -2.2219
 6932TIP3    H242212   5.689   1.882  14.649 -1.4047  0.7113 -1.4603
 6933TIP3   OH242213   6.537   4.365  13.239 -0.5146 -0.7470  0.3717
 6933TIP3    H142214   6.538   4.456  13.211  2.2841 -1.3291 -1.9531
 6933TIP3    H242215   6.562   4.368  13.332  0.3258  0.8416  0.1246
 6934TIP3   OH242216   1.394   1.162   2.453  0.0316 -0.4073 -0.3814
 6934TIP3    H142217   1.405   1.094   2.518  0.5092 -0.2676 -0.3168
 6934TIP3    H242218   1.478   1.167   2.408  0.2602  0.6636  0.1227
 6935TIP3   OH242219   5.413   2.129  14.108 -0.5233  0.0831  0.4589
 6935TIP3    H142220   5.426   2.156  14.199 -1.6163  2.9521 -0.1056
 6935TIP3    H242221   5.389   2.037  14.113 -1.4593  0.3824  3.1965
 6936TIP3   OH242222   2.077   3.367   2.377 -0.2544  0.3425  0.2544
 6936TIP3    H142223   2.140   3.300   2.351  0.8604  1.6345 -0.5059
 6936TIP3    H242224   2.014   3.371   2.304  0.3997  0.9720 -0.2882
 6937TIP3   OH242225   1.932   1.398  12.639  0.5626 -0.2886 -0.4376
 6937TIP3    H142226   1.961   1.480  12.598  0.1152 -0.2306 -0.6420
 6937TIP3    H242227   1.909   1.341  12.565  0.4089 -0.4283 -0.2823
 6938TIP3   OH242228   6.464   0.504   1.072  0.3040  0.1613  0.0263
 6938TIP3    H142229   6.544   0.557   1.068 -0.6821  1.7157 -3.0991
 6938TIP3    H242230   6.464   0.455   0.990 -0.8226 -1.6717  1.0591
 6939TIP3   OH242231   2.428   2.360  12.630 -0.0285 -0.0719  0.4854
 6939TIP3    H142232   2.397   2.299  12.697 -0.8772  0.7382  0.8551
 6939TIP3    H242233   2.497   2.410  12.673  1.0688 -1.1196  0.0068
 6940TIP3   OH242234   3.843   5.579   4.020  0.0111  0.3861  0.0095
 6940TIP3    H142235   3.747   5.571   4.013  0.1239 -0.3278 -0.8686
 6940TIP3    H242236   3.869   5.503   4.073  0.1587  0.1908 -0.3429
 6941TIP3   OH242237   2.521   0.715   2.589 -0.1635  0.2208 -0.1812
 6941TIP3    H142238   2.577   0.736   2.514 -1.0503  0.1984 -0.8724
 6941TIP3    H242239   2.488   0.627   2.571 -0.7315  0.3867  0.0109
 6942TIP3   OH242240   1.618   2.625   5.732 -0.0578 -0.1434 -0.4852
 6942TIP3    H142241   1.680   2.553   5.744 -1.3283 -1.2213 -0.1036
 6942TIP3    H242242   1.547   2.587   5.680 -0.2637  1.1560 -1.2095
 6943TIP3   OH242243   6.500   3.251  12.301 -0.1468 -0.5284 -0.2931
 6943TIP3    H142244   6.447   3.329  12.317  0.1875 -0.6835  1.8926
 6943TIP3    H242245   6.446   3.198  12.241 -0.9869  0.7469 -0.7072
 6944TIP3   OH242246   3.493   1.994   6.015 -0.7152  0.8474  0.2061
 6944TIP3    H142247   3.416   1.940   5.997 -0.3034  0.1435  0.5296
 6944TIP3    H242248   3.468   2.046   6.091 -0.7210  0.3145  0.5712
 6945TIP3   OH242249   3.978   0.482  11.345 -0.6753  0.1257 -0.3443
 6945TIP3    H142250   4.063   0.456  11.380 -0.8598 -0.6987 -0.4822
 6945TIP3    H242251   3.999   0.536  11.268 -0.2717 -0.5242 -0.7020
 6946TIP3   OH242252   3.616   0.152  11.887  0.3927  0.0340  0.1483
 6946TIP3    H142253   3.648   0.217  11.824  1.2845 -2.1271 -1.7513
 6946TIP3    H242254   3.652   0.182  11.971  1.6458  1.4395 -0.8214
 6947TIP3   OH242255   2.248   2.213  14.597  0.0485 -0.4226 -0.4977
 6947TIP3    H142256   2.155   2.209  14.620 -0.4881 -2.5280 -2.5746
 6947TIP3    H242257   2.250   2.263  14.516  0.4636 -1.6875 -1.3036
 6948TIP3   OH242258   0.363   6.310  15.579 -0.6278 -0.1522 -0.2388
 6948TIP3    H142259   0.426   6.305  15.651 -1.3697  1.1903  0.5416
 6948TIP3    H242260   0.403   6.370  15.516 -0.3870 -0.6097 -0.5242
 6949TIP3   OH242261   6.388   3.621   5.889 -0.0368 -0.5919  1.0216
 6949TIP3    H142262   6.381   3.712   5.861 -0.7905 -1.3473 -1.5259
 6949TIP3    H242263   6.300   3.598   5.917 -1.1718 -1.7383 -2.8346
 6950TIP3   OH242264   6.456   0.138   6.379  0.0754  0.3107 -0.1128
 6950TIP3    H142265   6.405   0.198   6.433  1.9978 -1.7742  4.5488
 6950TIP3    H242266   6.538   0.184   6.361 -0.1042  0.5793 -0.2511
 6951TIP3   OH242267   6.321   6.531  16.977  0.7871 -0.0160  0.5397
 6951TIP3    H142268   6.402   6.556  17.021  0.0396  1.6942  1.0124
 6951TIP3    H242269   6.252   6.564  17.034 -0.2762 -1.5415  0.2017
 6952TIP3   OH242270   5.948   4.541  15.049  0.1094 -0.6612  0.0809
 6952TIP3    H142271   5.982   4.473  15.108 -0.5261 -0.9470  0.1244
 6952TIP3    H242272   6.013   4.611  15.054 -0.2734 -0.3583  1.7048
 6953TIP3   OH242273   6.543   4.618  13.165 -0.1794 -0.4420 -0.3933
 6953TIP3    H142274   6.579   4.639  13.252 -0.3678 -0.3791 -0.3303
 6953TIP3    H242275   6.583   4.682  13.106 -0.8206  0.1644 -0.1897
 6954TIP3   OH242276   0.575   5.299   4.944 -0.3815  0.3013 -0.3454
 6954TIP3    H142277   0.492   5.259   4.971 -0.7249 -0.0993 -1.9114
 6954TIP3    H242278   0.574   5.295   4.848  0.7503  1.7201 -0.4558
 6955TIP3   OH242279   2.605   4.450   0.074 -0.0945 -0.2898  0.1705
 6955TIP3    H142280   2.657   4.529   0.058 -0.3648 -0.4397 -1.6628
 6955TIP3    H242281   2.661   4.379   0.042 -0.6637 -0.6345 -0.0596
 6956TIP3   OH242282   1.389   2.349   2.986  0.2809 -0.0655  0.0135
 6956TIP3    H142283   1.384   2.344   3.081 -0.0106  0.0668  0.0046
 6956TIP3    H242284   1.422   2.262   2.959  0.6030 -0.0166  0.2477
 6957TIP3   OH242285   6.277   3.935  11.517  0.1533  0.0586  0.0288
 6957TIP3    H142286   6.310   4.019  11.548  0.9475 -0.6811  1.2734
 6957TIP3    H242287   6.328   3.917  11.438  0.2021  0.5870 -0.0619
 6958TIP3   OH242288   0.185   6.355  11.511  0.5566 -0.3966  0.0530
 6958TIP3    H142289   0.141   6.399  11.439  0.1501  2.6104  1.9379
 6958TIP3    H242290   0.119   6.297  11.548 -0.8460  1.5376  0.7682
 6959TIP3   OH242291   6.109   4.004   5.876 -0.5307 -0.3711 -0.5423
 6959TIP3    H142292   6.090   3.965   5.962 -1.5316  0.4924 -0.3491
 6959TIP3    H242293   6.088   4.097   5.887  1.9696  0.3112 -0.9414
 6960TIP3   OH242294   5.567   5.644   0.120 -0.4331  0.5004  1.0195
 6960TIP3    H142295   5.643   5.683   0.164 -0.0959  2.1395 -0.8900
 6960TIP3    H242296   5.492   5.679   0.167 -0.0687  1.7926  0.6931
 6961TIP3   OH242297   3.339   4.668  15.756  0.2284 -0.1650  0.0939
 6961TIP3    H142298   3.290   4.750  15.750 -0.5864 -0.3588  2.8273
 6961TIP3    H242299   3.275   4.604  15.788  1.0362 -1.7234 -1.2297
 6962TIP3   OH242300   1.119   3.029  10.975 -0.0350 -0.7447 -0.4748
 6962TIP3    H142301   1.075   3.086  10.912 -2.0629  0.1335  1.6410
 6962TIP3    H242302   1.212   3.038  10.953 -0.3276  2.6044 -0.9094
 6963TIP3   OH242303   2.720   2.022  12.776 -0.2016  0.0555 -0.0607
 6963TIP3    H142304   2.773   1.995  12.702  1.2770 -1.8729  1.5964
 6963TIP3    H242305   2.732   2.117  12.780  1.0929 -0.0192 -1.2332
 6964TIP3   OH242306   0.231   0.160  12.570  0.5337 -0.0250  0.1503
 6964TIP3    H142307   0.185   0.086  12.610  1.0883 -1.1993 -1.2988
 6964TIP3    H242308   0.297   0.185  12.635  0.6070 -1.0779  0.5013
 6965TIP3   OH242309   4.673   5.876   2.879 -0.1400  0.1830 -0.6549
 6965TIP3    H142310   4.662   5.963   2.915  1.1174 -0.9489  2.8862
 6965TIP3    H242311   4.584   5.845   2.860 -1.1618  0.4240  3.0124
 6966TIP3   OH242312   2.384   5.042  11.284 -0.1531  0.0382  0.1698
 6966TIP3    H142313   2.316   5.005  11.341 -0.6278  0.3931 -0.1567
 6966TIP3    H242314   2.337   5.068  11.204  0.3300  0.4572  0.0148
 6967TIP3   OH242315   5.912   3.187   1.721 -0.4918  0.2764 -0.3420
 6967TIP3    H142316   5.927   3.280   1.706  0.1256  0.0663 -1.0904
 6967TIP3    H242317   6.000   3.149   1.730 -0.7455 -0.1633  0.4486
 6968TIP3   OH242318   6.694   5.449  12.003 -0.5213 -0.3404  0.3902
 6968TIP3    H142319   6.742   5.514  11.952 -2.2829 -0.4152 -1.5251
 6968TIP3    H242320   6.646   5.398  11.937 -2.4870 -0.8166  2.0888
 6969TIP3   OH242321   2.764   6.202   1.797  1.0649 -0.1130  0.0779
 6969TIP3    H142322   2.713   6.265   1.746  1.0970 -0.0653  0.1044
 6969TIP3    H242323   2.754   6.119   1.751 -0.8120 -0.5994  1.2382
 6970TIP3   OH242324   1.877   3.049  13.826 -0.8455  0.1219 -0.0850
 6970TIP3    H142325   1.835   2.980  13.878  0.7892 -0.7079  0.1989
 6970TIP3    H242326   1.857   3.130  13.873 -3.2885 -0.0123 -0.7406
 6971TIP3   OH242327   0.469   2.116   5.247  0.0908 -0.5458  0.2170
 6971TIP3    H142328   0.420   2.193   5.218  1.2554  0.2276  0.2278
 6971TIP3    H242329   0.544   2.112   5.189  1.2473 -0.3272  1.6340
 6972TIP3   OH242330   6.207   4.063   4.641  0.1815  0.0141 -1.0361
 6972TIP3    H142331   6.126   4.095   4.603  0.0832  0.2132 -0.6620
 6972TIP3    H242332   6.260   4.142   4.656 -1.0003  0.3523  2.1432
 6973TIP3   OH242333   4.834   4.963  11.036 -0.6902 -0.8084 -0.1223
 6973TIP3    H142334   4.834   4.952  10.941 -0.8291 -0.5118 -0.1578
 6973TIP3    H242335   4.926   4.950  11.062 -0.2219  1.1771 -0.5542
 6974TIP3   OH242336   3.797   4.584   1.035 -0.1775  0.5857  0.7492
 6974TIP3    H142337   3.798   4.577   0.940  1.6662 -0.8046  0.8198
 6974TIP3    H242338   3.805   4.678   1.052 -1.7454  0.9609 -0.4287
 6975TIP3   OH242339   3.346   2.690  15.868 -0.1289 -0.1332  0.4081
 6975TIP3    H142340   3.334   2.610  15.818 -0.6402  0.3180 -0.2100
 6975TIP3    H242341   3.267   2.742  15.850 -0.2065  0.1557  1.4668
 6976TIP3   OH242342   0.980   2.162  17.194  0.3333  0.7068 -0.1179
 6976TIP3    H142343   0.928   2.084  17.215 -0.5614  1.4823  0.6541
 6976TIP3    H242344   1.019   2.188  17.278  0.0867  1.4581 -0.2269
 6977TIP3   OH242345   1.164   2.645  13.282 -0.3078 -0.2986  0.1028
 6977TIP3    H142346   1.090   2.586  13.270 -0.1378 -0.5627  0.3623
 6977TIP3    H242347   1.233   2.591  13.318  0.8137 -0.5999 -2.2991
 6978TIP3   OH242348   0.330   4.264  16.959 -0.2895 -0.2586  0.3707
 6978TIP3    H142349   0.367   4.339  17.007 -0.4766  0.0752 -0.0069
 6978TIP3    H242350   0.351   4.189  17.014 -1.1408  0.1975  1.3584
 6979TIP3   OH242351   5.785   4.419  13.013  0.1196  0.1065 -0.0237
 6979TIP3    H142352   5.719   4.453  12.952 -1.1735 -1.3476  0.4974
 6979TIP3    H242353   5.860   4.478  13.003 -1.2441  1.8206 -0.6446
 6980TIP3   OH242354   0.454   1.200   3.465  0.3536 -0.1946  0.5998
 6980TIP3    H142355   0.429   1.287   3.433  0.7466 -0.5114 -0.6240
 6980TIP3    H242356   0.400   1.139   3.415 -0.6290 -0.6425  2.1453
 6981TIP3   OH242357   5.692   2.860   3.768 -0.2105 -0.0791  0.4713
 6981TIP3    H142358   5.739   2.931   3.724  0.2261  0.7100  2.1319
 6981TIP3    H242359   5.636   2.822   3.700  1.4087  0.2055 -1.0756
 6982TIP3   OH242360   5.051   5.732   5.354  0.1048 -0.1877  0.2736
 6982TIP3    H142361   4.961   5.762   5.337 -0.5321 -1.6120  0.9503
 6982TIP3    H242362   5.070   5.672   5.283  0.2570 -0.4126  0.5024
 6983TIP3   OH242363   4.455   6.749  13.080 -0.4354 -0.0635 -0.4856
 6983TIP3    H142364   4.426   6.756  13.171 -0.4319 -1.6673 -0.3320
 6983TIP3    H242365   4.392   6.690  13.039  0.0564 -0.0428 -1.3093
 6984TIP3   OH242366   2.817   0.556   1.447 -0.0739  0.5957 -0.3205
 6984TIP3    H142367   2.881   0.524   1.383 -0.8505  1.4396 -1.5654
 6984TIP3    H242368   2.870   0.598   1.514  1.1828 -4.2043  2.2002
 6985TIP3   OH242369   3.866   5.965   2.776  0.3595 -0.7187 -0.0251
 6985TIP3    H142370   3.917   5.991   2.853 -1.9501  2.7048  0.5690
 6985TIP3    H242371   3.929   5.966   2.704  2.1253 -1.8842  1.4201
 6986TIP3   OH242372   5.015   4.443   5.836  0.7792  0.2770  0.1537
 6986TIP3    H142373   5.017   4.387   5.758  2.0901  1.0002 -0.3630
 6986TIP3    H242374   4.922   4.460   5.851  0.4684 -0.4719 -0.8193
 6987TIP3   OH242375   1.120   4.005  11.017  0.0752  0.0631 -0.3670
 6987TIP3    H142376   1.170   3.925  11.031 -0.3041  0.0026  0.7838
 6987TIP3    H242377   1.080   3.994  10.930 -3.1435 -2.8348  1.2066
 6988TIP3   OH242378   4.520   5.979   1.373  0.3911  0.2512 -0.4774
 6988TIP3    H142379   4.544   5.977   1.281 -0.8577  1.2888 -0.8553
 6988TIP3    H242380   4.584   6.038   1.414  0.9018 -0.1560 -0.6746
 6989TIP3   OH242381   2.981   0.893   5.975 -0.8735  0.1032  0.1738
 6989TIP3    H142382   2.980   0.967   6.036  0.1421  0.3211 -0.0523
 6989TIP3    H242383   3.071   0.891   5.941 -0.0384 -2.8207  2.1194
 6990TIP3   OH242384   3.488   3.075   4.012 -0.0871  0.0629 -0.0009
 6990TIP3    H142385   3.412   3.018   4.005 -0.8086  1.1066 -0.9349
 6990TIP3    H242386   3.475   3.122   4.094  1.3072 -2.1459  1.6263
 6991TIP3   OH242387   4.769   0.966  15.160 -0.4395  0.0115 -0.2977
 6991TIP3    H142388   4.709   0.953  15.086  0.8824  0.6368 -1.5235
 6991TIP3    H242389   4.732   0.913  15.230 -2.9738  1.1336 -0.6706
 6992TIP3   OH242390   5.478   3.718   3.611  0.3515 -0.1481 -0.4271
 6992TIP3    H142391   5.391   3.755   3.595  0.0099 -1.4898 -2.0349
 6992TIP3    H242392   5.499   3.743   3.700 -0.7100  2.1175 -0.7511
 6993TIP3   OH242393   0.864   0.086  15.050  0.4571  0.6396 -0.4621
 6993TIP3    H142394   0.912   0.100  15.132  1.4005 -0.8438 -0.7202
 6993TIP3    H242395   0.847   0.174  15.017 -0.5482  1.2951  1.6413
 6994TIP3   OH242396   2.824   4.242  16.235  0.0584  0.4591 -1.1361
 6994TIP3    H142397   2.903   4.266  16.284 -0.3215  1.0781 -0.7981
 6994TIP3    H242398   2.759   4.225  16.303  0.0561 -0.6257 -1.4024
 6995TIP3   OH242399   5.811   3.161  14.210 -0.0612  0.4063  0.2455
 6995TIP3    H142400   5.883   3.125  14.159 -0.9985  0.1681 -0.9323
 6995TIP3    H242401   5.803   3.252  14.180 -1.0997  0.0530 -0.6213
 6996TIP3   OH242402   6.088   0.635  11.017  0.2811  0.0568 -0.0705
 6996TIP3    H142403   6.084   0.581  10.938  0.2422  1.5318 -1.1043
 6996TIP3    H242404   6.022   0.703  11.004  0.1813  0.2675  1.3038
 6997TIP3   OH242405   4.710   2.666   2.802  0.5128  0.2581 -0.1775
 6997TIP3    H142406   4.616   2.652   2.794  0.3024  1.7597 -0.6702
 6997TIP3    H242407   4.747   2.624   2.725 -0.0618  1.9702 -1.4623
 6998TIP3   OH242408   5.208   6.545  15.118  0.1589  0.1825 -0.1425
 6998TIP3    H142409   5.154   6.475  15.154 -0.2139  0.1866 -0.6872
 6998TIP3    H242410   5.146   6.611  15.088  0.2166 -1.2243 -3.7966
 6999TIP3   OH242411   3.685   5.825   4.671 -0.3436 -0.3078 -0.1799
 6999TIP3    H142412   3.740   5.894   4.707 -1.5261  0.3611  0.3952
 6999TIP3    H242413   3.703   5.827   4.577  1.2534 -0.7095  0.0802
 7000TIP3   OH242414   1.976   4.400  12.485 -0.1494  0.1569 -0.2302
 7000TIP3    H142415   2.067   4.415  12.458 -0.0588 -0.1403 -0.0939
 7000TIP3    H242416   1.955   4.313  12.451 -0.7817  0.7199 -1.3136
 7001TIP3   OH242417   2.679   4.679   3.088 -0.4130  0.5427  0.6995
 7001TIP3    H142418   2.764   4.722   3.097 -0.7660  1.1640  1.1360
 7001TIP3    H242419   2.615   4.749   3.104 -1.0572  0.6384 -1.8197
 7002TIP3   OH242420   6.461   0.404  10.996 -0.7138 -0.2665 -0.5012
 7002TIP3    H142421   6.469   0.491  10.956  0.7694  0.9504  2.2168
 7002TIP3    H242422   6.386   0.411  11.055  0.9792  0.0905  1.7159
 7003TIP3   OH242423   4.570   4.228   1.226 -0.1429  0.2752  0.1481
 7003TIP3    H142424   4.487   4.254   1.268 -0.5630  2.9007 -2.0780
 7003TIP3    H242425   4.546   4.208   1.136  1.4388 -0.6294 -0.1113
 7004TIP3   OH242426   6.353   3.688   0.568  0.0627 -0.3266  0.0635
 7004TIP3    H142427   6.413   3.732   0.628 -0.4330  0.7700 -0.2321
 7004TIP3    H242428   6.266   3.716   0.596 -0.2403 -0.7330 -0.4485
 7005TIP3   OH242429   3.590   2.455  11.934 -0.3690 -0.0743 -0.0556
 7005TIP3    H142430   3.501   2.423  11.951 -0.0648 -0.4517  0.9113
 7005TIP3    H242431   3.646   2.392  11.979  0.3644  0.5151 -0.1346
 7006TIP3   OH242432   6.115   3.502   5.533  0.5832 -0.2130  0.1227
 7006TIP3    H142433   6.027   3.484   5.566  1.0467  0.3790  1.7462
 7006TIP3    H242434   6.115   3.463   5.445 -1.3473 -0.0753  0.0038
 7007TIP3   OH242435   4.726   1.954   6.337  0.1975  0.2321 -0.0333
 7007TIP3    H142436   4.726   1.978   6.244  1.9394  2.1647  0.3755
 7007TIP3    H242437   4.776   1.873   6.341  0.7731  0.5443 -0.7189
 7008TIP3   OH242438   1.860   6.316  16.922  0.5750 -0.2018  0.0921
 7008TIP3    H142439   1.797   6.267  16.870  1.1797 -1.5286  0.5667
 7008TIP3    H242440   1.938   6.321  16.867  0.5824  0.0685  0.1249
 7009TIP3   OH242441   6.489   0.232   3.099  0.3609  0.7690  0.4992
 7009TIP3    H142442   6.570   0.204   3.057  1.3147 -0.7892  3.1178
 7009TIP3    H242443   6.491   0.328   3.095  2.0205  0.7362 -0.0154
 7010TIP3   OH242444   5.900   0.900  14.193 -0.0978 -0.5864  0.5759
 7010TIP3    H142445   5.813   0.892  14.232 -0.7915 -1.6766 -1.0786
 7010TIP3    H242446   5.959   0.913  14.268 -1.3947 -2.1684  1.9670
 7011TIP3   OH242447   3.319   4.347  12.802 -0.0673  0.6074 -0.0749
 7011TIP3    H142448   3.389   4.296  12.842 -1.0820 -0.0888  0.8485
 7011TIP3    H242449   3.356   4.376  12.718  0.0963 -2.8473 -1.3575
 7012TIP3   OH242450   0.523   2.884  10.842 -0.5068 -0.4157  0.1834
 7012TIP3    H142451   0.524   2.831  10.922 -1.5340 -1.6971 -0.6066
 7012TIP3    H242452   0.550   2.824  10.773 -3.3376 -0.4661 -1.0146
 7013TIP3   OH242453   2.938   2.696   0.730 -0.5181 -0.0055 -0.3307
 7013TIP3    H142454   2.907   2.710   0.641 -0.5908  0.0608 -0.2950
 7013TIP3    H242455   2.867   2.649   0.773  0.1463 -1.4219 -0.7413
 7014TIP3   OH242456   4.081   5.961  17.051  0.0765  0.4626  0.1617
 7014TIP3    H142457   4.144   5.932  16.986  1.4663  1.4072  1.0146
 7014TIP3    H242458   4.008   5.900  17.044  0.5134  0.0985 -1.7339
 7015TIP3   OH242459   3.393   4.333  16.838 -0.2606 -0.0048 -0.4920
 7015TIP3    H142460   3.331   4.278  16.791  1.1635 -0.1513 -2.2867
 7015TIP3    H242461   3.437   4.273  16.898 -0.2686 -0.3545 -0.8375
 7016TIP3   OH242462   2.058   5.641   3.701 -0.3412 -0.2303 -0.2952
 7016TIP3    H142463   1.984   5.612   3.648 -2.3599  1.8008  1.2355
 7016TIP3    H242464   2.064   5.735   3.686  0.3442  0.0558  1.4833
 7017TIP3   OH242465   1.423   2.736  11.875 -0.1542 -1.0749  0.7035
 7017TIP3    H142466   1.399   2.801  11.941 -0.5437 -1.7380  1.2325
 7017TIP3    H242467   1.502   2.695  11.909 -0.0202 -1.0138  0.4674
 7018TIP3   OH242468   0.939   2.416  12.469  1.1102  0.0979 -0.0285
 7018TIP3    H142469   1.006   2.453  12.412  0.7859 -0.0933 -0.5411
 7018TIP3    H242470   0.988   2.366  12.535  1.4757  0.1348 -0.2726
 7019TIP3   OH242471   3.928   1.452  11.025  0.2513  0.0104 -0.0291
 7019TIP3    H142472   3.907   1.423  10.936  1.4735 -0.9887 -0.0040
 7019TIP3    H242473   3.849   1.432  11.076 -0.7524  1.2892 -1.0082
 7020TIP3   OH242474   0.741   0.239  14.099 -0.5487 -0.4760  0.1477
 7020TIP3    H142475   0.802   0.266  14.031  0.8030  0.9353  1.8371
 7020TIP3    H242476   0.657   0.231  14.054  0.1781  0.9575 -1.5744
 7021TIP3   OH242477   1.478   1.149  14.312 -0.3541 -0.5735  0.6090
 7021TIP3    H142478   1.565   1.124  14.281 -0.0980 -0.2115  1.0179
 7021TIP3    H242479   1.486   1.150  14.407 -0.4739  0.5986  0.6267
 7022TIP3   OH242480   1.156   1.113   3.819 -0.2587  0.2557 -0.4685
 7022TIP3    H142481   1.146   1.198   3.862  0.9066  0.1128  0.1119
 7022TIP3    H242482   1.231   1.072   3.863 -0.0189 -0.5532 -1.5880
 7023TIP3   OH242483   3.920   2.625   2.760  0.1652 -0.0840 -0.5638
 7023TIP3    H142484   3.862   2.641   2.835  1.2048 -1.4075  0.5644
 7023TIP3    H242485   4.005   2.658   2.788  0.2236  0.8829 -1.8079
 7024TIP3   OH242486   0.682   3.943  13.745  0.2063  0.4345 -0.9757
 7024TIP3    H142487   0.604   3.992  13.772 -0.4547 -1.0125 -0.1188
 7024TIP3    H242488   0.655   3.851  13.751  2.2669 -0.1477  0.3252
 7025TIP3   OH242489   6.784   6.538  16.701  0.1345  0.2392  0.2279
 7025TIP3    H142490   6.784   6.584  16.786  0.6717 -0.9658  0.9003
 7025TIP3    H242491   6.710   6.479  16.706  1.8693 -2.0219  1.1334
 7026TIP3   OH242492   3.420   1.243  11.361 -0.0122  0.0838  0.3329
 7026TIP3    H142493   3.330   1.264  11.384  0.3607  0.7125  1.2916
 7026TIP3    H242494   3.436   1.290  11.279 -0.9727 -1.1811 -0.6362
 7027TIP3   OH242495   0.291   4.909  11.622 -0.0202  0.1224  0.1105
 7027TIP3    H142496   0.364   4.898  11.561  0.2463 -0.4311  0.5212
 7027TIP3    H242497   0.272   5.003  11.620 -0.0546  0.1009 -0.8633
 7028TIP3   OH242498   2.020   4.325   6.448  0.2767  0.1963 -0.1621
 7028TIP3    H142499   2.064   4.276   6.378 -0.2207  0.5199 -0.7168
 7028TIP3    H242500   2.065   4.410   6.448  0.9077 -0.1264  0.5633
 7029TIP3   OH242501   3.655   2.951   1.636 -0.3062 -0.2172  0.4767
 7029TIP3    H142502   3.643   3.043   1.659 -1.9954 -0.5393  1.0150
 7029TIP3    H242503   3.748   2.944   1.615 -0.0259  1.4848  0.9657
 7030TIP3   OH242504   1.948   2.577  15.557 -0.0811  0.2294 -0.0037
 7030TIP3    H142505   1.978   2.539  15.475  1.2072  1.3090 -0.0786
 7030TIP3    H242506   1.875   2.634  15.532 -0.0448  0.1331 -0.3261
 7031TIP3   OH242507   1.559   5.712  13.550 -0.0635  0.4210 -0.3003
 7031TIP3    H142508   1.585   5.793  13.506  3.3506  0.0410  0.6666
 7031TIP3    H242509   1.513   5.661  13.484 -0.4689  2.3170 -1.5294
 7032TIP3   OH242510   0.996   1.886   6.748  0.6791 -0.0731  0.0288
 7032TIP3    H142511   1.062   1.944   6.784  1.4120 -0.8868  0.0481
 7032TIP3    H242512   1.032   1.798   6.761 -0.6598 -0.5731  0.5520
 7033TIP3   OH242513   4.433   1.810  16.788 -0.7187  0.0785  0.1901
 7033TIP3    H142514   4.375   1.782  16.717 -0.1875 -0.1406 -0.1654
 7033TIP3    H242515   4.480   1.885  16.753  0.5037 -0.8244 -0.1922
 7034TIP3   OH242516   2.089   5.625  13.550  0.0587  0.4828  0.4101
 7034TIP3    H142517   2.172   5.580  13.564 -0.6524 -1.1801 -0.4389
 7034TIP3    H242518   2.076   5.623  13.455 -1.8204 -1.0056  0.6298
 7035TIP3   OH242519   5.705   4.079  15.008  0.0036  0.5188 -0.0432
 7035TIP3    H142520   5.771   4.040  15.065  0.6024  1.2863 -0.1947
 7035TIP3    H242521   5.665   4.149  15.060 -0.5119  0.2333 -0.0450
 7036TIP3   OH242522   4.729   5.201  13.198 -0.0932 -0.2058 -1.0906
 7036TIP3    H142523   4.672   5.177  13.125  2.0295 -0.1002 -2.8716
 7036TIP3    H242524   4.675   5.260  13.251 -1.6303 -0.0689 -2.6960
 7037TIP3   OH242525   2.939   5.838  15.774  0.5099 -0.3260  0.3949
 7037TIP3    H142526   3.007   5.890  15.817  1.6651 -0.4623 -1.1970
 7037TIP3    H242527   2.971   5.748  15.776  0.2565 -0.4337 -0.1235
 7038TIP3   OH242528   5.222   4.234   0.377  0.1293  0.1687 -0.0287
 7038TIP3    H142529   5.235   4.167   0.444 -0.9504  2.0169  2.1230
 7038TIP3    H242530   5.310   4.251   0.342  0.6017 -1.3519  0.3430
 7039TIP3   OH242531   1.573   5.537  12.217 -0.4777  0.4022 -0.4503
 7039TIP3    H142532   1.596   5.455  12.174 -1.1302 -0.3291  0.5172
 7039TIP3    H242533   1.648   5.556  12.274 -0.5031  0.2266 -0.3543
 7040TIP3   OH242534   6.335   4.371  12.094 -0.0492 -0.3977 -0.4900
 7040TIP3    H142535   6.424   4.347  12.072  0.5515 -1.1874  2.3316
 7040TIP3    H242536   6.340   4.464  12.116 -0.2060 -0.1442 -1.4803
 7041TIP3   OH242537   5.258   6.066   3.583 -0.7086 -0.2831  0.1539
 7041TIP3    H142538   5.205   6.142   3.557 -0.1879  0.0489  0.0463
 7041TIP3    H242539   5.194   6.000   3.609 -1.1712  0.2260  0.3324
 7042TIP3   OH242540   2.048   6.185  17.107  0.1839 -0.2449 -0.6742
 7042TIP3    H142541   2.124   6.192  17.165  1.1037 -1.2200 -1.6960
 7042TIP3    H242542   2.037   6.272  17.070  0.6868 -0.0468 -0.3631
 7043TIP3   OH242543   4.586   3.524  15.868 -0.2027 -0.5812 -0.3759
 7043TIP3    H142544   4.494   3.531  15.842 -0.3201  1.6207  0.4236
 7043TIP3    H242545   4.632   3.503  15.787 -0.9610  2.6006 -1.8098
 7044TIP3   OH242546   0.150   6.285   4.826  0.3798  0.3360 -0.0351
 7044TIP3    H142547   0.145   6.299   4.732 -0.4112  1.0719  0.1019
 7044TIP3    H242548   0.204   6.357   4.859  2.0485 -0.8372 -0.0924
 7045TIP3   OH242549   4.748   3.901   3.080 -0.6302  0.3210 -0.5653
 7045TIP3    H142550   4.805   3.952   3.023  0.3847 -0.1404  0.0048
 7045TIP3    H242551   4.760   3.940   3.167 -0.0273 -0.6890 -0.1675
 7046TIP3   OH242552   3.381   1.467   3.580  0.5800  0.1779 -0.1986
 7046TIP3    H142553   3.348   1.554   3.558 -1.5264 -0.4524  0.1980
 7046TIP3    H242554   3.323   1.407   3.532  0.2359 -1.0413  1.6299
 7047TIP3   OH242555   3.234   0.004  14.798 -0.3010  0.8724  0.8554
 7047TIP3    H142556   3.298   0.049  14.853  2.1770 -0.9766 -0.3310
 7047TIP3    H242557   3.195  -0.062  14.855  0.9109  0.1882  0.9288
 7048TIP3   OH242558   5.447   0.897   0.655  0.6245 -0.5721 -0.4810
 7048TIP3    H142559   5.479   0.822   0.604  0.6981  1.3077 -3.4645
 7048TIP3    H242560   5.455   0.971   0.595 -0.2540  1.7083  2.0328
 7049TIP3   OH242561   1.570   4.804   5.022 -0.0300 -0.4644  0.3588
 7049TIP3    H142562   1.549   4.734   4.960  0.3696  0.7638 -1.2252
 7049TIP3    H242563   1.490   4.856   5.027  0.5855  0.6537 -0.8314
 7050TIP3   OH242564   1.903   5.132   5.047 -0.0922  0.6421  0.1383
 7050TIP3    H142565   1.853   5.149   4.967 -0.4715  0.2017  0.2772
 7050TIP3    H242566   1.852   5.065   5.093  0.2613  0.7038  0.6216
 7051TIP3   OH242567   0.504   2.789  12.430  0.4985 -0.2654  0.6223
 7051TIP3    H142568   0.449   2.733  12.375  1.3182 -0.4288 -0.0527
 7051TIP3    H242569   0.481   2.766  12.519 -0.3165 -0.5397  0.3472
 7052TIP3   OH242570   0.688   1.233   0.542  0.0043 -0.2358  0.5411
 7052TIP3    H142571   0.644   1.264   0.463  2.3896  1.6200 -0.1913
 7052TIP3    H242572   0.617   1.210   0.602 -2.0391  3.1389 -0.2923
 7053TIP3   OH242573   0.501   6.538   3.965 -0.3409  0.2964 -0.7310
 7053TIP3    H142574   0.582   6.588   3.975 -0.5222  0.4700 -0.1511
 7053TIP3    H242575   0.520   6.453   4.005 -0.7165  0.6265  0.1679
 7054TIP3   OH242576   0.749   4.484   5.127  0.4187  0.2498 -0.4563
 7054TIP3    H142577   0.802   4.404   5.121 -0.1764 -0.0983 -1.1082
 7054TIP3    H242578   0.763   4.514   5.217  1.1869 -0.2075 -0.4061
 7055TIP3   OH242579   4.607   0.567   0.912 -0.1078 -0.2042  0.1722
 7055TIP3    H142580   4.641   0.593   0.998  2.1029 -0.8431 -0.4253
 7055TIP3    H242581   4.514   0.589   0.914  0.0428  0.4155  2.4720
 7056TIP3   OH242582   0.474   4.129   1.024  0.3917 -0.0314  0.3585
 7056TIP3    H142583   0.412   4.103   1.092  1.6440  1.1289  2.0194
 7056TIP3    H242584   0.421   4.137   0.945 -1.2401 -0.7679  1.3252
 7057TIP3   OH242585   0.226   3.976  13.525  0.7835  0.4208 -0.4877
 7057TIP3    H142586   0.289   3.975  13.453  2.0271  1.2217  0.5483
 7057TIP3    H242587   0.179   4.059  13.514  1.1401  0.6565 -0.2414
 7058TIP3   OH242588   4.473   1.130   1.557  0.5144  0.3812 -0.5396
 7058TIP3    H142589   4.394   1.183   1.567  0.0240 -0.4498  0.0738
 7058TIP3    H242590   4.494   1.135   1.464 -0.5849  0.1466 -0.8076
 7059TIP3   OH242591   3.724   4.389  13.200  0.1244  0.2142 -0.2402
 7059TIP3    H142592   3.745   4.430  13.116  0.2638 -0.5394 -0.5837
 7059TIP3    H242593   3.630   4.406  13.212 -0.0599 -0.2637 -0.8956
 7060TIP3   OH242594   5.747   1.368  14.801 -0.6767  0.4028 -0.0978
 7060TIP3    H142595   5.690   1.383  14.877 -0.6036  1.9177 -0.3107
 7060TIP3    H242596   5.700   1.303  14.749 -0.8697 -0.4367  1.0896
 7061TIP3   OH242597   5.945   1.830   2.717 -0.0118  0.0883  0.2954
 7061TIP3    H142598   5.968   1.914   2.757 -0.1499 -0.6886  2.0762
 7061TIP3    H242599   5.884   1.854   2.647  1.9225  1.6801 -0.9532
 7062TIP3   OH242600   5.539   2.556   4.876  0.2169  0.4155 -0.0756
 7062TIP3    H142601   5.443   2.561   4.874  0.1851  0.0031  0.2409
 7062TIP3    H242602   5.561   2.489   4.812  0.2926  0.4942 -0.1323
 7063TIP3   OH242603   3.540   4.216   3.823 -0.2520  0.2835  0.3929
 7063TIP3    H142604   3.536   4.209   3.918 -0.3356  0.1023  0.3760
 7063TIP3    H242605   3.596   4.143   3.795 -2.1611 -1.1499  0.1209
 7064TIP3   OH242606   6.097   5.944   5.699 -0.0296  0.5356  0.1893
 7064TIP3    H142607   6.106   5.875   5.633 -0.7024  2.6901 -2.3049
 7064TIP3    H242608   6.176   5.997   5.689  0.8925 -0.2252  2.6554
 7065TIP3   OH242609   1.502   4.404   1.603  0.0355  0.2017 -0.2747
 7065TIP3    H142610   1.569   4.336   1.609  0.8033  1.0196  1.0707
 7065TIP3    H242611   1.420   4.356   1.597  0.6695 -0.8273 -1.1581
 7066TIP3   OH242612   5.790   6.256   2.138  0.3990 -0.6820 -0.0305
 7066TIP3    H142613   5.867   6.237   2.191 -0.0251  0.7683  1.1804
 7066TIP3    H242614   5.821   6.249   2.047  2.8067  2.7336  0.3570
 7067TIP3   OH242615   0.916   5.384  12.827  0.0429  0.2857  0.1720
 7067TIP3    H142616   0.850   5.447  12.799  1.1558  0.5331 -2.1566
 7067TIP3    H242617   0.870   5.324  12.885 -2.6090 -0.3763 -2.4269
 7068TIP3   OH242618   1.531   6.251  13.512  0.1433 -0.6534 -0.6330
 7068TIP3    H142619   1.602   6.200  13.551 -0.2627 -1.2482 -0.6574
 7068TIP3    H242620   1.574   6.327  13.473  0.5909 -0.1870  0.7144
 7069TIP3   OH242621   4.191   1.933  12.756 -0.1307  0.2385  0.3447
 7069TIP3    H142622   4.111   1.949  12.707 -0.9040 -1.6570  0.8758
 7069TIP3    H242623   4.230   2.020  12.768 -0.8648  0.9422 -1.9452
 7070TIP3   OH242624   4.121   2.958  13.867 -0.1889 -0.9112  0.2396
 7070TIP3    H142625   4.189   2.895  13.843 -0.3682 -1.1014  0.2334
 7070TIP3    H242626   4.132   3.030  13.805 -0.1535 -1.0534  0.0791
 7071TIP3   OH242627   4.506   6.047  11.944 -0.3221  0.1117 -0.0568
 7071TIP3    H142628   4.550   6.013  12.022  0.6798 -1.6453 -1.3292
 7071TIP3    H242629   4.567   6.112  11.908 -0.7547  0.8721  0.5280
 7072TIP3   OH242630   4.594   5.786  13.908 -0.3048 -0.2433  0.1051
 7072TIP3    H142631   4.683   5.769  13.939 -0.0453 -1.8684 -1.3557
 7072TIP3    H242632   4.586   5.881  13.907  0.5538 -0.0821  2.5212
 7073TIP3   OH242633   5.981   1.387  16.097 -0.1861 -0.0163 -0.3687
 7073TIP3    H142634   5.973   1.471  16.142 -1.4698  1.0574 -2.4334
 7073TIP3    H242635   6.068   1.355  16.120 -0.2971  1.0693  1.7726
 7074TIP3   OH242636   6.251   0.953  16.065  0.4169  0.0591 -0.1076
 7074TIP3    H142637   6.277   0.969  15.974  1.1477 -0.2515  0.0426
 7074TIP3    H242638   6.157   0.971  16.066 -0.8367 -4.9107 -2.1320
 7075TIP3   OH242639   3.020   4.316  11.923  0.1636  0.1148  0.2820
 7075TIP3    H142640   2.991   4.322  12.014 -0.8376  0.5057 -0.0456
 7075TIP3    H242641   3.109   4.281  11.928 -0.6139 -1.8791  1.2929
 7076TIP3   OH242642   4.789   2.354   0.162  0.3768  0.4458 -0.4352
 7076TIP3    H142643   4.827   2.268   0.145  1.6232 -0.6887  5.5297
 7076TIP3    H242644   4.862   2.407   0.193 -1.1019  2.0057  0.5918
 7077TIP3   OH242645   4.007   4.314   1.215 -0.5355  0.0134 -0.5687
 7077TIP3    H142646   4.034   4.405   1.225 -0.4650  0.0873 -1.4159
 7077TIP3    H242647   4.084   4.270   1.179 -0.8604 -0.2064 -0.9943
 7078TIP3   OH242648   4.769   2.508  14.041 -0.1989  0.0508 -0.6930
 7078TIP3    H142649   4.733   2.450  13.975 -0.2362 -1.6702  0.7506
 7078TIP3    H242650   4.807   2.449  14.107  1.9872  1.7111 -0.3413
 7079TIP3   OH242651   3.621   0.912   6.186 -0.3874  0.0075 -0.2225
 7079TIP3    H142652   3.629   1.004   6.209 -3.8956  0.4533 -0.3020
 7079TIP3    H242653   3.704   0.890   6.143  1.1574  2.6362  1.1793
 7080TIP3   OH242654   2.053   1.360  17.012 -0.4390 -0.1200  0.2608
 7080TIP3    H142655   2.031   1.371  16.919 -1.9392  1.4748  0.7545
 7080TIP3    H242656   2.026   1.271  17.032  1.0299 -0.9210 -1.0912
 7081TIP3   OH242657   1.561   3.490   0.558 -0.4437  0.3674 -0.4115
 7081TIP3    H142658   1.628   3.556   0.541  0.5367  0.6329  3.5136
 7081TIP3    H242659   1.479   3.539   0.561  0.0318  1.1270  0.6530
 7082TIP3   OH242660   4.452   2.316  14.988  0.2104  0.0523 -0.2648
 7082TIP3    H142661   4.382   2.380  14.977 -0.8518 -1.2184 -1.1388
 7082TIP3    H242662   4.417   2.252  15.050  0.5203 -0.6728 -0.8171
 7083TIP3   OH242663   6.263   0.265  14.183  0.0465  0.4750 -0.6335
 7083TIP3    H142664   6.307   0.292  14.263 -0.1215 -0.6757 -0.1503
 7083TIP3    H242665   6.312   0.310  14.113  1.1675  0.2440 -0.0131
 7084TIP3   OH242666   1.700   0.554   3.341  0.3944 -0.3165  0.4600
 7084TIP3    H142667   1.630   0.515   3.288  1.3670  0.0182 -1.1608
 7084TIP3    H242668   1.733   0.482   3.394 -0.4535 -0.7329  0.4331
 7085TIP3   OH242669   1.487   1.725   0.593 -0.0844  0.6709 -0.1268
 7085TIP3    H142670   1.484   1.638   0.633 -0.9373  0.0326 -1.5292
 7085TIP3    H242671   1.396   1.757   0.599 -0.1475  0.7221 -1.1790
 7086TIP3   OH242672   3.450   3.202   4.889 -0.2291 -0.0612  0.3356
 7086TIP3    H142673   3.401   3.246   4.819  0.9924  0.9695  0.0856
 7086TIP3    H242674   3.416   3.113   4.890  1.1598 -0.7582 -3.0503
 7087TIP3   OH242675   2.947   2.721  13.374 -0.2336 -0.5514  0.3979
 7087TIP3    H142676   2.887   2.647  13.385 -0.8427 -0.3241 -1.1014
 7087TIP3    H242677   2.975   2.715  13.283  0.0794  0.7871  0.3945
 7088TIP3   OH242678   2.433   1.691   0.870  0.2895 -0.2805 -0.9297
 7088TIP3    H142679   2.497   1.668   0.939 -1.7683 -0.7565  0.9282
 7088TIP3    H242680   2.371   1.618   0.871 -0.4315  0.2832 -2.5327
 7089TIP3   OH242681   4.393   2.760   2.549 -0.1411 -0.0744  0.0569
 7089TIP3    H142682   4.468   2.752   2.490 -0.5836  0.1086 -0.5407
 7089TIP3    H242683   4.317   2.762   2.491 -0.5548  0.6126  0.6065
 7090TIP3   OH242684   4.024   0.838   2.328 -0.2358 -0.1775  0.1229
 7090TIP3    H142685   4.053   0.870   2.242  2.1180  0.4266  1.0561
 7090TIP3    H242686   3.935   0.806   2.313 -0.9383  2.3921 -1.9395
 7091TIP3   OH242687   6.088   5.618  13.621 -0.3583  0.6334 -0.0965
 7091TIP3    H142688   6.075   5.697  13.673  0.3701  0.8494 -0.2323
 7091TIP3    H242689   6.088   5.547  13.685  2.0697  1.0318  0.4378
 7092TIP3   OH242690   0.609   3.649   2.124  0.4063 -0.2429 -0.2395
 7092TIP3    H142691   0.517   3.622   2.119  0.2464  0.4051 -0.8833
 7092TIP3    H242692   0.654   3.592   2.061  0.1011  0.8164 -1.4495
 7093TIP3   OH242693   3.804   3.329  13.029  0.0712 -0.2150  0.6238
 7093TIP3    H142694   3.880   3.308  12.975  0.9523 -0.5962  1.9924
 7093TIP3    H242695   3.732   3.335  12.966  0.5951 -2.9950 -0.3579
 7094TIP3   OH242696   3.177   0.553   5.442 -0.9381 -0.0012  0.3361
 7094TIP3    H142697   3.105   0.587   5.390 -0.7097  0.1059  0.0831
 7094TIP3    H242698   3.248   0.540   5.378 -0.2735  1.2062  0.7769
 7095TIP3   OH242699   2.385   2.995  16.594  0.0826 -0.0044 -0.3319
 7095TIP3    H142700   2.385   3.082  16.634 -2.2506  0.3167 -0.8994
 7095TIP3    H242701   2.363   2.936  16.667  0.3340  0.0367 -0.2225
 7096TIP3   OH242702   2.118   0.284   0.764 -0.0426  0.9807 -0.5700
 7096TIP3    H142703   2.112   0.340   0.686 -0.5207  4.2622  1.6360
 7096TIP3    H242704   2.029   0.280   0.797  0.4764  1.5414  0.9800
 7097TIP3   OH242705   5.527   0.694   3.090 -0.3761 -0.4003 -0.1130
 7097TIP3    H142706   5.559   0.783   3.077 -2.0732  0.1562 -0.8014
 7097TIP3    H242707   5.583   0.657   3.158 -0.2614  1.5296  0.8841
 7098TIP3   OH242708   0.097   3.855  17.139  0.2583  0.6062  0.1450
 7098TIP3    H142709   0.183   3.824  17.169  0.4894  1.5297  0.4627
 7098TIP3    H242710   0.077   3.799  17.063  1.1912  0.4548 -0.0044
 7099TIP3   OH242711   1.402   4.063  15.767  0.9638  0.2341 -0.3659
 7099TIP3    H142712   1.317   4.106  15.754  0.2595 -0.2542  2.0688
 7099TIP3    H242713   1.409   4.002  15.694 -0.7750  0.3350 -0.6702
 7100TIP3   OH242714   4.702   3.527   2.630  0.1494  0.1017  0.1215
 7100TIP3    H142715   4.670   3.438   2.614 -0.8547  0.1204  1.7950
 7100TIP3    H242716   4.730   3.526   2.721 -0.6285  1.6975  0.4125
 7101TIP3   OH242717   3.649   5.296   2.687  0.1737 -0.0973  0.5254
 7101TIP3    H142718   3.592   5.301   2.610 -0.3441 -0.1477  0.9059
 7101TIP3    H242719   3.637   5.379   2.732  1.0746  0.2567  0.1418
 7102TIP3   OH242720   4.156   1.900   1.624  0.3256  0.0807 -0.1132
 7102TIP3    H142721   4.134   1.919   1.533  0.2060 -1.4845 -0.4309
 7102TIP3    H242722   4.250   1.883   1.624 -0.1172 -2.7213 -0.4954
 7103TIP3   OH242723   4.341   4.704  12.827 -0.1904 -0.4286  0.5404
 7103TIP3    H142724   4.289   4.765  12.879 -0.4206 -0.5093  0.4065
 7103TIP3    H242725   4.342   4.623  12.878 -0.3173 -0.4711  0.4761
 7104TIP3   OH242726   0.277   2.033  16.682  0.1110 -0.0126 -0.1778
 7104TIP3    H142727   0.249   2.099  16.746 -1.2949 -1.5357  0.8325
 7104TIP3    H242728   0.231   2.057  16.601 -0.0419  0.4803  0.0512
 7105TIP3   OH242729   0.304   4.298   2.312  0.3911  0.3601  0.0935
 7105TIP3    H142730   0.261   4.250   2.383  0.5624  1.4986  0.9892
 7105TIP3    H242731   0.393   4.315   2.344  0.4101  1.0584 -0.3041
 7106TIP3   OH242732   1.159   2.273  15.321 -0.1008 -0.3551 -0.2717
 7106TIP3    H142733   1.078   2.314  15.290 -0.1053  0.1897  0.4238
 7106TIP3    H242734   1.229   2.321  15.277 -0.0829  0.8321  0.9618
 7107TIP3   OH242735   0.451   0.828   0.370 -0.3219  0.2319 -0.6854
 7107TIP3    H142736   0.483   0.900   0.314 -1.5156  1.3769  0.0605
 7107TIP3    H242737   0.372   0.797   0.326 -1.1468  0.9962  0.2257
 7108TIP3   OH242738   5.219   6.735  13.002 -0.2275 -0.1791 -0.3315
 7108TIP3    H142739   5.200   6.787  13.080 -0.6481  1.4769 -1.4812
 7108TIP3    H242740   5.211   6.797  12.929 -2.4282 -2.1898 -1.9683
 7109TIP3   OH242741   4.960   4.469  12.090  0.2880  0.0348 -0.1016
 7109TIP3    H142742   4.874   4.487  12.129  1.3006 -0.2745  2.4733
 7109TIP3    H242743   4.966   4.374  12.090  0.3418  0.0236 -1.0657
 7110TIP3   OH242744   0.158   3.446  12.025 -0.1894 -0.1548 -0.5576
 7110TIP3    H142745   0.091   3.388  12.061 -2.6122  2.0290 -1.2152
 7110TIP3    H242746   0.223   3.455  12.094 -1.9106 -0.3360  1.1579
 7111TIP3   OH242747   4.902   4.824  15.650  0.7688 -0.0521 -0.3648
 7111TIP3    H142748   4.910   4.829  15.555 -2.2105  1.6515 -0.6473
 7111TIP3    H242749   4.903   4.730  15.669  0.8901 -0.4444 -2.1109
 7112TIP3   OH242750   0.136   3.475   0.147 -0.1236 -0.0940 -0.1291
 7112TIP3    H142751   0.191   3.413   0.099  2.2921  0.3754  1.8246
 7112TIP3    H242752   0.111   3.429   0.227 -0.2043  0.6712  0.2950
 7113TIP3   OH242753   1.487   6.221  15.646 -0.1492 -0.1924  0.4263
 7113TIP3    H142754   1.404   6.185  15.676  0.8140 -1.5427  1.6114
 7113TIP3    H242755   1.542   6.145  15.628  1.1233  0.6587  0.5470
 7114TIP3   OH242756   5.453   5.004   2.920  0.1162 -0.4690 -0.0687
 7114TIP3    H142757   5.480   5.088   2.957 -2.3166  0.4162 -0.1050
 7114TIP3    H242758   5.486   4.939   2.982  0.8295  0.6153  0.7264
 7115TIP3   OH242759   0.145   4.200  11.665 -1.3245 -0.5971  0.1478
 7115TIP3    H142760   0.159   4.293  11.681  1.3156 -0.8111 -0.4142
 7115TIP3    H242761   0.117   4.195  11.574 -1.4217 -0.3694  0.1657
 7116TIP3   OH242762   0.825   2.365  15.906 -0.4179 -0.1662 -0.6324
 7116TIP3    H142763   0.755   2.357  15.842  0.0120  2.3617 -1.5610
 7116TIP3    H242764   0.883   2.432  15.869  1.4167 -0.7574  1.0359
 7117TIP3   OH242765   2.621   0.229   6.433 -0.4768  0.5031 -0.2819
 7117TIP3    H142766   2.615   0.213   6.339 -0.7621 -0.4008 -0.1248
 7117TIP3    H242767   2.675   0.307   6.441 -0.3654  0.5317 -1.1916
 7118TIP3   OH242768   0.146   5.245   2.799  0.1494  0.0852 -0.0872
 7118TIP3    H142769   0.148   5.166   2.745  0.3588 -0.5984  0.8994
 7118TIP3    H242770   0.231   5.247   2.843  0.3044  1.0847 -0.3935
 7119TIP3   OH242771   3.044   0.274   2.712  0.5720 -0.5377 -0.0487
 7119TIP3    H142772   3.129   0.263   2.754  0.8973  2.1636  0.1785
 7119TIP3    H242773   3.047   0.362   2.673 -2.0319 -0.4344 -0.2247
 7120TIP3   OH242774   1.550   5.161  14.842 -0.1433 -0.3206 -0.2682
 7120TIP3    H142775   1.494   5.085  14.858  1.1249 -1.4997 -1.2364
 7120TIP3    H242776   1.581   5.151  14.752 -0.6955  1.8828 -0.7754
 7121TIP3   OH242777   6.012   2.104  14.100 -0.3122 -0.8824 -0.1572
 7121TIP3    H142778   5.999   2.189  14.060  0.3094 -0.2337  0.9794
 7121TIP3    H242779   5.923   2.072  14.117 -0.5931  0.7180  1.7878
 7122TIP3   OH242780   4.139   1.179  11.015  0.6318  0.4341 -0.1445
 7122TIP3    H142781   4.109   1.220  10.933 -0.1986  0.6571  0.2599
 7122TIP3    H242782   4.058   1.159  11.062  1.0874 -0.2091  0.3783
 7123TIP3   OH242783   0.135   3.007  13.892  0.3742 -0.0470  0.4223
 7123TIP3    H142784   0.045   2.979  13.909 -0.0161  0.4434 -0.7424
 7123TIP3    H242785   0.175   3.013  13.979 -1.0509  0.8769  1.0558
 7124TIP3   OH242786   5.282   4.575   3.516  0.1153 -0.6555 -0.0367
 7124TIP3    H142787   5.237   4.600   3.436  2.7245  1.4972 -0.9739
 7124TIP3    H242788   5.364   4.536   3.487  2.1043  2.0740  1.4314
 7125TIP3   OH242789   6.140   0.663   1.693  0.2008  0.2106 -0.0822
 7125TIP3    H142790   6.195   0.699   1.763 -1.4822 -0.0770  1.4761
 7125TIP3    H242791   6.116   0.576   1.725  2.0029 -1.3310 -2.5529
 7126TIP3   OH242792   0.724   3.629  17.135  0.3610  0.0827  0.1325
 7126TIP3    H142793   0.706   3.723  17.134  2.3045  0.5405 -2.7153
 7126TIP3    H242794   0.815   3.623  17.167  0.7970 -0.6392 -1.1578
 7127TIP3   OH242795   2.055   0.567  14.330  0.4684  0.0985 -0.9904
 7127TIP3    H142796   2.066   0.545  14.423  0.0725  0.9141 -0.7475
 7127TIP3    H242797   1.985   0.509  14.300 -0.1070  0.5280 -0.5158
 7128TIP3   OH242798   5.025   1.027  15.107 -0.1547  0.6145 -0.0737
 7128TIP3    H142799   4.936   0.994  15.111  0.0882  0.0449  0.7685
 7128TIP3    H242800   5.043   1.036  15.013 -1.0506  0.6384 -0.2477
 7129TIP3   OH242801   6.725   2.341  11.076 -0.3291 -0.0280 -0.2488
 7129TIP3    H142802   6.819   2.325  11.087 -0.2305 -0.0905 -1.1542
 7129TIP3    H242803   6.720   2.403  11.003 -0.9483  0.6502  0.3607
 7130TIP3   OH242804   4.586   3.488   0.922  0.3440 -0.7484 -0.3372
 7130TIP3    H142805   4.656   3.491   0.856  0.6305  0.8295 -0.0014
 7130TIP3    H242806   4.527   3.559   0.897 -0.6797 -1.4934 -0.0896
 7131TIP3   OH242807   1.425   4.433  13.669 -0.9116 -0.1244 -0.1367
 7131TIP3    H142808   1.408   4.391  13.585 -0.8029 -0.2657 -0.0890
 7131TIP3    H242809   1.416   4.526  13.652 -0.5759 -0.1323 -0.3805
 7132TIP3   OH242810   5.224   2.559   3.622 -0.4292  0.7740  0.0238
 7132TIP3    H142811   5.256   2.617   3.691 -1.3689  2.2819 -0.7738
 7132TIP3    H242812   5.290   2.490   3.616  1.8887  2.9154 -0.4906
 7133TIP3   OH242813   5.484   5.347   5.678 -0.3383 -0.2323 -0.1354
 7133TIP3    H142814   5.409   5.321   5.624  1.1638 -0.1525 -2.3354
 7133TIP3    H242815   5.553   5.285   5.656  1.2221  1.5562 -0.4750
 7134TIP3   OH242816   4.887   1.783  10.384 -0.1232  0.0637 -0.3669
 7134TIP3    H142817   4.938   1.704  10.405 -2.6060 -2.2034 -2.2052
 7134TIP3    H242818   4.926   1.816  10.303 -0.0791 -0.2447 -0.4736
 7135TIP3   OH242819   1.716   3.974   6.169  0.1342  0.0007  0.0391
 7135TIP3    H142820   1.737   3.881   6.159  0.7422  0.1162  0.1806
 7135TIP3    H242821   1.793   4.011   6.211 -0.6800  0.3021  1.3297
 7136TIP3   OH242822   1.391   4.820   1.878 -0.0661 -0.0391  0.2740
 7136TIP3    H142823   1.478   4.786   1.858 -0.0174 -0.2052  0.7397
 7136TIP3    H242824   1.398   4.915   1.865 -0.4103 -0.2500 -1.7874
 7137TIP3   OH242825   5.434   4.992   4.044  0.2416 -0.5212 -0.4956
 7137TIP3    H142826   5.506   5.054   4.031 -0.2163 -0.1061 -1.0569
 7137TIP3    H242827   5.381   5.031   4.113  1.1732 -1.3996  0.7794
 7138TIP3   OH242828   6.048   3.550   4.353  0.0674 -0.3254 -0.4561
 7138TIP3    H142829   5.981   3.488   4.384  1.0207 -0.6552  1.0750
 7138TIP3    H242830   6.048   3.619   4.419  0.0862  0.5305 -1.3395
 7139TIP3   OH242831   2.956   1.486   3.393 -1.1744  0.3806  0.1905
 7139TIP3    H142832   2.894   1.553   3.365  0.4042  1.4002 -1.0780
 7139TIP3    H242833   2.982   1.442   3.312  1.8612  1.9283  0.1820
 7140TIP3   OH242834   3.237   0.446  10.337 -0.3770 -0.5903  0.5296
 7140TIP3    H142835   3.227   0.541  10.346 -1.5979 -0.6361 -0.0653
 7140TIP3    H242836   3.293   0.420  10.410 -1.3743  0.3745  1.6853
 7141TIP3   OH242837   6.210   5.163   6.722  0.1156 -0.0094 -0.4365
 7141TIP3    H142838   6.214   5.247   6.768  2.2263 -0.0804 -0.4104
 7141TIP3    H242839   6.299   5.128   6.728 -0.6015 -2.0188 -0.8916
 7142TIP3   OH242840   4.759   5.417   2.288  0.0534 -0.4476 -0.8611
 7142TIP3    H142841   4.852   5.409   2.309  0.3225  1.3375 -1.1836
 7142TIP3    H242842   4.751   5.506   2.253 -1.8535 -0.4265 -0.4378
 7143TIP3   OH242843   3.749   4.148   4.540  0.5068  0.3563  0.3734
 7143TIP3    H142844   3.745   4.052   4.542 -1.7624  0.3583 -0.8073
 7143TIP3    H242845   3.705   4.175   4.621 -1.3264  0.3391 -0.5557
 7144TIP3   OH242846   1.396   2.442   3.874 -0.6248 -0.0523  0.2566
 7144TIP3    H142847   1.468   2.422   3.814  0.5393 -0.6724  1.7671
 7144TIP3    H242848   1.440   2.476   3.952 -2.1855  2.8030  0.0282
 7145TIP3   OH242849   2.314   2.064   3.194  0.5794  0.5004  0.6347
 7145TIP3    H142850   2.389   2.029   3.146  0.1432  1.0901 -0.5210
 7145TIP3    H242851   2.305   2.007   3.270 -0.4922 -2.3616 -1.4783
 7146TIP3   OH242852   4.507   2.488  16.420  0.3472  0.3260 -0.7238
 7146TIP3    H142853   4.431   2.433  16.399  0.1074 -0.1409  1.1469
 7146TIP3    H242854   4.479   2.577  16.397 -0.3408  0.0271 -1.0882
 7147TIP3   OH242855   5.459   5.005  12.442  0.1796  0.0127  0.3466
 7147TIP3    H142856   5.500   5.088  12.467  0.3569  0.0532 -0.0633
 7147TIP3    H242857   5.461   5.006  12.346 -0.0880 -0.3326  0.3386
 7148TIP3   OH242858   5.301   5.949  12.949  0.4755  0.0777  0.4545
 7148TIP3    H142859   5.388   5.983  12.970  0.0471  0.9397  0.9109
 7148TIP3    H242860   5.241   6.019  12.976 -0.3018 -0.0281 -0.8965
 7149TIP3   OH242861   3.661   6.411   5.327  0.5461  0.2002 -0.3793
 7149TIP3    H142862   3.615   6.474   5.271 -1.1541 -0.3650  0.3069
 7149TIP3    H242863   3.682   6.461   5.406 -0.2000  0.1033 -0.1104
 7150TIP3   OH242864   0.589   5.450   2.127  0.0467  0.2004  0.1224
 7150TIP3    H142865   0.571   5.456   2.033 -2.5014  1.0763  0.5650
 7150TIP3    H242866   0.522   5.390   2.160  0.6047  0.2760  1.4339
 7151TIP3   OH242867   4.287   3.056   5.535 -0.5111  0.9353 -0.2086
 7151TIP3    H142868   4.298   3.151   5.532 -0.6333  0.9953  0.8088
 7151TIP3    H242869   4.368   3.023   5.575 -0.3231  0.5684 -0.8615
 7152TIP3   OH242870   6.450   0.841   2.339 -0.0802  0.0067 -0.0578
 7152TIP3    H142871   6.370   0.793   2.360 -1.2008  3.1112  3.9051
 7152TIP3    H242872   6.505   0.832   2.416  2.3199  0.1887 -1.6363
 7153TIP3   OH242873   3.779   2.464  13.807  0.1256  0.3933  0.2667
 7153TIP3    H142874   3.831   2.477  13.886  0.2487  1.0739  0.0810
 7153TIP3    H242875   3.688   2.473  13.837  0.1136 -0.4600  0.5263
 7154TIP3   OH242876   3.925   5.784  10.980 -0.1812  0.4072  0.7472
 7154TIP3    H142877   4.003   5.742  10.945 -1.0043 -1.0060  0.5432
 7154TIP3    H242878   3.958   5.863  11.024  1.1498  0.8143 -0.8834
 7155TIP3   OH242879   3.043   0.097   3.258 -0.0171 -0.2487  0.1957
 7155TIP3    H142880   3.037   0.192   3.264  1.5595 -0.1266  0.2261
 7155TIP3    H242881   3.089   0.081   3.175 -1.5303 -1.0599 -0.5408
 7156TIP3   OH242882   3.418   4.137  15.650  0.0658 -0.1135  0.2190
 7156TIP3    H142883   3.350   4.177  15.704 -0.2439  0.0977 -0.3172
 7156TIP3    H242884   3.380   4.136  15.562  1.2216  1.1188 -0.3189
 7157TIP3   OH242885   0.807   3.713   2.705 -0.5258 -0.0398 -0.4354
 7157TIP3    H142886   0.730   3.712   2.648 -1.3219  1.8236  0.5054
 7157TIP3    H242887   0.785   3.652   2.776 -0.8868  0.0057 -0.5047
 7158TIP3   OH242888   4.265   3.031  14.129  0.1188  0.3016 -0.1447
 7158TIP3    H142889   4.297   3.120  14.144  2.4623 -0.6564  1.0808
 7158TIP3    H242890   4.210   3.038  14.051 -0.0255  2.8512  0.0980
 7159TIP3   OH242891   0.047   1.420  16.647 -0.4586 -0.2440  0.0749
 7159TIP3    H142892  -0.043   1.453  16.651 -0.2514  0.5925 -1.5162
 7159TIP3    H242893   0.100   1.488  16.687 -0.5082 -0.7306  0.9981
 7160TIP3   OH242894   4.351   6.195  12.284 -0.3401 -0.3641 -0.4004
 7160TIP3    H142895   4.404   6.156  12.353  0.6592  1.3699 -0.1278
 7160TIP3    H242896   4.399   6.178  12.203 -0.3605 -0.4619 -0.3919
 7161TIP3   OH242897   6.144   5.945   5.094  0.6454  0.4624  0.0061
 7161TIP3    H142898   6.155   6.017   5.157 -1.3845  2.0115 -1.2899
 7161TIP3    H242899   6.225   5.946   5.042  0.7582  1.6335  0.1779
 7162TIP3   OH242900   0.241   2.359  15.841 -0.7435 -0.2298 -0.2764
 7162TIP3    H142901   0.149   2.360  15.868 -1.2642  0.8787 -1.9221
 7162TIP3    H242902   0.249   2.280  15.786 -1.4151  0.9656 -2.1912
 7163TIP3   OH242903   1.854   5.663   6.402 -0.0251 -0.1405 -0.2817
 7163TIP3    H142904   1.828   5.578   6.437  0.2029 -0.4734 -0.8997
 7163TIP3    H242905   1.789   5.683   6.335  0.1507 -0.0232 -0.4208
 7164TIP3   OH242906   4.299   0.431   3.470 -0.9233 -0.4716  0.0255
 7164TIP3    H142907   4.314   0.368   3.399 -1.1185  0.5066 -0.8940
 7164TIP3    H242908   4.382   0.479   3.476 -1.4219  0.4924 -0.6061
 7165TIP3   OH242909   1.350   0.701   3.169 -0.7477 -0.1108  0.3505
 7165TIP3    H142910   1.292   0.728   3.239 -0.9126 -0.2048  0.2513
 7165TIP3    H242911   1.431   0.750   3.184 -0.1024 -1.5139  1.6983
 7166TIP3   OH242912   1.530   1.197  12.437  0.2317 -0.0901 -0.2755
 7166TIP3    H142913   1.484   1.148  12.368  0.0112  1.0193 -0.9414
 7166TIP3    H242914   1.460   1.246  12.481  0.5142  0.0115  0.0589
 7167TIP3   OH242915   1.451   0.888   2.288  0.5485 -0.1900 -0.0797
 7167TIP3    H142916   1.445   0.815   2.227 -2.4984  0.4080 -0.6598
 7167TIP3    H242917   1.430   0.850   2.373 -1.1515 -0.0643 -0.3976
 7168TIP3   OH242918   0.648   5.334   5.218 -0.6387  0.0454  0.5130
 7168TIP3    H142919   0.742   5.349   5.225 -0.5295  0.3584 -1.3476
 7168TIP3    H242920   0.630   5.333   5.124 -2.4332 -0.4271  0.8239
 7169TIP3   OH242921   0.243   2.775   4.132  0.2337  0.0886  0.5099
 7169TIP3    H142922   0.324   2.727   4.151  0.0995  0.2138  1.4523
 7169TIP3    H242923   0.195   2.718   4.073  1.2487  0.2541 -0.4992
 7170TIP3   OH242924   5.817   6.033   5.733  0.1245  0.0387 -0.6002
 7170TIP3    H142925   5.855   6.085   5.662 -1.2875 -1.5548 -2.6590
 7170TIP3    H242926   5.890   5.978   5.764  0.3700 -0.5516 -2.1245
 7171TIP3   OH242927   5.591   3.701   5.022 -0.1416 -0.0289  0.1470
 7171TIP3    H142928   5.496   3.716   5.022 -0.0742  0.4838 -0.9066
 7171TIP3    H242929   5.607   3.647   5.100 -1.4877 -1.3507 -0.4423
 7172TIP3   OH242930   2.811   6.034   5.386 -0.1539 -0.0547 -0.8360
 7172TIP3    H142931   2.718   6.029   5.363 -0.1864 -0.1701 -0.6789
 7172TIP3    H242932   2.831   6.128   5.385 -0.3435 -0.0105 -0.5930
 7173TIP3   OH242933   3.052   2.237   1.493  0.0515 -0.2395  0.1396
 7173TIP3    H142934   3.013   2.303   1.551  1.3053  0.4564  0.2207
 7173TIP3    H242935   2.978   2.204   1.442 -0.3968  2.5161 -1.1835
 7174TIP3   OH242936   4.052   0.238  13.834  0.6613  0.3620  0.0443
 7174TIP3    H142937   4.030   0.147  13.849  0.3305  0.7429  2.0890
 7174TIP3    H242938   4.145   0.246  13.858  1.1859  0.2481 -1.7720
 7175TIP3   OH242939   4.639   1.391  15.181  0.5377  0.2641 -0.6095
 7175TIP3    H142940   4.650   1.348  15.265  1.0787  1.0861 -0.2552
 7175TIP3    H242941   4.544   1.397  15.170  0.4586 -0.3587 -0.3351
 7176TIP3   OH242942   1.463   4.479  16.272  0.2319 -0.4830 -0.5218
 7176TIP3    H142943   1.477   4.475  16.177 -1.3299  0.2825 -0.8276
 7176TIP3    H242944   1.367   4.474  16.282  0.4268 -2.3676  1.1377
 7177TIP3   OH242945   2.260   0.244  12.065  0.5929  0.1641 -0.3375
 7177TIP3    H142946   2.240   0.221  11.974  2.9818 -0.7544 -0.6947
 7177TIP3    H242947   2.355   0.249  12.069  0.5174  1.5488  1.8322
 7178TIP3   OH242948   6.603   1.874   5.629  0.1059  0.1266  0.3725
 7178TIP3    H142949   6.580   1.960   5.664 -0.8558 -0.4506  1.2022
 7178TIP3    H242950   6.522   1.842   5.588  0.7647  0.0848 -0.9439
 7179TIP3   OH242951   6.277   4.706  13.173  1.3583 -0.0664 -0.2999
 7179TIP3    H142952   6.348   4.651  13.138  0.3491 -0.9586 -1.0007
 7179TIP3    H242953   6.283   4.787  13.122  0.6371 -0.9095 -1.7762
 7180TIP3   OH242954   2.311   6.306  16.871  0.4308 -0.2872  0.0539
 7180TIP3    H142955   2.331   6.255  16.949 -0.8574  1.1848  1.4351
 7180TIP3    H242956   2.356   6.390  16.886 -1.6781  0.8668  0.4045
 7181TIP3   OH242957   6.533   0.859   6.370 -0.0515 -0.4902 -0.6166
 7181TIP3    H142958   6.482   0.920   6.317  2.4870  1.6301 -0.8226
 7181TIP3    H242959   6.489   0.775   6.357 -5.1562  1.4210  1.4738
 7182TIP3   OH242960   3.530   6.631   3.569 -0.0789 -0.5444 -0.4839
 7182TIP3    H142961   3.528   6.685   3.649 -1.6264 -0.3488 -0.6400
 7182TIP3    H242962   3.537   6.541   3.602 -6.2453 -1.1110  0.3272
 7183TIP3   OH242963   1.749   0.031  14.360 -0.4814 -0.4471 -0.1549
 7183TIP3    H142964   1.690   0.092  14.316 -2.1719 -1.0636  1.1500
 7183TIP3    H242965   1.699  -0.050  14.368  0.8161 -1.2395  0.3432
 7184TIP3   OH242966   2.449   3.270  16.737 -0.1074 -0.8458 -0.5234
 7184TIP3    H142967   2.540   3.256  16.711 -0.1705  0.6427 -1.6270
 7184TIP3    H242968   2.453   3.281  16.833  0.8768 -0.7690 -0.5688
 7185TIP3   OH242969   6.293   2.823  16.080 -0.0114 -0.1707  0.5658
 7185TIP3    H142970   6.285   2.727  16.084 -0.6574 -0.1297  0.3318
 7185TIP3    H242971   6.263   2.846  15.992 -1.0124  0.3435  1.0207
 7186TIP3   OH242972   5.635   1.354  16.898 -0.1125 -0.6418 -0.1178
 7186TIP3    H142973   5.663   1.421  16.836  0.1374 -1.0434 -0.4487
 7186TIP3    H242974   5.661   1.271  16.857  0.7971 -0.8852  0.8994
 7187TIP3   OH242975   5.851   1.477   0.385 -0.3473  0.4081 -0.0361
 7187TIP3    H142976   5.882   1.488   0.295  1.1340  1.0646  0.5175
 7187TIP3    H242977   5.881   1.556   0.430  0.2951 -0.6013  1.3806
 7188TIP3   OH242978   2.790   1.316   1.421 -0.5173 -0.1294  0.1839
 7188TIP3    H142979   2.769   1.262   1.346 -0.2125 -0.4611  0.3360
 7188TIP3    H242980   2.871   1.279   1.456  0.1981  0.9657 -0.2402
 7189TIP3   OH242981   3.923   6.602   4.812 -0.2361 -0.0039 -0.2233
 7189TIP3    H142982   3.990   6.665   4.839  0.0020 -0.5611  0.5254
 7189TIP3    H242983   3.970   6.534   4.765 -0.4249  0.1168 -0.5928
 7190TIP3   OH242984   0.654   4.171  11.497 -0.2508  0.4006  0.2189
 7190TIP3    H142985   0.671   4.083  11.464 -0.5311 -0.3874  2.0045
 7190TIP3    H242986   0.732   4.221  11.475 -0.0180 -0.3422 -0.6841
 7191TIP3   OH242987   4.936   0.265   4.507  0.4343 -0.1391 -0.1411
 7191TIP3    H142988   4.917   0.349   4.549 -0.2037 -0.1079 -0.4676
 7191TIP3    H242989   4.977   0.289   4.424 -0.3603 -0.1140 -0.5397
 7192TIP3   OH242990   2.062   1.173  12.427  0.0105 -0.6485 -0.0283
 7192TIP3    H142991   2.088   1.261  12.453 -1.3496  0.6439 -2.5726
 7192TIP3    H242992   1.967   1.171  12.441  0.1468 -2.0600  0.8452
 7193TIP3   OH242993   5.267   1.295   0.452  0.6938 -0.3420  0.2783
 7193TIP3    H142994   5.362   1.302   0.453  0.7843 -1.0691 -0.9062
 7193TIP3    H242995   5.236   1.377   0.491  1.7832  0.1607  0.1199
 7194TIP3   OH242996   0.057   3.424  15.598  0.2788 -0.5629 -0.6855
 7194TIP3    H142997   0.118   3.386  15.533  1.3842 -1.3205  0.7388
 7194TIP3    H242998   0.114   3.461  15.665 -0.6919  4.0614 -2.0672
 7195TIP3   OH242999   2.387   5.662  16.854  0.3272 -0.2162 -0.6519
 7195TIP3    H143000   2.329   5.631  16.924 -1.2063 -0.5826 -2.0198
 7195TIP3    H243001   2.327   5.689  16.784  1.8223 -1.0848 -2.3399
 7196TIP3   OH243002   5.702   4.188  13.750  0.0015 -0.2190 -0.1966
 7196TIP3    H143003   5.790   4.168  13.782  0.3822  0.9368 -0.4709
 7196TIP3    H243004   5.650   4.112  13.775  0.7224 -0.2342  1.4064
 7197TIP3   OH243005   5.486   3.827  16.723  0.7847  0.6551 -0.7349
 7197TIP3    H143006   5.487   3.758  16.790  0.7585  0.8902 -0.4903
 7197TIP3    H243007   5.443   3.901  16.766 -2.2075 -0.1768 -2.0159
 7198TIP3   OH243008   0.894   5.463   0.248  0.0439 -0.7171 -0.1725
 7198TIP3    H143009   0.875   5.556   0.260 -0.6901 -0.8801 -0.0021
 7198TIP3    H243010   0.989   5.456   0.259  0.2044  0.1203 -0.9455
 7199TIP3   OH243011   6.191   2.604  13.097 -0.1415 -0.9881 -0.4776
 7199TIP3    H143012   6.188   2.510  13.080  0.2124 -1.0719 -0.1061
 7199TIP3    H243013   6.274   2.633  13.058 -0.4568 -0.7500 -0.9722
 7200TIP3   OH243014   0.667   3.638   6.238 -0.0994  0.0548  0.5109
 7200TIP3    H143015   0.661   3.543   6.241 -2.5149  0.1286  0.0114
 7200TIP3    H243016   0.738   3.660   6.298  0.8724 -2.0656  0.2047
 7201TIP3   OH243017   4.769   5.524   6.086 -0.2768  0.1432  0.4307
 7201TIP3    H143018   4.720   5.468   6.026 -1.2153  0.7859  0.5660
 7201TIP3    H243019   4.755   5.485   6.172 -2.7135  1.6618  0.8483
 7202TIP3   OH243020   1.875   3.715  14.233 -0.1412  0.2627  0.2264
 7202TIP3    H143021   1.807   3.776  14.261 -0.9524 -0.7696  0.5669
 7202TIP3    H243022   1.921   3.693  14.314  1.6173  2.0908 -0.1918
 7203TIP3   OH243023   1.417   2.242   1.027  0.7632  0.1537 -0.4805
 7203TIP3    H143024   1.326   2.230   1.001  0.2352 -0.0779  1.3758
 7203TIP3    H243025   1.444   2.321   0.980 -0.9391  1.2492  0.2912
 7204TIP3   OH243026   3.282   4.309   6.368 -0.1898 -0.1819 -0.6576
 7204TIP3    H143027   3.244   4.370   6.431  0.3600 -0.2846 -0.2230
 7204TIP3    H243028   3.209   4.250   6.345 -0.4373 -0.0351 -0.2558
 7205TIP3   OH243029   4.763   5.133  10.225  0.2380 -0.5700 -0.1136
 7205TIP3    H143030   4.674   5.161  10.249  0.5756  0.1592  0.3265
 7205TIP3    H243031   4.770   5.043  10.257  0.0326 -0.2514  0.8654
 7206TIP3   OH243032   0.106   0.490  15.474  0.3893 -0.5772 -0.1031
 7206TIP3    H143033   0.033   0.543  15.506  0.9133  1.0420 -1.4397
 7206TIP3    H243034   0.184   0.544  15.488  0.6924  0.1720 -3.6133
 7207TIP3   OH243035   1.214   0.701   1.290  0.8421 -0.0305  0.4986
 7207TIP3    H143036   1.156   0.626   1.275  2.1047 -0.6420 -1.6595
 7207TIP3    H243037   1.185   0.736   1.374  1.2927 -3.9843  2.5825
 7208TIP3   OH243038   1.922   4.363   0.665 -0.2477  0.4334 -0.1237
 7208TIP3    H143039   1.861   4.434   0.647 -0.4980  0.4457  0.7246
 7208TIP3    H243040   1.907   4.341   0.757  1.0339  0.4450  0.1092
 7209TIP3   OH243041   5.021   5.544   1.018 -0.0097 -0.6822 -0.3667
 7209TIP3    H143042   5.082   5.522   0.948  1.1418 -0.6601  0.6037
 7209TIP3    H243043   5.061   5.510   1.097 -0.3032  1.0145  0.5668
 7210TIP3   OH243044   0.491   5.969  15.402  0.1151  0.0362 -0.2344
 7210TIP3    H143045   0.469   5.887  15.356  0.9600 -0.7146  0.6716
 7210TIP3    H243046   0.415   6.025  15.387 -0.3377 -0.7864 -1.1592
 7211TIP3   OH243047   4.117   3.559  15.751 -0.2703 -0.3754  0.2865
 7211TIP3    H143048   4.210   3.560  15.730 -0.2519 -1.8720  0.2162
 7211TIP3    H243049   4.073   3.553  15.666 -0.6798  3.9548 -0.0722
 7212TIP3   OH243050   6.472   2.111   3.745 -0.2243 -0.4343  0.5102
 7212TIP3    H143051   6.557   2.074   3.768  0.1104 -0.1831 -0.2826
 7212TIP3    H243052   6.487   2.206   3.746 -0.3068 -0.4086 -0.3047
 7213TIP3   OH243053   5.332   6.661   3.153  0.6886 -0.1656 -0.1593
 7213TIP3    H143054   5.264   6.691   3.092  0.9735 -3.6669 -2.4375
 7213TIP3    H243055   5.411   6.706   3.126 -0.1343  2.1947  1.0557
 7214TIP3   OH243056   3.705   4.965  14.446  0.2044 -0.2022  0.1103
 7214TIP3    H143057   3.626   5.018  14.437 -0.6821 -1.4507  0.3092
 7214TIP3    H243058   3.731   4.945  14.357  1.6082  2.0222 -0.0548
 7215TIP3   OH243059   5.342   3.292   2.081 -0.1133  0.1405 -0.2922
 7215TIP3    H143060   5.272   3.309   2.018 -1.1935 -0.7038  0.6388
 7215TIP3    H243061   5.317   3.341   2.159  0.6362  0.2874 -0.1316
 7216TIP3   OH243062   1.189   1.939  14.338 -0.5729  0.0084 -0.4781
 7216TIP3    H143063   1.177   2.003  14.267 -1.4916 -0.3409 -0.6512
 7216TIP3    H243064   1.108   1.889  14.339 -0.2639 -0.4946  0.3305
 7217TIP3   OH243065   0.240   1.940   3.268 -0.5224  0.3330  0.2410
 7217TIP3    H143066   0.281   2.025   3.252 -0.3299  0.6844  2.2562
 7217TIP3    H243067   0.287   1.880   3.211  2.1953  0.9107  1.6723
 7218TIP3   OH243068   4.051   6.716   3.667  0.0113 -1.0922 -0.4974
 7218TIP3    H143069   4.100   6.720   3.749 -0.0738 -0.6108 -0.4661
 7218TIP3    H243070   4.112   6.680   3.604  0.4661 -0.3432 -0.4972
 7219TIP3   OH243071   0.486   5.433  14.925  0.2745  0.4107  0.2001
 7219TIP3    H143072   0.457   5.502  14.865  0.3195  1.2445  1.1250
 7219TIP3    H243073   0.509   5.479  15.005  1.7410 -0.5280  0.3405
 7220TIP3   OH243074   4.399   1.930  13.982  0.5511 -0.1964  0.0819
 7220TIP3    H143075   4.464   1.888  13.926  2.0781  1.3452  0.5846
 7220TIP3    H243076   4.435   2.018  13.997 -1.0959  0.2994  1.3543
 7221TIP3   OH243077   2.137   5.255   0.346  0.3812 -0.7751  0.6338
 7221TIP3    H143078   2.072   5.318   0.316 -0.0750 -0.9882  1.1667
 7221TIP3    H243079   2.139   5.188   0.277  1.2210  0.0533 -0.1684
 7222TIP3   OH243080   5.627   6.309  16.203 -0.2119 -0.3353  0.0266
 7222TIP3    H143081   5.680   6.382  16.233 -0.9627 -0.6919  2.3815
 7222TIP3    H243082   5.678   6.231  16.224 -0.5649 -0.5919 -0.0458
 7223TIP3   OH243083   0.069   6.569   2.541 -0.1052 -0.1402  0.0512
 7223TIP3    H143084   0.003   6.554   2.473 -0.5164  1.1151  0.1507
 7223TIP3    H243085   0.140   6.507   2.520 -1.7913 -2.4179  0.6649
 7224TIP3   OH243086   5.817   6.762  15.450  0.0164 -0.4752  0.1614
 7224TIP3    H143087   5.905   6.787  15.479 -1.5617  2.9916  2.5434
 7224TIP3    H243088   5.799   6.819  15.376 -1.1719  0.9492  1.4724
 7225TIP3   OH243089   2.655   4.873   5.392  0.3640 -0.6738 -0.5499
 7225TIP3    H143090   2.587   4.805   5.401 -0.7659  0.6655  2.2624
 7225TIP3    H243091   2.606   4.954   5.381  1.2672  0.5722  3.1637
 7226TIP3   OH243092   4.888   1.974  16.026 -0.7950 -0.3967  0.3602
 7226TIP3    H143093   4.833   1.950  16.100 -2.6578  0.1304 -0.7706
 7226TIP3    H243094   4.882   2.070  16.022 -1.1461 -0.4406 -0.7302
 7227TIP3   OH243095   5.711   6.757   4.336 -0.2665  0.4237  1.0329
 7227TIP3    H143096   5.748   6.812   4.405  1.6246  0.4651  0.0592
 7227TIP3    H243097   5.616   6.769   4.344  0.0026  4.3839  0.4867
 7228TIP3   OH243098   0.696   3.553  12.596 -0.3143  0.6269 -0.1186
 7228TIP3    H143099   0.738   3.634  12.568 -1.3632  1.1578 -0.1959
 7228TIP3    H243100   0.750   3.523  12.670 -0.7177  2.1801  0.8725
 7229TIP3   OH243101   6.670   2.624   2.840  0.4977 -0.1529 -0.3414
 7229TIP3    H143102   6.686   2.538   2.877  1.2750  0.1799  0.1109
 7229TIP3    H243103   6.665   2.609   2.745 -0.8264 -0.8984 -0.1746
 7230TIP3   OH243104   1.319   3.807  11.022 -0.9785 -0.3467 -0.0014
 7230TIP3    H143105   1.388   3.872  11.005 -2.1093  0.8836  0.0105
 7230TIP3    H243106   1.303   3.766  10.937 -0.8963  0.0239 -0.1948
 7231TIP3   OH243107   6.574   2.796  16.199  0.3016 -0.1404  0.0466
 7231TIP3    H143108   6.629   2.734  16.248 -0.0608  0.3736  1.1240
 7231TIP3    H243109   6.532   2.849  16.266  0.6203  1.3099 -0.8623
 7232TIP3   OH243110   2.443   4.555  15.014 -0.5368  0.4005  0.6690
 7232TIP3    H143111   2.397   4.637  15.028  0.0001  0.6817  0.8308
 7232TIP3    H243112   2.519   4.559  15.073 -0.7010 -0.3694  0.9460
 7233TIP3   OH243113   5.483   3.418   4.349 -0.0280 -0.3675 -0.2051
 7233TIP3    H143114   5.510   3.345   4.293 -0.7174 -0.4687 -0.4123
 7233TIP3    H243115   5.444   3.377   4.426 -1.6225 -0.2431 -0.9083
 7234TIP3   OH243116   5.053   2.517  12.465 -0.0507 -0.3784 -0.4154
 7234TIP3    H143117   5.051   2.599  12.415 -0.5761 -0.2289 -0.1528
 7234TIP3    H243118   5.010   2.453  12.408 -0.0016 -0.3775 -0.4534
 7235TIP3   OH243119   4.731   6.013  16.148  0.3258  0.1414 -0.7084
 7235TIP3    H143120   4.702   6.078  16.084 -1.5621  0.7942  0.7116
 7235TIP3    H243121   4.713   5.929  16.106  3.1804  0.4013 -2.7376
 7236TIP3   OH243122   1.063   1.015  15.728  0.1190  0.0908 -0.1998
 7236TIP3    H143123   1.149   0.972  15.736  0.3075  0.7044  2.0175
 7236TIP3    H243124   1.001   0.944  15.714  0.7716 -0.6082  0.3731
 7237TIP3   OH243125   2.805   3.046   5.436 -0.5238  0.2148 -0.2339
 7237TIP3    H143126   2.830   3.112   5.370  1.0532  1.2511  1.3176
 7237TIP3    H243127   2.887   3.018   5.475 -1.4597  0.5754  2.1626
 7238TIP3   OH243128   5.913   0.058  13.466 -0.6783  0.5731 -0.5283
 7238TIP3    H143129   5.971  -0.011  13.434 -1.4088 -0.5714  0.5391
 7238TIP3    H243130   5.967   0.138  13.463  0.2175 -0.0489 -1.6538
 7239TIP3   OH243131   1.392   2.843  11.264  0.1050  0.4103 -0.8219
 7239TIP3    H143132   1.356   2.928  11.291  0.7109  0.5902 -0.5783
 7239TIP3    H243133   1.449   2.864  11.190 -1.4829 -0.0648 -2.2493
 7240TIP3   OH243134   1.796   5.835   0.001  0.1122  1.0410 -0.6490
 7240TIP3    H143135   1.889   5.814   0.005  0.0419  0.7740 -0.3317
 7240TIP3    H243136   1.793   5.930   0.001  0.3766  1.0533 -0.3134
 7241TIP3   OH243137   1.744   4.827   1.210  0.0843  0.1405  0.0031
 7241TIP3    H143138   1.789   4.757   1.162  0.3433 -0.6098  1.2870
 7241TIP3    H243139   1.728   4.790   1.296  1.2043  2.0574  1.0943
 7242TIP3   OH243140   6.668   5.759  14.425  0.0024  0.5008 -0.2026
 7242TIP3    H143141   6.717   5.684  14.393  1.4119  1.4403 -0.3544
 7242TIP3    H243142   6.659   5.816  14.348 -1.4971  0.2869 -0.2160
 7243TIP3   OH243143   4.907   5.273  10.831  0.3776 -0.4927 -0.3193
 7243TIP3    H143144   4.941   5.313  10.751  1.5418 -0.1068  0.3419
 7243TIP3    H243145   4.824   5.233  10.805  0.6975 -0.2995 -1.6943
 7244TIP3   OH243146   1.449   1.285   5.463  0.0681  0.1143  0.1028
 7244TIP3    H143147   1.484   1.209   5.416  1.0861  0.7790 -0.2566
 7244TIP3    H243148   1.358   1.262   5.482  0.0853 -0.8088 -0.8323
 7245TIP3   OH243149   0.897   2.313  14.856  0.1417  0.3979  0.7077
 7245TIP3    H143150   0.935   2.396  14.827  0.8366  0.0320  0.5443
 7245TIP3    H243151   0.973   2.256  14.870 -0.3428 -0.3068  0.5065
 7246TIP3   OH243152   4.273   5.401  11.738 -0.4991 -0.5296  0.4337
 7246TIP3    H143153   4.349   5.396  11.795  0.5260  0.4450 -0.7881
 7246TIP3    H243154   4.203   5.434  11.794  0.7811  1.5837  0.8788
 7247TIP3   OH243155   1.071   4.756  16.432 -0.1565 -0.7846 -0.3287
 7247TIP3    H143156   1.013   4.691  16.392  0.3093 -1.4042 -0.0121
 7247TIP3    H243157   1.148   4.706  16.459  0.4562 -0.0033 -0.5853
 7248TIP3   OH243158   5.001   1.868  14.524 -0.1890 -0.0752  0.5147
 7248TIP3    H143159   5.042   1.852  14.609  0.9868  0.8747  0.1538
 7248TIP3    H243160   5.070   1.852  14.460 -1.4937 -2.4487 -0.4380
 7249TIP3   OH243161   6.641   5.937  12.214  0.4306 -0.7978 -0.5691
 7249TIP3    H143162   6.721   5.989  12.209 -0.1485  0.2509  0.6662
 7249TIP3    H243163   6.672   5.847  12.220  1.5138 -0.4373 -0.4519
 7250TIP3   OH243164   0.036   5.364   3.261  0.5236  0.0095 -0.0387
 7250TIP3    H143165   0.079   5.434   3.311 -0.0710  0.2841  0.0968
 7250TIP3    H243166   0.086   5.285   3.283  1.4335  0.4416 -0.4807
 7251TIP3   OH243167   1.895   0.471  16.614  0.2986  0.0209  0.4064
 7251TIP3    H143168   1.950   0.400  16.582 -0.1519 -0.0587 -0.2217
 7251TIP3    H243169   1.813   0.428  16.639 -0.1189  0.3485 -0.3370
 7252TIP3   OH243170   4.427   3.626  12.477  0.0868 -0.6561 -0.0607
 7252TIP3    H143171   4.335   3.653  12.475  0.2179 -0.2317 -0.3612
 7252TIP3    H243172   4.426   3.543  12.524 -0.5320 -0.9478 -0.5690
 7253TIP3   OH243173   0.867   4.466   1.985  0.3220 -0.5012 -0.3101
 7253TIP3    H143174   0.930   4.512   1.929  1.1609  0.6343  1.4462
 7253TIP3    H243175   0.920   4.402   2.033  0.3308  0.8416  1.5909
 7254TIP3   OH243176   3.788   6.097   0.444  0.5371  0.1657  0.3152
 7254TIP3    H143177   3.830   6.128   0.364  0.9413 -1.2354 -0.0379
 7254TIP3    H243178   3.762   6.008   0.425 -1.2933  0.5021  1.0403
 7255TIP3   OH243179   0.616   2.128  12.584 -0.5696  0.3376  0.6132
 7255TIP3    H143180   0.567   2.158  12.507 -3.0012  0.1175  1.9661
 7255TIP3    H243181   0.555   2.072  12.631  1.9298 -2.1463  1.1318
 7256TIP3   OH243182   6.741   6.525  17.062 -0.4321  0.0337  0.9548
 7256TIP3    H143183   6.786   6.610  17.068 -0.5063 -0.0036  2.4029
 7256TIP3    H243184   6.786   6.470  17.126  0.4876 -1.4683 -0.8945
 7257TIP3   OH243185   2.485   2.516  14.182 -0.3343  0.2118  0.6255
 7257TIP3    H143186   2.436   2.514  14.100  0.0980 -0.5752  0.3828
 7257TIP3    H243187   2.417   2.520  14.250 -0.7276 -0.4455  0.2805
 7258TIP3   OH243188   0.841   4.680   5.357  0.3227 -0.4083  0.0617
 7258TIP3    H143189   0.797   4.640   5.431  0.6571 -1.6377 -0.3784
 7258TIP3    H243190   0.779   4.745   5.324 -0.4179 -0.8557  0.5486
 7259TIP3   OH243191   3.388   0.439   1.689  0.0126  0.1408 -0.2396
 7259TIP3    H143192   3.297   0.441   1.719  0.6239  2.5261  1.7739
 7259TIP3    H243193   3.426   0.362   1.733 -0.9324 -0.7908 -0.9897
 7260TIP3   OH243194   5.992   0.366  11.668 -0.1197 -0.2823  0.0872
 7260TIP3    H143195   5.897   0.362  11.680 -0.0336 -1.3451  0.5565
 7260TIP3    H243196   6.022   0.277  11.689  1.0901  0.3215  1.0450
 7261TIP3   OH243197   3.281   0.886   5.553  0.1955 -0.1324 -0.7537
 7261TIP3    H143198   3.201   0.910   5.505  0.2689  1.2431 -0.2334
 7261TIP3    H243199   3.257   0.893   5.645  0.7681 -0.2813 -0.5888
 7262TIP3   OH243200   0.899   0.833   2.160 -0.1518  0.0481 -0.2474
 7262TIP3    H143201   0.854   0.843   2.076  0.2398 -0.1338 -0.4789
 7262TIP3    H243202   0.939   0.747   2.156 -0.9073 -0.3527  0.5008
 7263TIP3   OH243203   0.182   1.348   0.663  0.1829  0.0262  0.1716
 7263TIP3    H143204   0.113   1.412   0.644  0.7834  0.6683  0.0992
 7263TIP3    H243205   0.143   1.289   0.727  0.0726  1.3143  1.3356
 7264TIP3   OH243206   3.503   4.198  13.563  0.0963 -0.2487  0.5957
 7264TIP3    H143207   3.426   4.201  13.620 -0.4796  1.6508 -0.2232
 7264TIP3    H243208   3.573   4.164  13.619 -1.2110 -1.5961  1.4742
 7265TIP3   OH243209   1.288   4.305   0.545  0.0260 -0.0499 -0.3849
 7265TIP3    H143210   1.217   4.242   0.541 -0.8916  0.9569 -0.4788
 7265TIP3    H243211   1.327   4.293   0.632 -1.1906  0.3624  0.2363
 7266TIP3   OH243212   1.938   5.365  14.803 -0.4527  0.4841 -0.0515
 7266TIP3    H143213   2.012   5.422  14.787 -0.7134  0.8222 -0.0715
 7266TIP3    H243214   1.929   5.314  14.723 -0.8392  1.1296 -0.4308
 7267TIP3   OH243215   6.095   5.598  12.061 -0.2970  0.3041  0.8320
 7267TIP3    H143216   6.092   5.562  12.150  0.5948  2.7683  1.9538
 7267TIP3    H243217   6.187   5.591  12.036  0.1156  2.6053  1.5068
 7268TIP3   OH243218   3.027   4.521  13.548 -0.2587  0.3704  0.5741
 7268TIP3    H143219   3.057   4.586  13.485  0.8931 -0.0679  0.6446
 7268TIP3    H243220   2.943   4.490  13.513 -0.2133  0.9875 -0.1067
 7269TIP3   OH243221   1.650   6.529  12.594 -0.2397  0.0633  0.2037
 7269TIP3    H143222   1.555   6.531  12.584 -0.1700 -0.4472 -0.5997
 7269TIP3    H243223   1.682   6.600  12.538 -0.0802 -0.5390 -0.4878
 7270TIP3   OH243224   6.403   3.727   2.492 -0.8900 -0.0883 -0.9603
 7270TIP3    H143225   6.313   3.723   2.460 -0.2703  0.0606 -2.8149
 7270TIP3    H243226   6.434   3.814   2.466 -0.6889  0.5314  1.1401
 7271TIP3   OH243227   0.636   6.524  11.032  0.6799 -0.0151  0.3952
 7271TIP3    H143228   0.549   6.489  11.019  0.3557  1.0299 -0.4307
 7271TIP3    H243229   0.678   6.517  10.946  0.9115  0.7381  0.4337
 7272TIP3   OH243230   1.986   4.196   0.016 -0.2738 -0.0875  0.3937
 7272TIP3    H143231   2.079   4.191  -0.006 -0.4889 -2.8442 -0.2420
 7272TIP3    H243232   1.982   4.181   0.110 -0.1693 -2.9605  0.0189
 7273TIP3   OH243233   2.698   4.260   5.681  0.5810 -0.3277 -0.4677
 7273TIP3    H143234   2.788   4.275   5.707  0.7578 -1.8767 -0.1160
 7273TIP3    H243235   2.656   4.346   5.689  1.9969  0.4098 -0.6198
 7274TIP3   OH243236   3.062   5.639  12.179 -0.2692  0.4796 -0.0552
 7274TIP3    H143237   3.073   5.618  12.272 -1.0555  2.7602  0.6345
 7274TIP3    H243238   3.025   5.560  12.140  1.5766 -1.1029  1.1918
 7275TIP3   OH243239   2.956   2.746   5.392  0.2620  0.3723 -0.0347
 7275TIP3    H143240   2.989   2.656   5.387 -0.2520  0.1856 -0.2414
 7275TIP3    H243241   2.938   2.769   5.301  1.0049  0.9252 -0.0423
 7276TIP3   OH243242   3.565   3.631  14.858  0.1006 -0.4908  0.0047
 7276TIP3    H143243   3.551   3.645  14.952 -1.1897  0.1032 -0.2494
 7276TIP3    H243244   3.542   3.715  14.818  1.1901 -0.5629 -0.8000
 7277TIP3   OH243245   2.852   5.251   5.282 -0.6796 -0.1026  0.7291
 7277TIP3    H143246   2.760   5.224   5.290 -0.6697 -0.3456  0.0816
 7277TIP3    H243247   2.849   5.346   5.280 -0.9766 -0.1176  0.1317
 7278TIP3   OH243248   3.471   2.287  14.168  0.0924  0.0058  0.1108
 7278TIP3    H143249   3.409   2.346  14.127  0.5368 -0.4651 -1.3002
 7278TIP3    H243250   3.514   2.340  14.235 -0.8923  0.6985  0.2181
 7279TIP3   OH243251   1.203   0.583   4.506 -0.0586  0.6177 -0.1401
 7279TIP3    H143252   1.175   0.645   4.438  0.8892 -0.7094 -1.8204
 7279TIP3    H243253   1.298   0.585   4.502  0.0562  1.3428  1.9913
 7280TIP3   OH243254   6.753   1.551   1.826  0.2785 -0.3809 -0.3778
 7280TIP3    H143255   6.705   1.469   1.835 -0.7800  0.2539  0.0621
 7280TIP3    H243256   6.812   1.537   1.753  0.9259 -1.8993  0.4023
 7281TIP3   OH243257   2.688   3.683   2.195 -0.0037 -0.0080  0.7758
 7281TIP3    H143258   2.643   3.733   2.126 -0.1659 -0.2166  0.7307
 7281TIP3    H243259   2.666   3.729   2.276 -1.5562 -0.9740  0.9448
 7282TIP3   OH243260   5.521   1.924   5.499 -0.0103 -0.0654 -0.8831
 7282TIP3    H143261   5.600   1.893   5.455  1.2837  1.3544  0.3093
 7282TIP3    H243262   5.478   1.980   5.435  1.0523  0.7707 -0.8997
 7283TIP3   OH243263   2.425   0.843  11.749 -0.3411  0.0167 -0.1790
 7283TIP3    H143264   2.490   0.816  11.685 -0.0176 -0.9789  0.5384
 7283TIP3    H243265   2.473   0.843  11.832 -0.7793  1.1617  0.0882
 7284TIP3   OH243266   4.719   0.741   4.684  0.1614 -0.4417 -0.0939
 7284TIP3    H143267   4.809   0.759   4.655  0.0911 -1.4232 -1.0023
 7284TIP3    H243268   4.674   0.825   4.676 -0.0562 -0.7390 -3.7170
 7285TIP3   OH243269   1.198   3.523  16.754 -0.3829  0.2919 -0.0563
 7285TIP3    H143270   1.222   3.604  16.799  1.2138  0.3159 -0.8864
 7285TIP3    H243271   1.278   3.496  16.710 -1.0572 -1.4322 -0.2776
 7286TIP3   OH243272   3.935   1.575   2.222  0.4424 -0.5346 -0.2011
 7286TIP3    H143273   3.959   1.487   2.249  3.0903  0.1171 -0.1549
 7286TIP3    H243274   4.003   1.600   2.159 -0.2730  1.4424 -0.2604
 7287TIP3   OH243275   6.551   2.750  13.841  0.1988  0.2550 -0.0758
 7287TIP3    H143276   6.633   2.770  13.796  0.9648  1.0955  1.5808
 7287TIP3    H243277   6.555   2.655  13.857  0.6209  0.2068 -0.4372
 7288TIP3   OH243278   4.160   2.579   4.454 -0.2464 -0.2471 -0.0670
 7288TIP3    H143279   4.071   2.595   4.424 -0.6937 -2.1597  0.1040
 7288TIP3    H243280   4.155   2.590   4.549 -0.5511 -1.3095  0.0503
 7289TIP3   OH243281   1.434   3.991   3.243  0.3811  0.2305  0.1808
 7289TIP3    H143282   1.487   3.993   3.163  0.6278  0.9835  0.3470
 7289TIP3    H243283   1.438   4.081   3.275 -1.1468  0.3458  0.1034
 7290TIP3   OH243284   6.720   2.017  16.531 -0.3451 -0.0923 -0.2999
 7290TIP3    H143285   6.732   1.959  16.606 -4.5182 -0.4857  0.3081
 7290TIP3    H243286   6.758   1.969  16.457 -0.6725 -2.0668  0.7505
 7291TIP3   OH243287   2.515   5.405  14.453  0.0969  0.1786  0.1813
 7291TIP3    H143288   2.430   5.383  14.415 -1.3286  2.7350  1.5618
 7291TIP3    H243289   2.576   5.406  14.378 -1.0382 -1.6978 -0.8389
 7292TIP3   OH243290   5.290   0.642   0.328 -0.1304 -0.1437 -0.1056
 7292TIP3    H143291   5.254   0.570   0.276 -0.1781  1.8534 -3.0807
 7292TIP3    H243292   5.372   0.608   0.364  0.8481 -1.1745 -3.0285
 7293TIP3   OH243293   2.459   0.871   1.353  0.1686 -0.3190 -0.1368
 7293TIP3    H143294   2.546   0.838   1.373 -0.3468 -2.1440 -0.7172
 7293TIP3    H243295   2.465   0.903   1.263  0.3998  0.2428  0.0703
 7294TIP3   OH243296   3.241   5.380  14.009  0.3431 -0.5484 -0.3091
 7294TIP3    H143297   3.215   5.434  13.934  1.5177 -0.3217 -0.5844
 7294TIP3    H243298   3.258   5.443  14.079 -1.1889 -0.7895  0.3165
 7295TIP3   OH243299   0.723   2.478  14.076 -0.1934 -0.0010 -0.0905
 7295TIP3    H143300   0.673   2.402  14.106 -0.7907  1.1273  2.0107
 7295TIP3    H243301   0.664   2.522  14.015  0.4843 -1.5967 -1.9946
 7296TIP3   OH243302   3.119   0.544  14.446 -0.1535 -0.4822 -0.0292
 7296TIP3    H143303   3.137   0.458  14.409 -0.4685 -1.9079  2.8951
 7296TIP3    H243304   3.182   0.554  14.517 -0.7722  1.2927  0.3244
 7297TIP3   OH243305   0.045   1.341  16.134  0.0984 -0.7468  0.0144
 7297TIP3    H143306   0.052   1.383  16.220  1.6894 -0.0937 -0.3977
 7297TIP3    H243307   0.101   1.394  16.077 -2.0319 -0.2887 -1.8117
 7298TIP3   OH243308   4.931   6.680   6.293  0.0681  0.2339 -0.0876
 7298TIP3    H143309   4.980   6.750   6.250 -0.0436 -0.4450 -1.3998
 7298TIP3    H243310   4.846   6.679   6.249 -0.8607  0.8434  1.5899
 7299TIP3   OH243311   0.136   5.006   4.908 -0.1138 -1.1383 -0.9061
 7299TIP3    H143312   0.193   4.931   4.892 -1.2521 -2.0733 -0.7227
 7299TIP3    H243313   0.120   5.044   4.821  1.4352 -0.3400 -0.8779
 7300TIP3   OH243314   3.835   3.030  15.440 -0.1140 -0.3853  0.4362
 7300TIP3    H143315   3.859   2.961  15.501 -0.9222 -0.9078  0.1791
 7300TIP3    H243316   3.829   3.109  15.494  2.1972 -0.1885  0.5060
 7301TIP3   OH243317   0.039   3.820  15.771 -0.7663 -0.3624  0.0454
 7301TIP3    H143318   0.007   3.905  15.739 -0.2190  0.5595  1.7990
 7301TIP3    H243319   0.118   3.803  15.720 -1.6038 -0.4903 -1.2426
 7302TIP3   OH243320   0.686   3.839  14.734  0.3828 -0.1925  0.8207
 7302TIP3    H143321   0.601   3.872  14.763 -0.3531 -0.7965 -0.5926
 7302TIP3    H243322   0.706   3.767  14.795 -1.3914 -1.7938 -0.3784
 7303TIP3   OH243323   0.195   1.197  14.503 -0.5221  0.5669 -0.4414
 7303TIP3    H143324   0.178   1.103  14.512 -1.4106  0.8869  2.1940
 7303TIP3    H243325   0.287   1.202  14.478 -0.3141 -1.0041 -0.1336
 7304TIP3   OH243326   1.043   3.994  14.873  0.3401  0.3261  0.7781
 7304TIP3    H143327   1.074   3.920  14.821  0.4614  0.0550  1.2305
 7304TIP3    H243328   1.068   4.071  14.822 -0.9200  0.0453 -0.3338
 7305TIP3   OH243329   5.121   1.936  16.260 -0.9820 -0.8621  0.2140
 7305TIP3    H143330   5.072   1.869  16.307 -2.2330 -0.2393 -0.1550
 7305TIP3    H243331   5.057   1.976  16.201 -0.0626  0.0779 -0.1812
 7306TIP3   OH243332   3.496   4.078  10.942  0.2803  0.0307  0.1857
 7306TIP3    H143333   3.591   4.065  10.951  0.5755  0.1728 -2.1554
 7306TIP3    H243334   3.460   3.989  10.943  0.3925 -0.0227  1.1240
 7307TIP3   OH243335   1.658   3.675  12.475 -0.4933 -0.5613  0.4835
 7307TIP3    H143336   1.585   3.615  12.460 -0.1243 -0.5440 -1.6639
 7307TIP3    H243337   1.663   3.727  12.395  1.2338  0.1394  1.0008
 7308TIP3   OH243338   2.008   2.696  16.984  0.3200  0.0629 -0.5199
 7308TIP3    H143339   1.984   2.784  16.954 -1.4584 -0.1822  0.0716
 7308TIP3    H243340   2.056   2.711  17.066  2.3864  0.5598 -1.7241
 7309TIP3   OH243341   0.216   3.477  14.117 -0.2116  0.4589 -0.0820
 7309TIP3    H143342   0.207   3.561  14.163 -1.2477 -1.3621  3.3929
 7309TIP3    H243343   0.128   3.454  14.090 -0.4989 -0.8354  1.7592
 7310TIP3   OH243344   4.020   3.041   0.128 -0.2047  0.3177 -0.3051
 7310TIP3    H143345   4.067   3.063   0.048  0.1331 -0.2937 -0.2805
 7310TIP3    H243346   4.087   3.006   0.186 -0.6295 -0.2033 -0.1260
 7311TIP3   OH243347   5.748   2.765   5.391 -0.0330  0.0304  0.0610
 7311TIP3    H143348   5.680   2.779   5.457  0.2321  1.3978  0.0684
 7311TIP3    H243349   5.707   2.789   5.308  0.0239 -0.4871 -0.1254
 7312TIP3   OH243350   1.510   6.419   4.775  1.4249 -0.4431  0.0814
 7312TIP3    H143351   1.541   6.418   4.685 -1.3631 -1.1205 -0.9699
 7312TIP3    H243352   1.539   6.335   4.811  1.7159 -0.5867 -0.4779
 7313TIP3   OH243353   5.143   5.322  11.299  0.2191 -0.1349  0.7047
 7313TIP3    H143354   5.173   5.250  11.244 -1.5757 -0.7757  0.5035
 7313TIP3    H243355   5.162   5.293  11.389  1.2638  0.0201  0.5542
 7314TIP3   OH243356   5.439   0.036   4.856  0.5013  0.9237  0.3741
 7314TIP3    H143357   5.525   0.021   4.817 -0.6139  0.3977 -2.0406
 7314TIP3    H243358   5.387  -0.039   4.829 -1.6732  2.8810 -1.2099
 7315TIP3   OH243359   6.414   3.675  13.274  0.7045 -0.3828 -0.3260
 7315TIP3    H143360   6.398   3.770  13.278 -0.0793 -0.4637 -1.3012
 7315TIP3    H243361   6.472   3.658  13.348 -2.1803  0.2439  2.2798
 7316TIP3   OH243362   0.824   6.564  16.593  0.2391  0.5440 -0.2919
 7316TIP3    H143363   0.751   6.606  16.639  0.4551 -0.1934  0.7545
 7316TIP3    H243364   0.792   6.554  16.503 -0.8814  0.4174  0.0963
 7317TIP3   OH243365   3.147   2.399  12.164 -0.0991  0.3274  0.7384
 7317TIP3    H143366   3.236   2.372  12.189  0.3733 -2.2460 -2.8757
 7317TIP3    H243367   3.093   2.322  12.183 -0.4043 -0.2486 -2.0472
 7318TIP3   OH243368   6.564   5.693   0.422  0.2469  0.0052  0.4745
 7318TIP3    H143369   6.656   5.689   0.447  0.0286  0.6025  1.4518
 7318TIP3    H243370   6.541   5.603   0.400  0.4847 -0.5895  2.4641
 7319TIP3   OH243371   1.739   5.156  13.707 -0.1064 -0.5076  0.2953
 7319TIP3    H143372   1.709   5.132  13.619  1.1710 -1.0843 -0.0060
 7319TIP3    H243373   1.692   5.237  13.727  0.7642  0.5241 -1.5872
 7320TIP3   OH243374   4.630   4.455  13.626  0.0514 -0.2133 -0.4194
 7320TIP3    H143375   4.636   4.399  13.549 -0.4804  0.0118 -0.6250
 7320TIP3    H243376   4.577   4.529  13.599 -0.9062 -0.5687  0.4098
 7321TIP3   OH243377   4.373   5.203   6.634  0.2551 -1.0373 -0.5361
 7321TIP3    H143378   4.303   5.157   6.586 -1.5709  0.2901  0.7267
 7321TIP3    H243379   4.404   5.269   6.572 -2.1768  0.7537  0.0026
 7322TIP3   OH243380   0.570   0.900   2.132 -0.5953  0.4472  0.2401
 7322TIP3    H143381   0.545   0.991   2.113  1.6517  0.7630 -1.6455
 7322TIP3    H243382   0.630   0.907   2.207 -2.1298  0.2228  1.5375
 7323TIP3   OH243383   6.233   4.658   5.773  0.2961 -0.0587 -0.0614
 7323TIP3    H143384   6.201   4.748   5.765 -1.1411 -0.6797 -2.2486
 7323TIP3    H243385   6.319   4.659   5.730 -0.5604 -0.0772 -1.8597
 7324TIP3   OH243386   4.563   5.064  13.013  0.1474 -0.2710  0.3559
 7324TIP3    H143387   4.577   4.975  13.045 -1.5220 -0.7116 -0.0900
 7324TIP3    H243388   4.533   5.054  12.923  1.5814  0.8374 -0.3005
 7325TIP3   OH243389   3.143   2.011  15.219  0.0605  0.3996 -0.3105
 7325TIP3    H143390   3.220   2.023  15.164  0.2108  0.4629 -0.0879
 7325TIP3    H243391   3.123   2.099  15.252  0.4295  0.2438  0.3444
 7326TIP3   OH243392   6.765   1.887  16.755 -0.7624 -0.1104  0.2442
 7326TIP3    H143393   6.841   1.831  16.771 -1.0270 -0.0861  1.6663
 7326TIP3    H243394   6.749   1.930  16.838 -0.5517  2.1365 -0.8011
 7327TIP3   OH243395   0.353   4.363   3.110  1.0884 -0.7484  0.2810
 7327TIP3    H143396   0.447   4.363   3.095  1.0735  1.2291  0.0036
 7327TIP3    H243397   0.332   4.272   3.130  2.9743 -1.3020 -0.1109
 7328TIP3   OH243398   0.706   0.563  13.985 -0.0140  0.6418  0.4979
 7328TIP3    H143399   0.632   0.508  14.011 -0.1108  0.3526 -0.3442
 7328TIP3    H243400   0.712   0.629  14.053  1.2494 -1.4385  2.5696
 7329TIP3   OH243401   4.098   3.129  16.641 -0.5726  0.0225  0.6599
 7329TIP3    H143402   4.163   3.060  16.630 -1.4461 -0.8028  0.5767
 7329TIP3    H243403   4.120   3.193  16.573  0.3236 -0.0985  0.8208
 7330TIP3   OH243404   3.338   0.478  13.286 -0.0132  0.6557  0.2612
 7330TIP3    H143405   3.305   0.523  13.365  1.8533  0.3509  1.2626
 7330TIP3    H243406   3.408   0.535  13.255 -0.0920  0.2689 -0.6276
 7331TIP3   OH243407   0.704   4.762   5.777  0.7052 -0.3599  0.3428
 7331TIP3    H143408   0.744   4.792   5.858 -0.4778  0.2088  0.7312
 7331TIP3    H243409   0.731   4.827   5.712 -1.8182  1.6714  1.1712
 7332TIP3   OH243410   0.840   1.026   4.563  0.0020 -0.0510  0.1294
 7332TIP3    H143411   0.864   0.940   4.596  0.7612  0.1479  0.0969
 7332TIP3    H243412   0.907   1.085   4.596 -0.9012  0.6602  0.7492
 7333TIP3   OH243413   4.082   5.616   1.173 -0.6287  0.4779 -0.1409
 7333TIP3    H143414   4.140   5.580   1.105  2.4772  0.5683  2.2264
 7333TIP3    H243415   4.005   5.560   1.171  0.7043 -1.4766 -1.6830
 7334TIP3   OH243416   5.349   3.072  11.822  0.2313 -0.1038 -0.3753
 7334TIP3    H143417   5.268   3.123  11.834 -0.1208 -0.7790  0.2257
 7334TIP3    H243418   5.400   3.091  11.901  1.1163  1.0959 -1.2019
 7335TIP3   OH243419   3.619   5.066  17.222 -0.1997  0.4689 -0.1408
 7335TIP3    H143420   3.571   5.149  17.218 -0.2824  0.5347  1.6764
 7335TIP3    H243421   3.635   5.044  17.130 -2.6098  1.0594 -0.7571
 7336TIP3   OH243422   5.700   5.282   5.118  0.0891  0.1012 -0.5818
 7336TIP3    H143423   5.624   5.274   5.177  0.4440 -0.3608 -0.1706
 7336TIP3    H243424   5.769   5.318   5.173  0.4459 -0.4004 -0.6904
 7337TIP3   OH243425   1.624   0.050   3.468  0.2332 -0.2525  0.5096
 7337TIP3    H143426   1.677   0.063   3.390 -0.1855  1.5259  0.4944
 7337TIP3    H243427   1.553   0.114   3.461 -1.1677 -1.6332  1.2035
 7338TIP3   OH243428   5.618   0.158   3.639  0.0314  0.1777 -0.4589
 7338TIP3    H143429   5.554   0.112   3.693  2.0402 -1.9942  0.2561
 7338TIP3    H243430   5.682   0.192   3.703  0.1562  1.4049 -1.2076
 7339TIP3   OH243431   6.040   3.091   3.409 -0.4098 -0.1897  0.2929
 7339TIP3    H143432   6.050   3.010   3.459  0.0451  0.1299  0.7346
 7339TIP3    H243433   6.098   3.080   3.333  0.3207  0.0564  0.7984
 7340TIP3   OH243434   2.286   2.799  10.825  0.3468  0.2214  0.3871
 7340TIP3    H143435   2.292   2.877  10.769  0.2700  1.3828  1.9461
 7340TIP3    H243436   2.200   2.763  10.806  0.0856  0.9317  0.1883
 7341TIP3   OH243437   0.701   0.856   0.720  0.6355  0.2971  0.5215
 7341TIP3    H143438   0.609   0.857   0.693  0.9641  0.3770 -0.6506
 7341TIP3    H243439   0.710   0.775   0.770  0.6189 -1.4010 -2.0284
 7342TIP3   OH243440   2.756   5.857   2.998 -0.0040  0.6275  0.4265
 7342TIP3    H143441   2.744   5.858   3.093 -1.8031  0.7518  0.2208
 7342TIP3    H243442   2.796   5.941   2.978 -2.7816  2.1091  0.7341
 7343TIP3   OH243443   5.108   4.741  14.026  0.1884  0.0837 -0.5129
 7343TIP3    H143444   5.028   4.714  14.071 -0.9048  2.1306 -1.1361
 7343TIP3    H243445   5.141   4.659  13.988 -0.9990 -0.9955  0.6448
 7344TIP3   OH243446   1.723   2.922  16.606  0.1209  0.0561 -0.6188
 7344TIP3    H143447   1.781   2.997  16.618 -0.8183  0.9535 -1.5550
 7344TIP3    H243448   1.640   2.960  16.577 -2.0633 -0.8382  3.5810
 7345TIP3   OH243449   5.953   3.183  10.978 -0.1989 -0.4361 -0.2153
 7345TIP3    H143450   5.952   3.279  10.979  1.8501 -0.3517  0.9134
 7345TIP3    H243451   6.005   3.160  10.901 -0.8184 -0.6694 -0.5740
 7346TIP3   OH243452   5.317   1.889   4.585 -0.7269  0.3385 -0.2145
 7346TIP3    H143453   5.376   1.814   4.582 -0.0103  0.8079  1.0951
 7346TIP3    H243454   5.235   1.857   4.547  0.2161 -0.4478 -1.6571
 7347TIP3   OH243455   3.295   1.808   4.689  0.1854  0.0005  0.3224
 7347TIP3    H143456   3.354   1.780   4.619 -1.2916 -0.4496 -0.7743
 7347TIP3    H243457   3.296   1.903   4.685 -0.4121 -0.0309 -0.7749
 7348TIP3   OH243458   6.508   2.709   2.556  0.8267 -0.0676 -0.1369
 7348TIP3    H143459   6.459   2.756   2.489  0.0884 -0.1999  0.2991
 7348TIP3    H243460   6.588   2.760   2.567  1.3400 -0.4780 -1.6803
 7349TIP3   OH243461   4.042   4.267   1.824 -0.3405  0.0389 -0.2722
 7349TIP3    H143462   4.127   4.306   1.806 -0.5574 -0.6762 -3.4611
 7349TIP3    H243463   4.058   4.202   1.893  1.8433 -0.5604 -1.2858
 7350TIP3   OH243464   3.529   6.263  11.968 -0.3513 -0.3663  0.3299
 7350TIP3    H143465   3.516   6.272  11.873  0.6372 -0.7368  0.1444
 7350TIP3    H243466   3.446   6.230  12.001 -0.6275 -0.4738 -0.4503
 7351TIP3   OH243467   3.627   6.293  10.444  0.3460  0.2024 -0.1688
 7351TIP3    H143468   3.653   6.372  10.396 -0.9368  0.9759  0.3473
 7351TIP3    H243469   3.592   6.327  10.527 -1.9537 -0.7615 -0.6796
 7352TIP3   OH243470   5.676   3.963   0.720 -0.3489 -0.0328 -0.0208
 7352TIP3    H143471   5.637   4.025   0.782 -1.4803  0.4818 -1.2220
 7352TIP3    H243472   5.601   3.915   0.684  0.4145 -1.2933  0.0005
 7353TIP3   OH243473   0.651   3.370   5.579 -0.0003 -0.2868 -0.2555
 7353TIP3    H143474   0.720   3.429   5.611 -0.3252 -0.2013  0.2892
 7353TIP3    H243475   0.577   3.428   5.561  0.1854 -0.3267 -1.2183
 7354TIP3   OH243476   5.819   5.785  13.817  0.1568 -0.6312 -0.5207
 7354TIP3    H143477   5.879   5.784  13.742  0.2764 -1.3296 -0.4228
 7354TIP3    H243478   5.732   5.778  13.779 -0.1423  2.8493 -0.8559
 7355TIP3   OH243479   0.498   3.362  14.380  0.0626 -0.1817 -0.0983
 7355TIP3    H143480   0.434   3.309  14.427  0.7715  0.6275  1.8616
 7355TIP3    H243481   0.565   3.383  14.445  2.7397 -1.5744 -2.1944
 7356TIP3   OH243482   6.426   6.445  15.824 -0.3471 -0.0594 -0.0503
 7356TIP3    H143483   6.358   6.466  15.760 -0.7669  0.3156  0.5029
 7356TIP3    H243484   6.499   6.503  15.801  0.2770 -1.3440 -1.4169
 7357TIP3   OH243485   3.398   2.200  11.985 -0.0954  0.2035 -0.6458
 7357TIP3    H143486   3.318   2.159  12.017  0.0054 -0.1729 -0.8745
 7357TIP3    H243487   3.375   2.234  11.899 -0.1778  0.6291 -0.4603
 7358TIP3   OH243488   0.442   4.703   1.360 -0.5245  0.2169 -0.0483
 7358TIP3    H143489   0.449   4.618   1.403 -1.2317  0.0591 -0.2362
 7358TIP3    H243490   0.396   4.685   1.278 -0.4232  0.7380 -0.2259
 7359TIP3   OH243491   3.078   2.382  13.365  0.3446 -0.1262  0.6419
 7359TIP3    H143492   3.133   2.307  13.386 -2.0480 -2.3257 -0.5400
 7359TIP3    H243493   3.054   2.418  13.451  0.9410 -1.1289  1.2536
 7360TIP3   OH243494   2.172   6.360  12.093 -0.4777  0.0796 -0.0266
 7360TIP3    H143495   2.105   6.385  12.157 -1.7550 -0.5979 -1.0549
 7360TIP3    H243496   2.155   6.267  12.076 -2.3357  0.9068 -3.7352
 7361TIP3   OH243497   5.145   6.602   1.295 -0.3756  0.0790 -0.0855
 7361TIP3    H143498   5.211   6.533   1.294  0.9744  1.3153 -0.6375
 7361TIP3    H243499   5.163   6.651   1.375 -0.9156  0.1552 -0.0080
 7362TIP3   OH243500   3.836   5.984  14.883 -0.0493 -0.0147  0.3380
 7362TIP3    H143501   3.767   5.937  14.930 -1.6134  0.6366 -1.2106
 7362TIP3    H243502   3.796   6.068  14.860  1.8866  1.1351  0.9387
 7363TIP3   OH243503   4.899   5.003  14.188 -0.3832 -0.3593 -0.4117
 7363TIP3    H143504   4.871   5.086  14.148 -0.5602  0.6134  1.6058
 7363TIP3    H243505   4.822   4.973  14.236  0.2277 -0.7869  0.3023
 7364TIP3   OH243506   5.825   5.025   6.078  0.4103 -0.1521 -0.1420
 7364TIP3    H143507   5.905   5.077   6.088  0.7103  0.0054 -2.7767
 7364TIP3    H243508   5.769   5.054   6.150  2.3459  0.4115  1.2137
 7365TIP3   OH243509   0.130   2.396   5.902  0.2942 -0.2823 -0.2217
 7365TIP3    H143510   0.198   2.372   5.965  1.7645 -0.3328 -1.7684
 7365TIP3    H243511   0.080   2.315   5.890 -0.0528 -0.2605  0.8834
 7366TIP3   OH243512   2.042   6.446  12.378  0.5892 -0.2948 -0.2793
 7366TIP3    H143513   2.063   6.509  12.309  1.2923 -0.4347 -0.1995
 7366TIP3    H243514   2.080   6.485  12.457 -0.6670  0.1194  0.1383
 7367TIP3   OH243515   0.991   3.796   4.316  0.1331  0.4295 -0.8673
 7367TIP3    H143516   1.015   3.718   4.266 -0.6440  0.7959 -1.8428
 7367TIP3    H243517   0.916   3.769   4.369 -0.6094  0.6898 -1.7570
 7368TIP3   OH243518   0.396   0.687  12.870 -1.1582 -1.0557 -0.0119
 7368TIP3    H143519   0.356   0.619  12.923 -0.6759 -0.5309  1.0570
 7368TIP3    H243520   0.470   0.719  12.923 -0.8943 -0.2586 -0.8294
 7369TIP3   OH243521   2.813   0.627   3.959  0.1797  0.2227  0.8327
 7369TIP3    H143522   2.723   0.659   3.955 -0.7615 -2.2362 -1.1547
 7369TIP3    H243523   2.849   0.644   3.872  0.5768 -1.3816  0.6333
 7370TIP3   OH243524   1.016   5.945  16.519 -0.0395  0.0653  0.3067
 7370TIP3    H143525   1.073   5.928  16.444 -1.0344 -2.4784  0.0424
 7370TIP3    H243526   0.936   5.897  16.500 -1.2498  1.3124  1.9432
 7371TIP3   OH243527   6.389   3.181   0.431 -0.0756  0.5913 -0.3603
 7371TIP3    H143528   6.329   3.126   0.382  0.3130  0.9353 -1.2488
 7371TIP3    H243529   6.337   3.257   0.457 -0.2245  0.5131 -0.4325
 7372TIP3   OH243530   6.719   5.160  15.192  0.1965  0.2682  0.5153
 7372TIP3    H143531   6.713   5.220  15.117  1.3039  2.3254  1.9607
 7372TIP3    H243532   6.797   5.108  15.175  1.6765  2.1693  1.1325
 7373TIP3   OH243533   1.081   4.891  17.167  0.8548 -0.5523  0.3916
 7373TIP3    H143534   1.103   4.799  17.183  1.9321 -0.2890  0.5407
 7373TIP3    H243535   1.140   4.940  17.225 -1.3007  0.2026  2.0810
 7374TIP3   OH243536   5.516   1.712  11.016  0.2407  0.1265 -0.4845
 7374TIP3    H143537   5.440   1.757  10.980 -0.9908 -1.0340  0.5554
 7374TIP3    H243538   5.480   1.652  11.081  2.0056 -0.8363 -0.3224
 7375TIP3   OH243539   2.962   0.069   1.602 -0.2758  0.3164 -0.4446
 7375TIP3    H143540   3.010   0.024   1.671 -1.1004  0.5346  0.3000
 7375TIP3    H243541   2.894   0.007   1.575  0.4617 -0.0409 -1.5768
 7376TIP3   OH243542   6.237   5.374   5.630 -0.2890 -0.1010 -0.4080
 7376TIP3    H143543   6.250   5.411   5.717 -1.1655 -0.0775 -0.2743
 7376TIP3    H243544   6.269   5.441   5.570 -2.2688  1.1227 -0.1811
 7377TIP3   OH243545   1.356   4.220  12.552  0.3043 -0.6113  0.8486
 7377TIP3    H143546   1.382   4.134  12.519  3.6699  1.4694 -2.8376
 7377TIP3    H243547   1.424   4.242  12.616  0.5564  0.0120  0.3722
 7378TIP3   OH243548   6.719   1.085   1.776  0.2947  0.0098  0.2779
 7378TIP3    H143549   6.720   1.169   1.731 -1.8225 -0.1689 -0.2042
 7378TIP3    H243550   6.669   1.027   1.719  2.0287 -1.7301  0.4197
 7379TIP3   OH243551   2.076   4.186   5.080 -0.5907  0.0323 -0.7289
 7379TIP3    H143552   2.052   4.114   5.137  0.9217  0.5339  0.6391
 7379TIP3    H243553   2.072   4.264   5.136  1.3701  0.4804 -1.1111
 7380TIP3   OH243554   6.431   4.312   2.490 -0.2366  0.5978 -0.4300
 7380TIP3    H143555   6.350   4.362   2.499 -1.1542 -0.9800  0.5661
 7380TIP3    H243556   6.419   4.236   2.547  1.3702 -0.4246 -1.3622
 7381TIP3   OH243557   0.145   1.172  15.623  0.1513  0.2499 -0.0001
 7381TIP3    H143558   0.177   1.253  15.663  0.8531  0.5752 -1.1782
 7381TIP3    H243559   0.054   1.164  15.652  1.0431 -0.3898  2.9868
 7382TIP3   OH243560   5.843   0.745   3.051  0.1901 -0.4566  0.1665
 7382TIP3    H143561   5.805   0.693   2.980 -3.3970 -0.9044  2.1822
 7382TIP3    H243562   5.865   0.829   3.010 -0.3676 -1.1895 -1.7484
 7383TIP3   OH243563   1.105   0.373  13.657 -0.5021 -0.1619 -0.2935
 7383TIP3    H143564   1.155   0.439  13.609  1.6651 -1.1908  0.3788
 7383TIP3    H243565   1.085   0.306  13.591  0.2901 -0.4039 -0.3006
 7384TIP3   OH243566   1.578   0.010  12.314 -0.3008 -0.2770  0.1073
 7384TIP3    H143567   1.558   0.102  12.298  0.9011 -0.2317 -1.2588
 7384TIP3    H243568   1.636   0.011  12.391  1.5460  0.3591 -1.2100
 7385TIP3   OH243569   6.642   0.971   4.663 -0.0694 -0.7871  0.0058
 7385TIP3    H143570   6.667   0.926   4.583  1.4906 -2.0683  1.1429
 7385TIP3    H243571   6.678   0.917   4.733 -3.8259 -1.3303  1.7656
 7386TIP3   OH243572   1.215   5.593  11.541  0.4561 -0.5280  0.2005
 7386TIP3    H143573   1.175   5.506  11.542 -1.2104  0.2039  0.6895
 7386TIP3    H243574   1.225   5.617  11.633  1.0793 -0.2690  0.0750
 7387TIP3   OH243575   2.233   0.826   0.221 -0.1745 -0.2730  0.0627
 7387TIP3    H143576   2.205   0.735   0.212  1.8130 -0.9246 -0.0280
 7387TIP3    H243577   2.301   0.837   0.155  0.7610  0.7761  1.1598
 7388TIP3   OH243578   4.139   5.203   1.572 -0.1004  0.2283  0.8398
 7388TIP3    H143579   4.176   5.260   1.504 -0.5462  0.0615  0.4613
 7388TIP3    H243580   4.216   5.159   1.609  0.0553 -0.3792 -0.1829
 7389TIP3   OH243581   2.398   3.960   2.520 -0.2466  0.2260  0.3020
 7389TIP3    H143582   2.427   3.879   2.479 -0.8164  0.7442 -1.2096
 7389TIP3    H243583   2.339   3.933   2.590 -2.3156 -0.6770 -1.6654
 7390TIP3   OH243584   5.523   1.878  12.270  0.5577  0.3300  0.2613
 7390TIP3    H143585   5.477   1.850  12.349 -0.4337  0.6258 -0.1945
 7390TIP3    H243586   5.594   1.934  12.303 -1.4484  2.7244  0.9024
 7391TIP3   OH243587   2.678   3.474   5.626  0.1959  0.0545 -0.2115
 7391TIP3    H143588   2.698   3.405   5.689  0.7309  0.6752  0.3186
 7391TIP3    H243589   2.585   3.493   5.639  0.8273  2.0079  2.3344
 7392TIP3   OH243590   4.442   5.733   1.927  0.7143  0.1380  0.0514
 7392TIP3    H143591   4.508   5.732   1.858  0.6013 -2.3350 -0.1021
 7392TIP3    H243592   4.465   5.659   1.984 -1.0067  0.1882  0.8720
 7393TIP3   OH243593   3.442   4.858  13.779  0.3101  0.1478  0.5593
 7393TIP3    H143594   3.391   4.789  13.822 -1.5113 -0.0085 -1.6472
 7393TIP3    H243595   3.485   4.814  13.706 -0.2415  1.1393 -0.3979
 7394TIP3   OH243596   4.641   0.410  16.343 -0.0389  0.0723  0.2297
 7394TIP3    H143597   4.661   0.391  16.251 -0.1494  1.0856 -0.0122
 7394TIP3    H243598   4.672   0.333  16.390 -2.1329 -1.5274 -0.8828
 7395TIP3   OH243599   1.139   6.365  17.152  0.0949 -0.1136  0.3640
 7395TIP3    H143600   1.048   6.336  17.152  0.0703 -0.2782  2.7094
 7395TIP3    H243601   1.133   6.460  17.169  0.3513  0.0381 -0.3639
 7396TIP3   OH243602   2.467   2.637  13.205 -0.0768  0.0724 -0.1334
 7396TIP3    H143603   2.473   2.691  13.126 -1.3467  0.9646  0.3403
 7396TIP3    H243604   2.414   2.690  13.265 -0.4300 -1.2544  0.7509
 7397TIP3   OH243605   3.083   3.464   0.664 -0.0887 -0.3073  0.3390
 7397TIP3    H143606   3.124   3.550   0.678  4.6548 -2.1614 -0.1763
 7397TIP3    H243607   3.037   3.446   0.745  1.3418  1.5416  1.6601
 7398TIP3   OH243608   0.274   0.229  11.962  0.2309 -0.5168 -0.7333
 7398TIP3    H143609   0.274   0.284  12.040 -2.5128 -0.7869 -0.4656
 7398TIP3    H243610   0.187   0.239  11.925  0.6052 -2.4185 -2.3132
 7399TIP3   OH243611   0.549   3.756  10.950  0.1705 -0.5774  0.0757
 7399TIP3    H143612   0.482   3.807  10.905  1.1694 -1.0852 -2.1217
 7399TIP3    H243613   0.611   3.821  10.983 -0.3519 -0.2205  0.3759
 7400TIP3   OH243614   0.427   6.784   4.949 -0.3753  0.3373  0.4173
 7400TIP3    H143615   0.362   6.741   4.893 -0.3213 -0.2027  0.7676
 7400TIP3    H243616   0.375   6.829   5.016 -0.5874  2.8424 -1.2776
 7401TIP3   OH243617   6.699   6.000   3.924  0.3356  0.0717 -0.4452
 7401TIP3    H143618   6.648   5.999   3.843  0.4902 -0.2707 -0.5407
 7401TIP3    H243619   6.788   6.021   3.896  0.6727 -1.3859 -0.5425
 7402TIP3   OH243620   6.013   6.515  11.183  0.8490 -0.6125  0.2418
 7402TIP3    H143621   5.918   6.507  11.187  1.0308 -3.6838  0.5146
 7402TIP3    H243622   6.034   6.510  11.090  0.7011  3.0263 -0.1506
 7403TIP3   OH243623   1.437   3.968   4.881 -0.5571 -0.0678  0.1005
 7403TIP3    H143624   1.492   4.001   4.809 -0.0204 -0.0281  0.5221
 7403TIP3    H243625   1.376   4.040   4.900 -0.7480 -0.1041 -0.3563
 7404TIP3   OH243626   6.070   6.531  13.048 -0.1047 -0.3254 -0.6011
 7404TIP3    H143627   6.127   6.473  13.098  2.1276  3.0944  1.1807
 7404TIP3    H243628   6.004   6.561  13.111 -0.9419 -0.4941 -1.3622
 7405TIP3   OH243629   5.138   2.977   5.667 -0.0791 -0.1036 -0.2153
 7405TIP3    H143630   5.164   3.066   5.642 -0.1004 -0.2545 -0.7780
 7405TIP3    H243631   5.168   2.922   5.595  0.0312 -0.5714  0.1846
 7406TIP3   OH243632   5.487   3.319  11.751 -0.3890  0.0380  0.3344
 7406TIP3    H143633   5.424   3.254  11.721 -1.1807  0.4520  1.0667
 7406TIP3    H243634   5.573   3.279  11.736 -0.8087 -0.4671 -0.8261
 7407TIP3   OH243635   0.639   1.562   3.213  0.2905  0.3854 -0.2637
 7407TIP3    H143636   0.600   1.620   3.148 -0.4872 -0.5378 -0.6582
 7407TIP3    H243637   0.728   1.548   3.183  1.0951  2.7802  0.8153
 7408TIP3   OH243638   4.784   0.481   4.591  0.3044  0.1126 -0.0230
 7408TIP3    H143639   4.729   0.530   4.652  0.4374  1.3142 -0.8352
 7408TIP3    H243640   4.818   0.547   4.531  0.3919 -0.9939 -1.2449
 7409TIP3   OH243641   1.923   5.858   0.921  0.1092 -0.0410  0.5390
 7409TIP3    H143642   1.975   5.778   0.919 -0.2313 -0.2621  0.2870
 7409TIP3    H243643   1.977   5.924   0.878 -0.8435 -0.9074 -2.2159
 7410TIP3   OH243644   6.398   3.402  14.195 -0.4023  0.0637 -0.8642
 7410TIP3    H143645   6.439   3.468  14.251  0.5125  0.0511 -1.4914
 7410TIP3    H243646   6.352   3.344  14.255  1.1555 -0.3813 -0.0466
 7411TIP3   OH243647   4.720   0.379  14.056 -0.0189  0.1847 -0.3340
 7411TIP3    H143648   4.744   0.468  14.031  0.1670  0.0399 -0.6897
 7411TIP3    H243649   4.803   0.336  14.076 -0.1079  0.0916 -0.1612
 7412TIP3   OH243650   4.022   5.121  12.880  0.4762 -0.5959  0.6195
 7412TIP3    H143651   4.088   5.052  12.885 -0.0393 -1.5775 -2.9229
 7412TIP3    H243652   3.939   5.074  12.879  0.1436 -0.2229 -2.7728
 7413TIP3   OH243653   1.324   4.812   3.669  0.0353 -0.0797 -0.2657
 7413TIP3    H143654   1.238   4.851   3.651  0.1213  0.3781  0.3067
 7413TIP3    H243655   1.347   4.768   3.587 -1.6389 -1.9565  0.1784
 7414TIP3   OH243656   0.969   6.295  10.798 -0.0796  0.4319  0.4530
 7414TIP3    H143657   0.935   6.299  10.887 -0.8865 -0.4273  0.2113
 7414TIP3    H243658   0.891   6.294  10.742  0.3771  0.0299 -0.2081
 7415TIP3   OH243659   5.978   4.010   5.238 -0.0901 -0.3053 -0.0543
 7415TIP3    H143660   5.932   4.032   5.158  0.3821 -1.8854 -0.7915
 7415TIP3    H243661   6.070   4.004   5.212  0.0476 -0.9895  0.5618
 7416TIP3   OH243662   0.428   6.263  16.587  0.0516  0.4930  0.4345
 7416TIP3    H143663   0.339   6.299  16.593  0.3132  1.2667 -0.1382
 7416TIP3    H243664   0.454   6.247  16.677 -1.1052 -0.8435  0.5646
 7417TIP3   OH243665   3.036   1.761  13.140  0.2259 -0.1447  0.1348
 7417TIP3    H143666   2.956   1.789  13.184 -0.2764  0.8955 -1.3698
 7417TIP3    H243667   3.016   1.768  13.047  2.2250  0.5950 -0.2841
 7418TIP3   OH243668   2.003   5.603   5.406 -0.1392 -0.2977 -0.2266
 7418TIP3    H143669   1.984   5.629   5.316  1.2231  1.1822 -0.1433
 7418TIP3    H243670   2.044   5.517   5.398 -1.6483 -0.9867 -0.8403
 7419TIP3   OH243671   2.166   3.217   3.643 -0.0481  0.9624 -0.2818
 7419TIP3    H143672   2.099   3.272   3.682  1.4288  2.1313  0.7326
 7419TIP3    H243673   2.195   3.266   3.566 -3.4436 -1.6478 -3.5650
 7420TIP3   OH243674   4.801   1.809   4.919  0.0461  0.1848  0.6986
 7420TIP3    H143675   4.835   1.738   4.974 -1.4047 -1.3171 -0.2360
 7420TIP3    H243676   4.830   1.786   4.830  0.0486  1.0875  0.4574
 7421TIP3   OH243677   0.159   4.736  14.849  0.3846 -0.3982 -0.1368
 7421TIP3    H143678   0.076   4.711  14.809 -0.2592  2.3011 -0.6302
 7421TIP3    H243679   0.140   4.816  14.897  2.4638 -0.3678  0.7492
 7422TIP3   OH243680   0.465   3.907  12.389  0.4787  0.4232 -1.0345
 7422TIP3    H143681   0.471   3.819  12.425 -2.1664  0.8973  0.8626
 7422TIP3    H243682   0.402   3.899  12.317  0.7183  0.6407 -1.2678
 7423TIP3   OH243683   3.268   1.445   0.353  0.0255  0.0556  0.9174
 7423TIP3    H143684   3.183   1.448   0.310  0.6477 -2.4230 -0.6732
 7423TIP3    H243685   3.253   1.487   0.438 -2.3497  1.1021  0.0724
 7424TIP3   OH243686   6.077   4.471  14.611  0.5651 -0.6404  0.4566
 7424TIP3    H143687   6.032   4.388  14.627 -0.5268  0.0064  0.9056
 7424TIP3    H243688   6.096   4.504  14.699  2.8158 -1.3322  0.2815
 7425TIP3   OH243689   0.941   1.602   5.019 -0.5237 -0.3470 -0.2940
 7425TIP3    H143690   0.964   1.518   5.058  0.8551 -2.0853 -4.3111
 7425TIP3    H243691   1.021   1.631   4.975 -1.2735  2.5934  0.0573
 7426TIP3   OH243692   1.235   4.132   4.996 -0.4621  0.2923 -0.5336
 7426TIP3    H143693   1.204   4.215   5.032  1.4967  0.3533  1.1608
 7426TIP3    H243694   1.175   4.066   5.032 -1.1086  0.7913 -0.6744
 7427TIP3   OH243695   0.651   1.752  12.907 -0.1465  0.0633  0.2856
 7427TIP3    H143696   0.556   1.750  12.895 -0.0785 -0.9239 -0.1690
 7427TIP3    H243697   0.672   1.845  12.915 -1.2661  0.2638  1.3696
 7428TIP3   OH243698   0.488   3.466  14.770  0.4705 -0.4605 -0.1676
 7428TIP3    H143699   0.536   3.493  14.692  0.5424 -0.0234  0.0274
 7428TIP3    H243700   0.403   3.509  14.762  0.9374  0.6461  0.6389
 7429TIP3   OH243701   0.976   6.070   4.510  0.1176 -0.1986 -0.5874
 7429TIP3    H143702   0.999   6.083   4.602  0.8001 -0.8315 -0.6635
 7429TIP3    H243703   0.894   6.118   4.500 -0.3260 -0.6777  0.5182
 7430TIP3   OH243704   1.075   6.395   2.934  0.2475  0.5339  0.0719
 7430TIP3    H143705   1.016   6.457   2.976  1.3854  0.9790  1.0701
 7430TIP3    H243706   1.154   6.397   2.988  0.4516 -1.5089 -0.0841
 7431TIP3   OH243707   5.102   6.157   4.457  0.0691 -0.1680 -0.1323
 7431TIP3    H143708   5.161   6.222   4.494 -0.4812  0.3640 -0.1621
 7431TIP3    H243709   5.102   6.175   4.363 -1.6718  1.1899  0.0625
 7432TIP3   OH243710   0.085   0.007   1.990  0.2292  0.3174 -0.3975
 7432TIP3    H143711   0.015  -0.045   2.030  0.0767  1.6636  1.1903
 7432TIP3    H243712   0.081   0.091   2.035  1.9660  0.9174 -1.2812
 7433TIP3   OH243713   5.179   2.411   4.632 -0.6231 -0.2935 -0.4466
 7433TIP3    H143714   5.199   2.503   4.644 -1.0439 -0.0271 -1.7087
 7433TIP3    H243715   5.161   2.378   4.721 -0.0816  0.7296  0.0509
 7434TIP3   OH243716   3.533   2.147  11.544  0.0108 -0.1246  0.3210
 7434TIP3    H143717   3.444   2.129  11.514  0.6200 -1.9244 -0.5969
 7434TIP3    H243718   3.523   2.175  11.635 -1.5059 -0.0833  0.1614
 7435TIP3   OH243719   1.140   5.075   0.456  0.2436  0.0486  0.1812
 7435TIP3    H143720   1.058   5.114   0.425  0.3779 -0.7018 -1.1879
 7435TIP3    H243721   1.186   5.148   0.498 -0.7786  0.6648  0.2778
 7436TIP3   OH243722   4.470   6.642   3.810  0.1252 -0.1514  0.0382
 7436TIP3    H143723   4.418   6.562   3.808 -4.8635  2.6457  0.7658
 7436TIP3    H243724   4.488   6.656   3.903 -2.1068  1.1394  0.3425
 7437TIP3   OH243725   5.489   6.128   0.373  0.1937  0.0539 -0.2055
 7437TIP3    H143726   5.516   6.044   0.409  1.4905  0.4830 -0.1193
 7437TIP3    H243727   5.569   6.181   0.374 -0.7132  1.4577  0.2281
 7438TIP3   OH243728   0.242   3.898   2.834  0.2390  0.0187 -0.5756
 7438TIP3    H143729   0.315   3.959   2.846  1.9324 -1.9958  0.0491
 7438TIP3    H243730   0.247   3.872   2.742  1.1476 -1.0297 -0.2597
 7439TIP3   OH243731   0.725   3.272   0.664 -0.2736  0.1915  0.0584
 7439TIP3    H143732   0.764   3.333   0.727  0.5261 -0.0492 -0.1840
 7439TIP3    H243733   0.716   3.324   0.584 -2.1808  0.7746  0.6117
 7440TIP3   OH243734   6.420   6.620   4.746  0.3650  0.7036 -0.1527
 7440TIP3    H143735   6.387   6.536   4.715 -0.3533  0.4571  1.1956
 7440TIP3    H243736   6.358   6.684   4.714 -0.5936  0.4100  1.0153
 7441TIP3   OH243737   6.267   2.218   5.060  0.5729 -0.4614 -0.4462
 7441TIP3    H143738   6.212   2.255   4.990  0.5318 -0.2535 -0.3059
 7441TIP3    H243739   6.338   2.174   5.014  1.0125  0.3979 -0.6066
 7442TIP3   OH243740   1.827   1.363  13.888  0.2567 -0.0419 -0.2341
 7442TIP3    H143741   1.869   1.431  13.941  0.5026 -0.5485  0.2269
 7442TIP3    H243742   1.845   1.388  13.797 -0.0924  0.7845 -0.0879
 7443TIP3   OH243743   0.347   0.005   4.563  0.1633 -0.2495  0.0997
 7443TIP3    H143744   0.320   0.027   4.473  1.2172  1.2827  0.1243
 7443TIP3    H243745   0.425  -0.048   4.552 -0.5195 -1.2838  0.1077
 7444TIP3   OH243746   0.133   0.220  16.795  0.0269 -0.3017  0.1798
 7444TIP3    H143747   0.095   0.284  16.855  1.1644  0.6232 -0.0512
 7444TIP3    H243748   0.208   0.265  16.756  1.0799 -1.8990  0.2561
 7445TIP3   OH243749   1.059   0.133   4.722 -0.5276  1.2198  0.2781
 7445TIP3    H143750   1.001   0.178   4.661 -0.1496  0.3346 -0.7685
 7445TIP3    H243751   1.003   0.114   4.798 -1.4186  1.0000 -0.4173
 7446TIP3   OH243752   4.059   2.647   1.713  0.8049  0.1600  0.7075
 7446TIP3    H143753   4.133   2.655   1.653  1.7354  1.4996  1.9810
 7446TIP3    H243754   4.016   2.733   1.711 -1.3871 -0.8658 -0.7670
 7447TIP3   OH243755   2.113   6.038   6.296 -0.2571  0.1552  0.6158
 7447TIP3    H143756   2.096   5.968   6.360  0.4441  0.0099  0.6506
 7447TIP3    H243757   2.196   6.077   6.325  0.0529  0.1136 -0.1826
 7448TIP3   OH243758   1.783   5.672   4.678 -0.4397 -0.1063 -0.2166
 7448TIP3    H143759   1.801   5.716   4.594 -1.4204 -0.0195 -0.3976
 7448TIP3    H243760   1.774   5.580   4.655 -0.0901 -0.1721 -0.1005
 7449TIP3   OH243761   4.505   0.914  13.155 -0.5266 -0.0516 -0.4142
 7449TIP3    H143762   4.583   0.859  13.153 -0.4982  0.0023 -0.9952
 7449TIP3    H243763   4.432   0.852  13.144 -0.5302 -0.0400 -0.4579
 7450TIP3   OH243764   1.073   2.476   2.123 -0.4018 -0.1298 -0.3587
 7450TIP3    H143765   1.025   2.414   2.178  1.9087 -1.1003  0.6810
 7450TIP3    H243766   1.028   2.559   2.136 -1.2853 -0.8095  1.2210
 7451TIP3   OH243767   6.175   3.523   2.206 -0.5602  0.1916 -0.0668
 7451TIP3    H143768   6.161   3.428   2.205 -0.3825  0.1623  0.1053
 7451TIP3    H243769   6.173   3.549   2.114  0.9978 -0.2218 -0.2579
 7452TIP3   OH243770   4.439   5.936   2.571  0.0192 -0.1870  0.3118
 7452TIP3    H143771   4.503   5.879   2.529 -0.0137 -1.3204  1.7583
 7452TIP3    H243772   4.434   5.906   2.661 -1.6953  0.6306  0.5382
 7453TIP3   OH243773   3.786   5.268  13.876  0.1989  0.3632  0.0164
 7453TIP3    H143774   3.724   5.339  13.892 -0.4391  0.1836 -1.5139
 7453TIP3    H243775   3.791   5.262  13.781  0.3756 -1.5457  0.1216
 7454TIP3   OH243776   0.080   4.202  16.245  0.2532 -0.1057 -0.0271
 7454TIP3    H143777   0.121   4.172  16.326  1.4197  2.8740  0.5958
 7454TIP3    H243778  -0.014   4.193  16.262  0.3784  1.8912  2.3908
 7455TIP3   OH243779   6.169   0.990  10.872  0.0975  0.2941  0.5436
 7455TIP3    H143780   6.118   1.063  10.837 -0.1012 -0.2643 -0.3682
 7455TIP3    H243781   6.238   0.975  10.807 -0.0477 -0.5142  0.5553
 7456TIP3   OH243782   3.950   0.269   3.005  0.1980  0.0911 -0.1368
 7456TIP3    H143783   3.855   0.270   3.020  0.3363 -1.1072  0.9915
 7456TIP3    H243784   3.959   0.249   2.912 -0.6734 -1.5921  0.0959
 7457TIP3   OH243785   3.866   1.343  14.248 -0.4214 -0.4477  0.2190
 7457TIP3    H143786   3.830   1.258  14.276 -0.6914  0.1613  1.8295
 7457TIP3    H243787   3.943   1.355  14.303  0.0801 -0.0067 -0.5662
 7458TIP3   OH243788   5.422   2.778   0.681  0.1057  0.1404 -0.4782
 7458TIP3    H143789   5.492   2.721   0.712 -0.8335 -0.6457  0.2381
 7458TIP3    H243790   5.367   2.721   0.627 -0.2571  0.6275 -0.6282
 7459TIP3   OH243791   3.180   6.188   4.030  0.6654 -0.6580  0.0453
 7459TIP3    H143792   3.153   6.271   3.991  1.7303 -0.7158 -0.8380
 7459TIP3    H243793   3.100   6.136   4.031  0.1618  0.0887 -0.1123
 7460TIP3   OH243794   4.956   3.434   1.730  0.4073 -0.0006 -0.0561
 7460TIP3    H143795   4.917   3.510   1.687  2.8589  0.7283 -1.1684
 7460TIP3    H243796   4.990   3.380   1.658 -0.2661 -1.5971  0.7692
 7461TIP3   OH243797   3.758   4.303  15.086  0.6520  0.2680  0.2494
 7461TIP3    H143798   3.845   4.284  15.051  0.5943 -1.6918  1.0361
 7461TIP3    H243799   3.698   4.274  15.018  0.6054  0.6549  0.1272
 7462TIP3   OH243800   2.097   6.038  16.046  0.2606  0.3415 -0.5173
 7462TIP3    H143801   2.014   6.025  16.093  0.1437 -2.0538 -1.2416
 7462TIP3    H243802   2.156   5.973  16.084  1.2825  0.8205 -1.2425
 7463TIP3   OH243803   5.596   3.692   4.389  0.3243  0.3003 -0.6459
 7463TIP3    H143804   5.535   3.630   4.429  0.3831  0.8986  0.4080
 7463TIP3    H243805   5.604   3.662   4.298 -2.5955  0.9983 -1.2302
 7464TIP3   OH243806   3.154   2.868  15.784 -0.3832 -0.1108 -0.3097
 7464TIP3    H143807   3.117   2.923  15.715  0.0127  0.3314 -0.1723
 7464TIP3    H243808   3.228   2.918  15.818  0.5123 -1.0958 -0.7540
 7465TIP3   OH243809   1.727   4.384  11.618  0.2107  0.2588  0.0285
 7465TIP3    H143810   1.635   4.411  11.614  0.0691 -0.2585 -0.2716
 7465TIP3    H243811   1.761   4.401  11.530  0.5293  0.8631  0.2575
 7466TIP3   OH243812   2.317   3.510  11.367  0.5279 -0.1934  0.1555
 7466TIP3    H143813   2.260   3.586  11.375  1.2666  0.4553 -0.5077
 7466TIP3    H243814   2.272   3.452  11.305 -0.7333 -0.9907  1.7604
 7467TIP3   OH243815   2.241   6.251   3.963 -0.3030  0.3318 -0.4280
 7467TIP3    H143816   2.173   6.279   3.901 -0.2381 -1.4800 -1.3640
 7467TIP3    H243817   2.240   6.156   3.959  0.5840  0.1985  1.4543
 7468TIP3   OH243818   3.115   4.983   4.727  0.2904 -0.0588 -0.4251
 7468TIP3    H143819   3.177   4.933   4.675  0.1486 -0.5875 -0.0974
 7468TIP3    H243820   3.169   5.047   4.774  0.6940 -0.9570  0.3796
 7469TIP3   OH243821   0.823   6.397   3.659 -0.6008  0.3515 -0.5617
 7469TIP3    H143822   0.733   6.376   3.682 -0.4019 -0.4894 -0.5113
 7469TIP3    H243823   0.845   6.472   3.714 -0.9834  0.0075  0.0762
 7470TIP3   OH243824   4.604   4.137  11.407 -0.6238  0.0182  0.4926
 7470TIP3    H143825   4.659   4.215  11.395  1.5593 -1.0082  2.9202
 7470TIP3    H243826   4.629   4.103  11.492 -2.2615 -2.8000 -0.0327
 7471TIP3   OH243827   4.272   1.321   1.572  0.1138 -0.5222  0.2753
 7471TIP3    H143828   4.339   1.389   1.561  1.6494 -2.1973 -1.3624
 7471TIP3    H243829   4.194   1.358   1.530  1.0447  0.0640 -0.9997
 7472TIP3   OH243830   5.407   2.113   2.215 -0.0137  0.2789 -0.4242
 7472TIP3    H143831   5.455   2.186   2.176  1.0242  1.5622  2.9251
 7472TIP3    H243832   5.336   2.153   2.264 -1.1602 -1.2207 -0.7754
 7473TIP3   OH243833   2.464   1.282  13.547 -0.2777 -0.1076 -0.2356
 7473TIP3    H143834   2.544   1.319  13.511  0.0973  0.0255  0.7005
 7473TIP3    H243835   2.493   1.223  13.617 -0.9568 -0.7213 -0.4548
 7474TIP3   OH243836   2.231   4.469  13.048 -0.1565  0.5613  0.1830
 7474TIP3    H143837   2.239   4.431  13.135 -0.7056  0.8609  0.3669
 7474TIP3    H243838   2.304   4.431  12.998 -1.2629 -1.5151  0.0481
 7475TIP3   OH243839   3.722   6.407  14.114  0.5511  0.3977 -0.4258
 7475TIP3    H143840   3.709   6.313  14.103 -1.4418  0.6345 -0.4200
 7475TIP3    H243841   3.732   6.419  14.208 -4.6771  0.6280  0.4241
 7476TIP3   OH243842   5.941   5.321  15.235  0.0227 -0.4385  0.2146
 7476TIP3    H143843   5.995   5.380  15.288 -0.6639  1.0719 -0.7074
 7476TIP3    H243844   5.984   5.318  15.150 -0.7593 -0.0446 -0.2081
 7477TIP3   OH243845   3.321   0.585   0.208  0.8841  0.3864  0.1492
 7477TIP3    H143846   3.386   0.591   0.138 -0.2955 -0.0442 -1.0261
 7477TIP3    H243847   3.313   0.491   0.226  1.1749  0.4915  0.8787
 7478TIP3   OH243848   3.330   5.586   0.632  0.4124  0.2197 -0.3373
 7478TIP3    H143849   3.338   5.544   0.546 -1.7303 -1.2696  0.1002
 7478TIP3    H243850   3.296   5.517   0.689 -0.2600  1.7440  1.1921
 7479TIP3   OH243851   3.778   1.209   3.754  0.5333  0.0715  0.2365
 7479TIP3    H143852   3.684   1.192   3.745  0.9058 -1.9233 -0.1695
 7479TIP3    H243853   3.804   1.242   3.668  0.1454  1.0645  0.4822
 7480TIP3   OH243854   2.509   1.369  16.296  0.0275 -0.2589  0.0511
 7480TIP3    H143855   2.560   1.293  16.269 -0.9353 -0.9365  0.0847
 7480TIP3    H243856   2.554   1.443  16.256 -0.6806 -1.1202 -2.5322
 7481TIP3   OH243857   6.322   5.749  13.904  0.2545  0.2329  0.1428
 7481TIP3    H143858   6.307   5.808  13.978  1.6883  1.7843 -0.7560
 7481TIP3    H243859   6.417   5.745  13.895  0.1978 -1.9730 -0.0547
 7482TIP3   OH243860   0.385   0.670   5.006 -0.0285 -0.1723 -0.0011
 7482TIP3    H143861   0.391   0.712   5.092 -1.6407 -2.4308  1.3367
 7482TIP3    H243862   0.300   0.698   4.972  0.2081  0.0006 -0.4560
 7483TIP3   OH243863   4.866   6.684   1.588  0.1098  0.0901  0.1315
 7483TIP3    H143864   4.928   6.693   1.516  1.8719 -2.5274  1.1716
 7483TIP3    H243865   4.918   6.701   1.666 -1.7599  2.8508  0.9164
 7484TIP3   OH243866   6.736   6.620   3.152 -0.3679  0.7576  0.2557
 7484TIP3    H143867   6.719   6.618   3.247 -0.9882 -1.5125  0.1459
 7484TIP3    H243868   6.831   6.620   3.145 -0.3105  1.0880  0.8569
 7485TIP3   OH243869   2.457   3.836  16.739 -0.3551  0.4166 -0.0715
 7485TIP3    H143870   2.433   3.856  16.648  1.7243  0.2860 -0.6873
 7485TIP3    H243871   2.552   3.837  16.739 -0.3042  1.4909  2.3625
 7486TIP3   OH243872   6.257   5.478  16.349  0.0160 -0.5949 -0.4399
 7486TIP3    H143873   6.255   5.574  16.342 -0.8947 -0.3130  2.3546
 7486TIP3    H243874   6.173   5.455  16.389  0.3349 -2.5635 -0.8053
 7487TIP3   OH243875   4.433   5.488  13.218  0.0772  0.4154  0.3061
 7487TIP3    H143876   4.461   5.452  13.302 -1.5554  2.4242  1.7924
 7487TIP3    H243877   4.343   5.458  13.208  0.4534 -0.3653 -1.1257
 7488TIP3   OH243878   2.115   5.576  14.701 -0.5752  0.2944 -0.8439
 7488TIP3    H143879   2.132   5.647  14.638  1.5648 -0.3564 -1.0511
 7488TIP3    H243880   2.191   5.576  14.759 -1.9042  0.0211  1.0008
 7489TIP3   OH243881   6.776   2.521  14.984  0.3541 -0.3880 -0.6550
 7489TIP3    H143882   6.708   2.568  15.031 -2.2956 -1.5077 -3.0510
 7489TIP3    H243883   6.777   2.433  15.023  1.5512  0.0275  0.3285
 7490TIP3   OH243884   1.110   5.623  10.655  0.7110 -0.4405 -0.4656
 7490TIP3    H143885   1.045   5.624  10.585  0.1424 -0.7122  0.0473
 7490TIP3    H243886   1.099   5.708  10.698  0.8853 -0.3737 -0.5557
 7491TIP3   OH243887   6.635   0.868   0.023  0.0744 -0.5294 -0.6444
 7491TIP3    H143888   6.559   0.814   0.002 -1.1465  1.3695 -1.3794
 7491TIP3    H243889   6.676   0.824   0.098 -3.2555 -0.3053  1.5149
 7492TIP3   OH243890   2.885   5.007  14.253 -0.4703 -0.5097  0.2236
 7492TIP3    H143891   2.928   4.934  14.297  0.5873 -0.9115 -1.3975
 7492TIP3    H243892   2.914   5.084  14.300 -1.0609 -1.0573  1.5316
 7493TIP3   OH243893   3.868   2.199  11.693 -0.1048 -0.3123  0.0985
 7493TIP3    H143894   3.882   2.294  11.689  0.3854 -0.3554  0.8339
 7493TIP3    H243895   3.773   2.190  11.703 -0.4858  0.0250 -2.3568
 7494TIP3   OH243896   4.873   1.765  15.032 -0.6218 -0.0790 -0.6383
 7494TIP3    H143897   4.944   1.829  15.030  1.4397 -2.2011 -0.0438
 7494TIP3    H243898   4.870   1.735  15.123 -1.0314 -1.3330 -1.0432
 7495TIP3   OH243899   0.369   3.266  16.036 -0.2912  0.7239  0.3392
 7495TIP3    H143900   0.293   3.242  16.088  0.6099 -1.3809  0.8009
 7495TIP3    H243901   0.433   3.296  16.100 -0.2552  1.1563  0.1023
 7496TIP3   OH243902   3.208   3.455  15.930 -0.3979  0.8045 -0.0373
 7496TIP3    H143903   3.261   3.387  15.970 -0.7959  0.0648 -0.7473
 7496TIP3    H243904   3.227   3.449  15.836 -3.6115 -1.2328 -0.6894
 7497TIP3   OH243905   3.432   3.492  11.429 -0.3175  0.3377 -0.8235
 7497TIP3    H143906   3.366   3.553  11.396  1.1564  1.4714 -1.7629
 7497TIP3    H243907   3.490   3.546  11.483 -0.6957 -0.8388  0.8571
 7498TIP3   OH243908   5.932   1.968   0.120 -0.6775 -0.5282 -0.0793
 7498TIP3    H143909   5.979   1.896   0.079  0.0851 -1.5005  2.3427
 7498TIP3    H243910   5.973   2.047   0.083  0.2808 -1.3346 -0.7998
 7499TIP3   OH243911   4.734   3.214  12.129  0.6254 -0.4450 -0.6395
 7499TIP3    H143912   4.758   3.296  12.087  0.7346 -0.8179 -1.3200
 7499TIP3    H243913   4.766   3.222  12.218  0.4232  0.3464 -0.6276
 7500TIP3   OH243914   3.130   5.237   3.800  0.1960 -0.6098 -0.4934
 7500TIP3    H143915   3.074   5.274   3.732  1.4711 -0.8025 -1.6953
 7500TIP3    H243916   3.129   5.143   3.784 -2.1840 -1.1160  1.8985
 7501TIP3   OH243917   3.892   6.604  16.001 -0.5277 -0.0536  0.2237
 7501TIP3    H143918   3.945   6.577  15.926 -1.5266 -0.7255 -0.2492
 7501TIP3    H243919   3.939   6.680  16.036  0.9051 -0.7972  0.0006
 7502TIP3   OH243920   2.067   0.700  10.686 -0.6320 -0.0122 -0.4975
 7502TIP3    H143921   1.986   0.668  10.646  0.6426 -2.9740 -0.9310
 7502TIP3    H243922   2.119   0.731  10.611 -0.4299 -0.3465 -0.4952
 7503TIP3   OH243923   1.133   0.386  16.534 -0.0508  0.8434 -0.1116
 7503TIP3    H143924   1.155   0.369  16.442  1.1828 -2.1007  0.6166
 7503TIP3    H243925   1.217   0.403  16.576 -0.6833  3.0428  0.4248
 7504TIP3   OH243926   1.898   0.453  13.157  0.8402  0.3531 -0.2977
 7504TIP3    H143927   1.847   0.531  13.133 -0.0942  0.4504  1.7560
 7504TIP3    H243928   1.934   0.474  13.243  1.8888 -0.8941 -0.4097
 7505TIP3   OH243929   2.510   2.810  13.012  0.2110 -0.0741 -0.6749
 7505TIP3    H143930   2.462   2.889  13.036 -0.3965 -0.6965  0.2256
 7505TIP3    H243931   2.601   2.839  13.006  0.1355  0.5007  0.6160
 7506TIP3   OH243932   1.064   3.281  16.754  0.4501 -0.2397  0.8201
 7506TIP3    H143933   1.062   3.376  16.764  3.4877 -0.0494  0.6306
 7506TIP3    H243934   1.117   3.266  16.676 -1.4108 -2.1359 -0.1968
 7507TIP3   OH243935   1.889   3.305   2.974  0.4159  0.0370  0.1028
 7507TIP3    H143936   1.918   3.392   2.998 -1.4447  1.1761 -1.4787
 7507TIP3    H243937   1.837   3.317   2.894 -1.9080 -2.1451  1.1116
 7508TIP3   OH243938   6.447   3.124  10.976 -0.1969  0.1835  0.3531
 7508TIP3    H143939   6.528   3.150  10.930 -0.9368 -0.2145 -1.2499
 7508TIP3    H243940   6.392   3.086  10.907 -1.9166  0.8056  1.3346
 7509TIP3   OH243941   3.882   4.663   1.835 -0.1722 -1.4680 -0.1668
 7509TIP3    H143942   3.919   4.626   1.755  2.4481 -1.7948  1.0800
 7509TIP3    H243943   3.921   4.611   1.905 -0.7180  0.1401  1.4019
 7510TIP3   OH243944   0.898   1.253   1.521 -0.2904  0.4991 -0.1505
 7510TIP3    H143945   0.939   1.312   1.458 -0.7248  0.0158 -0.8982
 7510TIP3    H243946   0.857   1.312   1.584  0.3173  0.9889 -0.1970
 7511TIP3   OH243947   4.440   1.465   6.095 -0.9636 -0.6279 -0.6651
 7511TIP3    H143948   4.413   1.539   6.150 -1.0170  0.0612 -1.6123
 7511TIP3    H243949   4.494   1.411   6.154 -2.0400 -0.5664  0.4314
 7512TIP3   OH243950   2.999   6.289  13.787  0.0882 -0.6958 -0.0346
 7512TIP3    H143951   2.928   6.235  13.752 -1.2880  0.9936  0.0360
 7512TIP3    H243952   3.055   6.308  13.711 -0.1587 -1.1079 -0.3177
 7513TIP3   OH243953   4.479   5.404  15.507 -0.2057 -0.3291  0.6153
 7513TIP3    H143954   4.412   5.342  15.537  0.6810 -2.5635 -1.6419
 7513TIP3    H243955   4.531   5.354  15.444  1.6891  2.2569 -0.0332
 7514TIP3   OH243956   5.347   2.791   3.371 -0.4193 -0.2192  0.3890
 7514TIP3    H143957   5.254   2.811   3.376 -0.2821  0.0779  2.4767
 7514TIP3    H243958   5.351   2.695   3.371 -0.7236 -0.2437 -0.4398
 7515TIP3   OH243959   6.491   5.441   0.276 -0.2659  0.2751 -0.4914
 7515TIP3    H143960   6.469   5.349   0.289 -1.1743  0.4921 -0.4315
 7515TIP3    H243961   6.482   5.455   0.182 -1.7405  0.6827 -0.3157
 7516TIP3   OH243962   4.125   2.362  14.305  0.3676  0.1272 -0.0332
 7516TIP3    H143963   4.151   2.308  14.231 -0.0754 -0.0205 -0.0864
 7516TIP3    H243964   4.137   2.452  14.275 -0.0572  0.0729 -0.3800
 7517TIP3   OH243965   2.382   5.367   4.324  0.1285  0.2663  0.0807
 7517TIP3    H143966   2.460   5.362   4.268  0.1041  1.8322 -0.1456
 7517TIP3    H243967   2.333   5.442   4.290 -1.8874 -1.1230 -0.2631
 7518TIP3   OH243968   4.984   0.250  13.402  0.4608 -0.5190  0.3267
 7518TIP3    H143969   4.905   0.295  13.433  1.2035 -0.4443  2.2684
 7518TIP3    H243970   5.054   0.287  13.455  1.5470 -1.8240 -0.1575
 7519TIP3   OH243971   4.023   2.192  11.931  0.8810 -0.0920 -0.1701
 7519TIP3    H143972   4.081   2.124  11.967 -1.7701 -1.9164  1.0195
 7519TIP3    H243973   4.008   2.165  11.841 -0.0976 -1.1379  0.2719
 7520TIP3   OH243974   1.307   1.068  15.980 -0.5640  0.0126 -0.5086
 7520TIP3    H143975   1.301   1.025  16.065  0.3880 -0.1932 -0.5414
 7520TIP3    H243976   1.312   0.996  15.917  0.4205  0.1536 -0.6074
 7521TIP3   OH243977   6.697   5.838  10.914 -0.7331 -0.9382 -0.0086
 7521TIP3    H143978   6.667   5.921  10.879  0.6990 -1.2319 -2.1227
 7521TIP3    H243979   6.618   5.797  10.949 -1.7493  0.6148 -0.3652
 7522TIP3   OH243980   5.765   3.438   6.527  0.4328 -0.8150  0.2770
 7522TIP3    H143981   5.849   3.458   6.487  0.8181 -1.9435  0.4894
 7522TIP3    H243982   5.740   3.354   6.489  0.6097 -1.7179  2.0525
 7523TIP3   OH243983   0.002   0.654   5.418  0.2922 -0.0754  0.2283
 7523TIP3    H143984  -0.004   0.750   5.419  1.9257  0.1194 -1.6123
 7523TIP3    H243985  -0.064   0.625   5.481 -0.5694  2.2300  0.4922
 7524TIP3   OH243986   4.792   2.386   3.230 -0.1255  0.0236  0.2713
 7524TIP3    H143987   4.717   2.408   3.176  0.3526 -0.1468 -0.4931
 7524TIP3    H243988   4.812   2.295   3.207  1.0834  0.4571 -0.5030
 7525TIP3   OH243989   0.757   5.020   5.351 -0.0911  0.3821 -0.5207
 7525TIP3    H143990   0.694   4.988   5.287 -1.4514  2.6713 -0.4426
 7525TIP3    H243991   0.831   5.051   5.299 -0.3312  0.4327 -0.8293
 7526TIP3   OH243992   5.205   5.555   1.547 -0.0456 -0.2120 -0.0775
 7526TIP3    H143993   5.185   5.582   1.457 -1.7568 -3.1274 -0.7271
 7526TIP3    H243994   5.133   5.590   1.599  0.0210  0.0206 -0.1401
 7527TIP3   OH243995   0.630   0.752  13.793 -0.1938  0.0369 -0.4628
 7527TIP3    H143996   0.662   0.828  13.841 -0.5904  0.0331 -0.1871
 7527TIP3    H243997   0.635   0.680  13.856 -3.8834  0.6512  0.7953
 7528TIP3   OH243998   6.540   1.461   5.714 -0.4375 -0.3399 -0.5787
 7528TIP3    H143999   6.545   1.511   5.796 -0.5613  0.3510 -0.9798
 7528TIP3    H244000   6.452   1.423   5.715 -1.1327  1.1424 -1.1986
 7529TIP3   OH244001   3.202   0.329  15.238  0.0732  0.0608 -0.0316
 7529TIP3    H144002   3.120   0.342  15.285 -0.8538  1.5796 -1.9413
 7529TIP3    H244003   3.269   0.359  15.298 -0.5757 -2.1844  1.9849
 7530TIP3   OH244004   0.672   6.014   0.301 -0.5242  0.1575 -0.5515
 7530TIP3    H144005   0.763   6.011   0.328 -0.4049 -0.0827 -0.9677
 7530TIP3    H244006   0.673   6.060   0.217 -0.5496 -1.4092 -1.4550
 7531TIP3   OH244007   3.473   2.136  10.354  0.7501 -0.0170  0.2923
 7531TIP3    H144008   3.390   2.144  10.402  0.3962  4.4427 -0.6696
 7531TIP3    H244009   3.534   2.193  10.400  1.4328  1.6091 -2.3846
 7532TIP3   OH244010   0.465   1.231   3.054 -0.3295 -0.4566 -0.1790
 7532TIP3    H144011   0.519   1.153   3.069  0.2924 -0.0811 -0.4330
 7532TIP3    H244012   0.524   1.293   3.013 -0.1745  0.9966  2.0578
 7533TIP3   OH244013   1.593   6.116   2.743 -0.4902 -0.4295  0.1161
 7533TIP3    H144014   1.534   6.166   2.687  0.0165 -0.7575 -0.7352
 7533TIP3    H244015   1.630   6.050   2.685  0.9494 -0.0331  0.5578
 7534TIP3   OH244016   6.402   2.332  11.495  0.1063  0.0866  0.3279
 7534TIP3    H144017   6.445   2.417  11.493  0.7087 -0.1780  1.3099
 7534TIP3    H244018   6.435   2.287  11.417 -0.4770  0.8622 -0.3762
 7535TIP3   OH244019   6.255   4.013  11.809 -0.5475 -0.0085  0.2487
 7535TIP3    H144020   6.335   4.055  11.777 -0.7682 -0.4752 -0.9932
 7535TIP3    H244021   6.188   4.080  11.800 -0.7267 -0.3188 -0.8941
 7536TIP3   OH244022   0.757   2.366   0.929  0.2275  0.3679 -0.7289
 7536TIP3    H144023   0.678   2.417   0.945  0.2706  0.0660  0.5619
 7536TIP3    H244024   0.725   2.278   0.912  0.3043 -0.1854  1.6319
 7537TIP3   OH244025   4.211   1.528  11.382 -0.2847 -0.7603 -0.4746
 7537TIP3    H144026   4.145   1.595  11.399 -0.4549 -1.1672  0.5899
 7537TIP3    H244027   4.213   1.519  11.287  0.2001  1.1968 -0.6933
 7538TIP3   OH244028   2.896   3.124  16.106 -0.1781 -0.2215 -0.7083
 7538TIP3    H144029   2.838   3.198  16.087  0.6382  0.7503  0.3521
 7538TIP3    H244030   2.876   3.059  16.039 -1.2141  0.7995 -1.4325
 7539TIP3   OH244031   5.468   4.883  10.572 -0.5937  0.3294 -0.3082
 7539TIP3    H144032   5.384   4.922  10.598 -1.3214  0.6454 -2.9271
 7539TIP3    H244033   5.461   4.791  10.599 -1.2583  0.6140  0.5595
 7540TIP3   OH244034   1.480   5.052  11.227  0.5171 -0.2524 -0.1614
 7540TIP3    H144035   1.408   4.999  11.192  0.7680  0.4537 -1.8206
 7540TIP3    H244036   1.445   5.141  11.231  0.0780 -0.4504  2.6656
 7541TIP3   OH244037   1.463   4.747  14.664  1.0547 -0.0293  0.0501
 7541TIP3    H144038   1.482   4.819  14.725  2.5454 -0.5571  0.2464
 7541TIP3    H244039   1.389   4.779  14.612  2.3835  2.1565 -0.6434
 7542TIP3   OH244040   1.497   4.234  11.735  0.3954 -0.1392 -0.6802
 7542TIP3    H144041   1.453   4.318  11.724 -0.2471 -0.3157  0.4326
 7542TIP3    H244042   1.437   4.182  11.789  1.6993 -0.5961  0.3629
 7543TIP3   OH244043   0.408   6.241  13.366  0.2846 -0.0989 -0.7272
 7543TIP3    H144044   0.384   6.168  13.309 -1.2109 -1.4790  1.5154
 7543TIP3    H244045   0.375   6.319  13.321 -2.0482 -1.2649 -1.1973
 7544TIP3   OH244046   1.640   2.634  16.586  0.2338 -0.1928 -0.7171
 7544TIP3    H144047   1.574   2.686  16.541  1.4378  1.6420 -0.4317
 7544TIP3    H244048   1.717   2.638  16.530  1.5276  1.5291  1.0515
 7545TIP3   OH244049   0.597   1.578   0.229  0.0193  0.6314 -0.7937
 7545TIP3    H144050   0.611   1.541   0.142  0.1330 -1.0635 -0.0803
 7545TIP3    H244051   0.612   1.506   0.290 -0.0837  1.7667  0.6532
 7546TIP3   OH244052   2.450   5.455   4.776 -0.1994 -0.0671 -0.3879
 7546TIP3    H144053   2.489   5.479   4.860 -1.0737  1.3035 -0.3468
 7546TIP3    H244054   2.432   5.538   4.733 -3.1697 -0.5507 -0.3314
 7547TIP3   OH244055   2.362   4.720   1.889 -0.3424 -0.2441 -0.3881
 7547TIP3    H144056   2.338   4.811   1.869 -0.8853 -0.4048 -0.4838
 7547TIP3    H244057   2.349   4.674   1.806  0.9397 -0.2171 -0.6244
 7548TIP3   OH244058   1.441   5.678   5.332 -0.0922  0.1613  0.8862
 7548TIP3    H144059   1.532   5.667   5.359  0.0464 -2.4149 -0.3653
 7548TIP3    H244060   1.401   5.727   5.403  2.1924  1.1624  1.5772
 7549TIP3   OH244061   5.499   1.326  16.068 -0.3847 -0.0790  0.2631
 7549TIP3    H144062   5.495   1.390  16.139  0.8086 -0.1211  0.3863
 7549TIP3    H244063   5.569   1.357  16.010 -0.6269 -0.6081 -0.3336
 7550TIP3   OH244064   3.223   2.726  13.929 -0.3579 -0.4601 -0.2248
 7550TIP3    H144065   3.189   2.810  13.962 -0.2386  0.0582 -1.3622
 7550TIP3    H244066   3.170   2.709  13.851  0.3754 -0.8782 -0.6330
 7551TIP3   OH244067   3.720   0.573   3.185 -0.2621  0.4703  0.5559
 7551TIP3    H144068   3.633   0.609   3.169 -0.2093  0.9255  1.2465
 7551TIP3    H244069   3.718   0.485   3.146 -0.8054  0.7335 -0.0230
 7552TIP3   OH244070   0.380   5.674   4.749  0.1109 -0.4851  0.3717
 7552TIP3    H144071   0.453   5.708   4.696  1.2337 -0.8287  1.6434
 7552TIP3    H244072   0.398   5.580   4.757 -0.8500 -0.6973  0.1501
 7553TIP3   OH244073   4.144   0.813  14.997 -0.5062  0.4869 -0.2316
 7553TIP3    H144074   4.069   0.789  14.942  1.4325 -1.2430 -2.3060
 7553TIP3    H244075   4.152   0.908  14.988 -1.0617  0.4089 -1.8910
 7554TIP3   OH244076   0.447   4.308   0.531 -0.0326 -0.0231  0.2935
 7554TIP3    H144077   0.542   4.319   0.528 -0.1417  0.9030 -0.0043
 7554TIP3    H244078   0.431   4.262   0.613  0.8683 -2.3900 -0.7760
 7555TIP3   OH244079   4.553   3.036  15.782 -0.0165  0.0275  0.1300
 7555TIP3    H144080   4.620   2.976  15.749  1.0106  2.5321 -2.7797
 7555TIP3    H244081   4.524   2.997  15.864  3.6925 -2.1226  0.6009
 7556TIP3   OH244082   2.222   4.158  15.771  0.2498  0.6843 -0.1818
 7556TIP3    H144083   2.165   4.235  15.766 -1.8581 -0.8192 -0.5467
 7556TIP3    H244084   2.264   4.155  15.685 -1.9546 -0.1641 -1.3189
 7557TIP3   OH244085   5.223   0.469   3.468 -0.5067 -0.1758  0.3107
 7557TIP3    H144086   5.204   0.416   3.390 -2.3730  0.9031 -0.0303
 7557TIP3    H244087   5.176   0.425   3.538 -3.1819  1.5865 -0.2154
 7558TIP3   OH244088   5.479   3.663  16.962  0.1525 -0.2494  0.1801
 7558TIP3    H144089   5.561   3.652  17.010 -0.1203  0.5119  0.8293
 7558TIP3    H244090   5.423   3.592  16.994 -0.0833  0.3487  1.1247
 7559TIP3   OH244091   3.257   0.982  15.102 -0.0930 -0.3014 -0.6437
 7559TIP3    H144092   3.221   0.893  15.109 -0.7601 -0.0550 -0.8336
 7559TIP3    H244093   3.334   0.981  15.158 -0.4297 -0.8334 -0.1765
 7560TIP3   OH244094   5.313   3.360  12.132  0.3273  0.1224  0.3670
 7560TIP3    H144095   5.362   3.407  12.199  1.3437 -1.5933  0.8855
 7560TIP3    H244096   5.327   3.410  12.052  0.5315  1.2316  1.0745
 7561TIP3   OH244097   6.111   5.713  14.927 -0.3988  0.0549 -0.0239
 7561TIP3    H144098   6.046   5.643  14.927 -0.3162 -0.0359  0.8674
 7561TIP3    H244099   6.083   5.772  14.858  0.5908 -1.8009 -2.1347
 7562TIP3   OH244100   1.236   3.380  15.772 -0.3798  0.3047 -0.4015
 7562TIP3    H144101   1.197   3.450  15.824 -1.0379 -0.4452  0.1268
 7562TIP3    H244102   1.312   3.421  15.731 -0.2602  1.1050  0.5759
 7563TIP3   OH244103   3.134   6.337  14.941  0.7203 -0.2371 -0.9357
 7563TIP3    H144104   3.221   6.348  14.902  0.7692  1.4349 -0.4520
 7563TIP3    H244105   3.128   6.244  14.963  2.4282 -0.3572 -0.8777
 7564TIP3   OH244106   4.566   2.390  11.297  0.1684 -0.3353  0.4698
 7564TIP3    H144107   4.585   2.454  11.228 -0.8543 -0.7749 -0.2423
 7564TIP3    H244108   4.490   2.342  11.265 -0.8564 -0.0055  2.2723
 7565TIP3   OH244109   1.036   5.788  12.550  0.1590 -0.5087  0.2800
 7565TIP3    H144110   0.945   5.802  12.577 -0.6669 -2.1636 -1.4056
 7565TIP3    H244111   1.041   5.823  12.461  0.6327 -2.0019 -0.3269
 7566TIP3   OH244112   0.938   5.930  11.325  0.2651  0.0487  0.7602
 7566TIP3    H144113   0.905   5.938  11.236  0.3627  2.1016  0.8579
 7566TIP3    H244114   1.013   5.871  11.318  1.6146  1.8458 -0.9621
 7567TIP3   OH244115   2.174   3.032  12.465  0.1037 -0.1371  0.2341
 7567TIP3    H144116   2.150   2.948  12.504  1.6862 -0.9410 -0.4299
 7567TIP3    H244117   2.105   3.049  12.400 -0.2374 -0.9054  0.3813
 7568TIP3   OH244118   0.655   0.560   0.834 -0.0136 -0.3156 -0.0081
 7568TIP3    H144119   0.705   0.482   0.809  0.8372  0.3191 -0.3458
 7568TIP3    H244120   0.683   0.578   0.924 -0.4419 -0.5653  0.1804
 7569TIP3   OH244121   3.795   0.082  17.174 -0.4339 -0.1274 -0.0068
 7569TIP3    H144122   3.816   0.149  17.239 -1.0201  0.2295 -0.1800
 7569TIP3    H244123   3.831   0.116  17.092  0.3883 -0.6208  0.1354
 7570TIP3   OH244124   2.437   2.891   4.417 -0.0857 -0.1136 -0.4133
 7570TIP3    H144125   2.357   2.849   4.383 -1.2315  0.7636  1.0559
 7570TIP3    H244126   2.430   2.982   4.388 -0.4459  0.3417  1.0465
 7571TIP3   OH244127   5.515   0.535   0.474  0.0096  0.4537 -0.8809
 7571TIP3    H144128   5.537   0.464   0.534 -0.9605  0.6789 -0.2403
 7571TIP3    H244129   5.570   0.608   0.503 -0.8608  0.7387  0.1331
 7572TIP3   OH244130   6.563   5.075   6.529 -0.0731 -0.7588  0.0641
 7572TIP3    H144131   6.650   5.051   6.498  0.8977  1.6975  0.7103
 7572TIP3    H244132   6.520   5.114   6.454 -0.5484 -1.6663 -0.1609
 7573TIP3   OH244133   3.844   6.383  10.686 -0.3339 -0.6492 -0.0827
 7573TIP3    H144134   3.917   6.360  10.629 -0.9267 -0.9577 -0.7280
 7573TIP3    H244135   3.795   6.301  10.697 -1.1984 -0.2152 -0.5696
 7574TIP3   OH244136   5.204   4.828   3.109 -0.1553  0.4027 -0.2904
 7574TIP3    H144137   5.249   4.876   3.179 -0.4447  0.5079 -0.1710
 7574TIP3    H244138   5.241   4.863   3.028 -0.9448  1.4428 -0.2286
 7575TIP3   OH244139   1.498   6.716   5.918  0.0000  0.6060  0.3268
 7575TIP3    H144140   1.562   6.664   5.868 -0.4593 -0.0227  0.3712
 7575TIP3    H244141   1.542   6.799   5.935  0.3068  0.6994 -0.8143
 7576TIP3   OH244142   3.250   2.167  11.507 -0.1010 -0.5916 -0.1331
 7576TIP3    H144143   3.221   2.242  11.455  0.9894  0.7695  1.1314
 7576TIP3    H244144   3.247   2.093  11.446  0.9479  0.8846 -2.1068
 7577TIP3   OH244145   6.038   0.851  12.808  0.0129 -0.3948  0.0620
 7577TIP3    H144146   6.011   0.799  12.883  0.8805 -0.3933  0.3860
 7577TIP3    H244147   6.131   0.828  12.795  0.0861  0.1933 -0.5131
 7578TIP3   OH244148   6.303   4.725  13.619 -0.0857  0.3618 -0.4632
 7578TIP3    H144149   6.298   4.655  13.684 -2.3759  0.3687 -0.5314
 7578TIP3    H244150   6.283   4.805  13.669  0.2402  0.6540 -0.7983
 7579TIP3   OH244151   0.746   0.703   5.667  0.1855  0.0372  0.8601
 7579TIP3    H144152   0.699   0.620   5.665  2.3587 -1.2605 -1.4125
 7579TIP3    H244153   0.683   0.766   5.631  0.0046 -1.6050 -1.9982
 7580TIP3   OH244154   2.918   1.421   4.121 -0.3592  0.0763  0.4813
 7580TIP3    H144155   2.988   1.400   4.184  0.2935 -0.7600 -0.4866
 7580TIP3    H244156   2.953   1.494   4.070 -0.4543  0.0646  0.4004
 7581TIP3   OH244157   5.023   2.707  14.283 -0.7062 -0.1627  0.0502
 7581TIP3    H144158   5.073   2.657  14.346  0.4330  1.2133  0.2707
 7581TIP3    H244159   4.978   2.774  14.334 -1.0357 -0.0299 -0.4009
 7582TIP3   OH244160   4.675   3.160   5.073 -0.2230 -0.2532 -0.0593
 7582TIP3    H144161   4.629   3.081   5.104  1.1455 -0.6571  1.0209
 7582TIP3    H244162   4.623   3.233   5.108  0.4865 -0.7010  2.0564
 7583TIP3   OH244163   5.388   2.439  13.074 -0.0426  0.7312  0.0918
 7583TIP3    H144164   5.419   2.510  13.131  2.3597  2.1279 -2.6927
 7583TIP3    H244165   5.455   2.371  13.081 -1.1341 -0.2859  0.9484
 7584TIP3   OH244166   6.352   4.276   1.929 -0.0258  0.6144  0.0021
 7584TIP3    H144167   6.400   4.337   1.874 -2.1442  0.7465 -1.8577
 7584TIP3    H244168   6.361   4.311   2.018  1.0279  2.1121 -0.6580
 7585TIP3   OH244169   2.961   4.781  14.414 -0.5310 -0.2721  0.6272
 7585TIP3    H144170   2.962   4.797  14.509 -0.8510 -0.3907  0.6510
 7585TIP3    H244171   2.903   4.706  14.403 -1.0575  0.1715  0.2753
 7586TIP3   OH244172   5.207   1.719   1.006 -0.1268 -0.3892  0.0330
 7586TIP3    H144173   5.145   1.788   1.031  0.4696  1.5014 -3.1562
 7586TIP3    H244174   5.291   1.748   1.042  0.1265  0.6485 -1.3210
 7587TIP3   OH244175   0.361   5.264   0.705 -0.2803 -0.2087 -0.2507
 7587TIP3    H144176   0.368   5.356   0.730  1.8176 -0.4010  0.0936
 7587TIP3    H244177   0.450   5.229   0.717 -0.9752 -2.2319 -0.5699
 7588TIP3   OH244178   0.352   1.755   3.794  0.1374  0.2034 -0.1934
 7588TIP3    H144179   0.399   1.682   3.833  3.0407  1.1298 -1.6437
 7588TIP3    H244180   0.347   1.734   3.701  1.5444  1.9946 -0.7463
 7589TIP3   OH244181   3.314   1.948  13.585 -0.3920 -0.1597 -0.5042
 7589TIP3    H144182   3.330   1.863  13.625  0.1741 -0.2220 -0.8387
 7589TIP3    H244183   3.240   1.934  13.526  0.4838 -0.7526 -1.5103
 7590TIP3   OH244184   0.158   4.904   1.855  0.1893 -0.1730 -0.3228
 7590TIP3    H144185   0.081   4.946   1.817  0.6973  2.2347  1.0645
 7590TIP3    H244186   0.228   4.920   1.791  0.2470  0.6511 -0.0691
 7591TIP3   OH244187   2.834   0.666  15.012 -0.3961  0.6317  0.4771
 7591TIP3    H144188   2.856   0.694  14.924  0.1547 -0.4076  0.2647
 7591TIP3    H244189   2.806   0.575  15.002  1.6756 -0.1959  1.6094
 7592TIP3   OH244190   4.482   2.076   4.295 -0.0357  0.5822 -0.0784
 7592TIP3    H144191   4.539   2.148   4.324  1.8851 -1.4673  1.7075
 7592TIP3    H244192   4.454   2.101   4.208  0.9661  3.2471  0.2685
 7593TIP3   OH244193   4.678   4.543  14.429  0.3154  0.5708  0.2916
 7593TIP3    H144194   4.606   4.595  14.394  1.8799  1.5634 -1.7212
 7593TIP3    H244195   4.637   4.482  14.490 -2.2098  1.0112 -0.8399
 7594TIP3   OH244196   2.946   4.011  11.284  0.7239 -0.5096 -0.3473
 7594TIP3    H144197   2.874   4.067  11.314  0.3621 -0.9053 -0.4726
 7594TIP3    H244198   2.979   4.054  11.205  1.3787  0.2916  0.3423
 7595TIP3   OH244199   0.406   3.143   3.491 -0.3102  0.4861 -0.2816
 7595TIP3    H144200   0.321   3.187   3.481 -0.3309  0.1051 -1.9901
 7595TIP3    H244201   0.434   3.123   3.402  1.9081  1.1684  0.2079
 7596TIP3   OH244202   4.098   5.580   4.860  0.0253 -0.3678 -0.3615
 7596TIP3    H144203   4.119   5.668   4.890 -1.2571 -0.8615  2.3190
 7596TIP3    H244204   4.149   5.522   4.917  0.9163 -1.4066 -2.1386
 7597TIP3   OH244205   2.314   2.747   1.014 -0.0657  0.2904  0.2300
 7597TIP3    H144206   2.312   2.842   1.028 -0.8836  0.0484  2.0321
 7597TIP3    H244207   2.347   2.737   0.925  0.4492  2.2509  0.1456
 7598TIP3   OH244208   6.087   2.664   5.059 -0.2542 -0.3190  0.1942
 7598TIP3    H144209   6.129   2.672   5.144 -1.8081 -0.9588  1.0491
 7598TIP3    H244210   6.160   2.664   4.997  0.9815 -0.8839  1.5808
 7599TIP3   OH244211   4.173   3.467   4.333  0.2554 -0.0721  1.2177
 7599TIP3    H144212   4.250   3.491   4.384  0.9280 -0.3702  0.3802
 7599TIP3    H244213   4.154   3.545   4.280 -0.2457  0.1261  1.6793
 7600TIP3   OH244214   5.148   5.000   0.964  0.1689 -0.1060  0.3440
 7600TIP3    H144215   5.190   5.046   1.037  0.3027 -1.6368  1.2733
 7600TIP3    H244216   5.214   4.996   0.896  0.9829 -1.0001  1.1601
 7601TIP3   OH244217   5.012   3.646  12.374 -0.7012  0.1837 -0.3963
 7601TIP3    H144218   5.098   3.688  12.367 -0.1419 -0.9658 -0.7168
 7601TIP3    H244219   5.032   3.553  12.388 -1.8887  0.1895  1.7240
 7602TIP3   OH244220   4.699   2.728  12.754 -0.0224  0.3930 -0.2249
 7602TIP3    H144221   4.720   2.691  12.669 -2.2026 -1.3826 -0.0861
 7602TIP3    H244222   4.634   2.668  12.791 -0.4017  2.0189  1.9703
 7603TIP3   OH244223   4.191   3.935   0.343  0.5053  0.0627  0.4069
 7603TIP3    H144224   4.280   3.937   0.310  0.7750 -0.1592  1.0979
 7603TIP3    H244225   4.149   4.012   0.305  1.2216  0.6087  0.7017
 7604TIP3   OH244226   3.610   3.859   2.161 -0.1592 -0.3734 -0.2556
 7604TIP3    H144227   3.518   3.864   2.137 -0.0451  1.5014 -0.4876
 7604TIP3    H244228   3.641   3.777   2.122 -2.0028 -1.7220  0.9589
 7605TIP3   OH244229   0.498   0.723   3.503  0.1875  0.1686 -0.2792
 7605TIP3    H144230   0.443   0.647   3.524 -0.1760  0.3995 -0.3993
 7605TIP3    H244231   0.579   0.685   3.469  0.2708 -0.1849  0.2888
 7606TIP3   OH244232   5.037   1.849   5.764 -0.0308  0.1662 -0.1782
 7606TIP3    H144233   5.040   1.754   5.777 -1.1892 -0.2776 -2.6552
 7606TIP3    H244234   4.972   1.862   5.696 -0.0381  2.7960  0.2328
 7607TIP3   OH244235   0.941   2.217  16.511 -0.6000  0.3120  0.3978
 7607TIP3    H144236   0.894   2.142  16.546 -2.0798  1.2292  0.4396
 7607TIP3    H244237   1.032   2.187  16.505 -1.0923 -1.3567  0.7171
 7608TIP3   OH244238   0.858   5.279  16.337  0.4689  0.0881  0.4214
 7608TIP3    H144239   0.897   5.197  16.305  1.4321  0.2457  1.1457
 7608TIP3    H244240   0.881   5.281  16.430  0.7262  1.3394  0.3349
 7609TIP3   OH244241   0.177   6.582   4.506  0.4314 -0.1916  0.2742
 7609TIP3    H144242   0.201   6.662   4.552  1.6938  0.2531 -1.0836
 7609TIP3    H244243   0.138   6.613   4.424  2.3031 -0.9115 -0.9513
 7610TIP3   OH244244   5.634   1.752  11.403  0.3242 -0.0104  0.1332
 7610TIP3    H144245   5.689   1.737  11.479  1.8077 -0.3616 -0.9633
 7610TIP3    H244246   5.695   1.781  11.335 -0.6552 -1.5218 -1.4607
 7611TIP3   OH244247   2.156   4.407  17.048 -1.0323  0.3881 -0.4418
 7611TIP3    H144248   2.186   4.323  17.083  0.6810  0.7826 -0.8867
 7611TIP3    H244249   2.141   4.391  16.955 -0.6147  0.5905 -0.5459
 7612TIP3   OH244250   5.937   5.065   3.608  0.4369  0.3971 -0.0960
 7612TIP3    H144251   5.848   5.095   3.589  0.1983  0.2694  0.7698
 7612TIP3    H244252   5.970   5.031   3.525  0.4679  2.4126 -0.9771
 7613TIP3   OH244253   4.263   1.814   0.393 -0.1329  0.2853 -0.3296
 7613TIP3    H144254   4.212   1.733   0.396 -1.9726  1.4248  0.3330
 7613TIP3    H244255   4.339   1.792   0.339 -1.6213 -1.2948 -1.9057
 7614TIP3   OH244256   2.942   0.596   0.441  0.5796  0.1024  0.0515
 7614TIP3    H144257   2.954   0.590   0.536  1.2398 -2.1935 -0.1089
 7614TIP3    H244258   2.901   0.513   0.417  3.0995 -0.6844 -1.9734
 7615TIP3   OH244259   4.143   5.568   0.430  0.2320 -0.4887 -0.0669
 7615TIP3    H144260   4.225   5.617   0.433 -0.2602  0.3803 -0.5088
 7615TIP3    H244261   4.117   5.560   0.521  1.3744 -1.7721  0.1856
 7616TIP3   OH244262   3.527   5.018   3.867  0.7110  0.0564 -0.1968
 7616TIP3    H144263   3.580   4.967   3.928 -0.1165 -0.3653  0.1777
 7616TIP3    H244264   3.479   4.953   3.816 -0.1196  0.4461  0.0723
 7617TIP3   OH244265   0.517   1.190  12.819 -0.0782 -0.5937  0.5406
 7617TIP3    H144266   0.541   1.207  12.728 -0.3016  0.8511  0.7238
 7617TIP3    H244267   0.542   1.099  12.834 -1.1689 -1.2525 -1.3209
 7618TIP3   OH244268   1.125   5.481  13.790 -0.4114  0.3206 -0.1241
 7618TIP3    H144269   1.173   5.452  13.868  0.2478  1.1567 -0.2031
 7618TIP3    H244270   1.117   5.403  13.736 -1.3450 -0.4042  0.9999
 7619TIP3   OH244271   4.014   6.375   3.389 -0.4133  0.4400 -0.5998
 7619TIP3    H144272   4.094   6.390   3.438 -0.2485  0.3039 -0.8245
 7619TIP3    H244273   3.976   6.462   3.379 -0.9347  0.3610  0.5716
 7620TIP3   OH244274   6.168   4.468   5.154  0.1804 -0.1833 -0.2286
 7620TIP3    H144275   6.087   4.423   5.177  0.3916 -0.4649 -0.0320
 7620TIP3    H244276   6.189   4.438   5.066 -0.6799  0.9678 -0.8589
 7621TIP3   OH244277   4.277   6.291   3.491  0.0939 -0.0055  0.5951
 7621TIP3    H144278   4.352   6.337   3.453  0.1903 -0.3883  0.3175
 7621TIP3    H244279   4.266   6.213   3.436 -2.5049  1.6012 -1.4002
 7622TIP3   OH244280   0.954   0.619   0.644 -0.0486  0.2672  0.0124
 7622TIP3    H144281   0.888   0.649   0.581  1.5291  0.5461 -1.5816
 7622TIP3    H244282   0.958   0.689   0.709  0.6238  1.5948 -1.4054
 7623TIP3   OH244283   0.499   6.327  10.744  0.1071  0.2035 -0.2056
 7623TIP3    H144284   0.422   6.352  10.796 -0.6047 -1.3856 -0.4322
 7623TIP3    H244285   0.562   6.396  10.761 -1.7211  2.1446 -0.8418
 7624TIP3   OH244286   6.359   5.496  11.941  0.3289 -0.3051 -0.0101
 7624TIP3    H144287   6.400   5.434  11.881  0.4626 -0.2177 -0.0093
 7624TIP3    H244288   6.413   5.575  11.934 -0.3760  0.1266 -0.7073
 7625TIP3   OH244289   3.785   4.210  13.690  0.1399 -0.0053 -0.3467
 7625TIP3    H144290   3.783   4.246  13.601 -0.0503  0.7836 -0.0352
 7625TIP3    H244291   3.806   4.118  13.678  0.8713  0.2498 -1.1597
 7626TIP3   OH244292   6.779   0.775  12.948  0.1298 -0.0682 -0.3935
 7626TIP3    H144293   6.687   0.770  12.923 -0.2101  0.1277  0.7656
 7626TIP3    H244294   6.796   0.869  12.955  0.3933 -0.1069 -0.5061
 7627TIP3   OH244295   4.084   4.161  12.090  0.4832 -0.4414  0.7785
 7627TIP3    H144296   4.115   4.111  12.166  1.3110 -1.2152 -0.0365
 7627TIP3    H244297   4.089   4.099  12.017  2.2243  0.9921 -0.4154
 7628TIP3   OH244298   0.357   2.042  11.908  0.5681 -0.1832  0.3065
 7628TIP3    H144299   0.371   2.124  11.861  1.0544 -1.1858 -1.4041
 7628TIP3    H244300   0.299   2.065  11.980 -0.1463  1.4783 -0.7296
 7629TIP3   OH244301   4.170   4.643  14.128  0.5870  0.3463  0.2479
 7629TIP3    H144302   4.113   4.648  14.052 -0.2143  0.1984  0.8281
 7629TIP3    H244303   4.134   4.706  14.190  1.2954  0.5407  0.4711
 7630TIP3   OH244304   3.425   5.737   0.822  0.6833  0.0693  0.2671
 7630TIP3    H144305   3.346   5.788   0.840  0.4398 -0.5331  0.9550
 7630TIP3    H244306   3.400   5.678   0.752  0.7701  0.4417 -0.0790
 7631TIP3   OH244307   1.098   4.107  14.635 -0.0864  0.2318  0.1323
 7631TIP3    H144308   1.082   4.198  14.609 -1.6869  0.2068  0.9224
 7631TIP3    H244309   1.074   4.056  14.558 -1.3163  0.3726  0.4018
 7632TIP3   OH244310   5.412   5.042   1.790  0.0539  0.4703 -0.0447
 7632TIP3    H144311   5.372   5.015   1.708 -0.4818  3.4160 -0.8406
 7632TIP3    H244312   5.483   5.101   1.764  0.6077  0.5786  1.5874
 7633TIP3   OH244313   2.756   2.876  15.006 -0.0077  0.1776  0.0365
 7633TIP3    H144314   2.761   2.887  15.101  0.7100  0.4951 -0.0381
 7633TIP3    H244315   2.843   2.847  14.980  0.1746  1.3350 -0.6935
 7634TIP3   OH244316   2.369   4.437   3.602  0.1402 -0.1105 -0.2930
 7634TIP3    H144317   2.386   4.490   3.680  3.1565 -0.1033 -0.8267
 7634TIP3    H244318   2.387   4.496   3.529  2.2177 -1.3905 -0.9024
 7635TIP3   OH244319   6.593   2.773  12.505 -0.1710  0.2353  0.4746
 7635TIP3    H144320   6.574   2.859  12.467  2.3091  0.1687 -1.1661
 7635TIP3    H244321   6.527   2.715  12.467 -1.0395  1.1555  0.5418
 7636TIP3   OH244322   3.625   2.644   1.399 -0.0127 -0.7250  0.0580
 7636TIP3    H144323   3.716   2.640   1.370 -0.8753 -2.8343 -2.9188
 7636TIP3    H244324   3.579   2.687   1.326 -1.6719 -1.6100  0.5390
 7637TIP3   OH244325   6.396   1.585  13.835 -0.1113 -0.1965  0.1276
 7637TIP3    H144326   6.339   1.655  13.805 -1.4906 -0.5325  1.8074
 7637TIP3    H244327   6.384   1.515  13.770 -0.2638  0.3851 -0.4769
 7638TIP3   OH244328   2.159   6.162  12.357  0.2470  0.5876 -0.1174
 7638TIP3    H144329   2.127   6.247  12.388  1.2589  1.5101 -1.4701
 7638TIP3    H244330   2.086   6.127  12.307  0.0347  0.9385 -0.0630
 7639TIP3   OH244331   1.366   1.602  14.721 -0.2348  0.5256 -0.0544
 7639TIP3    H144332   1.453   1.614  14.683  0.0829 -1.1002  0.0877
 7639TIP3    H244333   1.382   1.584  14.813 -0.5709 -1.1267 -0.2721
 7640TIP3   OH244334   5.247   3.403  13.047 -0.7105  0.3395  0.1556
 7640TIP3    H144335   5.231   3.410  12.953 -0.2661  0.1857  0.0659
 7640TIP3    H244336   5.216   3.316  13.071  1.3113 -0.5667 -0.3049
 7641TIP3   OH244337   0.135   2.764  13.085 -0.0919  0.5789  0.1424
 7641TIP3    H144338   0.041   2.756  13.098  0.1029  0.0496  1.3037
 7641TIP3    H244339   0.159   2.846  13.128 -0.0689  0.9370 -0.5252
 7642TIP3   OH244340   4.307   1.359  10.655 -0.3027  0.2618 -0.5632
 7642TIP3    H144341   4.280   1.316  10.574  0.7374  0.1132 -0.8487
 7642TIP3    H244342   4.332   1.287  10.713 -0.2735  0.3999 -0.4046
 7643TIP3   OH244343   0.635   4.917   3.985  0.6779 -0.0244  0.4892
 7643TIP3    H144344   0.676   4.999   3.961 -0.2576  1.1169  2.5309
 7643TIP3    H244345   0.658   4.904   4.077 -1.9475 -0.2547  1.2060
 7644TIP3   OH244346   1.037   1.940  13.626  0.0569 -0.0070  0.1878
 7644TIP3    H144347   1.106   1.974  13.569 -0.1451 -0.6015 -0.4206
 7644TIP3    H244348   1.000   1.866  13.577 -0.9562  0.2564  0.5452
 7645TIP3   OH244349   0.055   2.773   6.174  0.0917 -0.3450 -0.4270
 7645TIP3    H144350   0.148   2.770   6.151  0.5229 -1.1562  1.3025
 7645TIP3    H244351   0.028   2.862   6.154  1.3388  0.0163 -0.5767
 7646TIP3   OH244352   1.129   5.417   3.756  0.8893  0.2505  0.2760
 7646TIP3    H144353   1.121   5.449   3.846 -0.1691  1.7840 -0.3357
 7646TIP3    H244354   1.195   5.347   3.762 -0.6986 -1.2025  2.6258
 7647TIP3   OH244355   1.071   1.557  12.762 -0.2272  0.1551  1.1221
 7647TIP3    H144356   0.992   1.581  12.811 -1.1882 -0.8019  0.1100
 7647TIP3    H244357   1.111   1.640  12.737 -1.9555  0.7139  0.0606
 7648TIP3   OH244358   1.322   0.272   3.972 -0.4122 -0.4872  0.2161
 7648TIP3    H144359   1.412   0.243   3.985 -1.1872 -2.8467  0.7644
 7648TIP3    H244360   1.305   0.332   4.044  1.6083  2.5119 -1.5940
 7649TIP3   OH244361   6.596   0.818  12.658 -0.1885 -0.4828 -0.2689
 7649TIP3    H144362   6.609   0.854  12.570  0.0210 -1.5635 -0.7054
 7649TIP3    H244363   6.667   0.856  12.710  1.0706 -1.5141 -1.1306
 7650TIP3   OH244364   4.832   5.638  16.760  0.4167 -0.3621  0.1616
 7650TIP3    H144365   4.871   5.599  16.838  1.3278  2.4248  1.2199
 7650TIP3    H244366   4.782   5.713  16.793  0.5504  0.6918 -1.8674
 7651TIP3   OH244367   5.716   3.477  11.910 -0.6987  0.3668 -0.4605
 7651TIP3    H144368   5.749   3.527  11.835  0.7526  1.1707  0.6428
 7651TIP3    H244369   5.740   3.387  11.891 -0.2475  0.5833 -0.9488
 7652TIP3   OH244370   1.262   5.722   0.024 -0.2667 -0.6171 -0.1274
 7652TIP3    H144371   1.286   5.815   0.027  0.8204 -0.7997 -1.7290
 7652TIP3    H244372   1.189   5.719  -0.038  0.1808 -0.8922 -0.6543
 7653TIP3   OH244373   4.878   6.071  14.722  0.0111  0.3698  0.2827
 7653TIP3    H144374   4.852   6.163  14.726  0.6192  0.5435  0.3937
 7653TIP3    H244375   4.924   6.063  14.638 -0.6643 -0.0085 -0.0644
 7654TIP3   OH244376   2.075   1.985  14.359 -0.3935 -0.7886  0.1259
 7654TIP3    H144377   2.098   2.000  14.267 -1.5422  3.1459  0.2727
 7654TIP3    H244378   1.987   1.947  14.356 -1.9121  2.3694 -0.6319
 7655TIP3   OH244379   1.192   1.276  12.954  0.1563 -0.6330  0.2414
 7655TIP3    H144380   1.169   1.260  12.863 -0.7900  0.6399  0.2288
 7655TIP3    H244381   1.167   1.367  12.969  1.4936 -0.4171  1.4110
 7656TIP3   OH244382   4.339   4.808   5.725  0.5184 -0.0614  0.4003
 7656TIP3    H144383   4.368   4.892   5.691  0.5404 -0.0963  0.3304
 7656TIP3    H244384   4.302   4.763   5.648  0.0370  0.0875  0.5390
 7657TIP3   OH244385   1.825   2.774   3.273 -0.2446  0.0558 -0.5187
 7657TIP3    H144386   1.912   2.770   3.233  1.7166  2.0377  3.0375
 7657TIP3    H244387   1.792   2.684   3.270  1.5578 -0.6162 -2.5485
 7658TIP3   OH244388   6.782   4.377   1.453 -0.6719  0.3547 -0.5205
 7658TIP3    H144389   6.769   4.397   1.546 -0.1306 -0.6486 -0.2135
 7658TIP3    H244390   6.802   4.462   1.413 -4.6068  1.5024 -0.4756
 7659TIP3   OH244391   0.388   3.372  13.827 -0.9166  0.1660  0.0207
 7659TIP3    H144392   0.381   3.277  13.815  2.8058 -0.7242  2.8207
 7659TIP3    H244393   0.474   3.394  13.792 -1.3720  2.3704  0.1500
 7660TIP3   OH244394   3.451   6.424  13.094  0.1621  0.5490  0.1778
 7660TIP3    H144395   3.408   6.429  13.008  1.1374 -1.8264 -0.5339
 7660TIP3    H244396   3.394   6.368  13.146  1.1832 -0.7029 -0.0181
 7661TIP3   OH244397   0.657   3.020   0.692  0.4697  0.2432  0.1973
 7661TIP3    H144398   0.670   3.113   0.674  0.8712  0.0602 -0.4746
 7661TIP3    H244399   0.672   3.012   0.786 -1.8705  1.2494  0.7448
 7662TIP3   OH244400   0.545   1.855  12.579  0.0131  0.5091 -0.4405
 7662TIP3    H144401   0.629   1.872  12.621 -0.6108 -0.2819  1.2582
 7662TIP3    H244402   0.564   1.852  12.486  1.5441  2.0790 -0.2222
 7663TIP3   OH244403   4.111   6.765  11.148  0.2424 -0.0756  0.3430
 7663TIP3    H144404   4.203   6.738  11.143  0.6013  0.2352  3.2541
 7663TIP3    H244405   4.083   6.737  11.235 -2.0251  1.1001  0.0582
 7664TIP3   OH244406   1.573   4.727  14.162 -0.3047  0.0244 -0.2178
 7664TIP3    H144407   1.648   4.701  14.215 -0.1211  1.9381  0.5423
 7664TIP3    H244408   1.498   4.689  14.208  0.0823 -0.7678 -0.2258
 7665TIP3   OH244409   6.168   3.287   3.134 -0.0053  0.0176  0.2494
 7665TIP3    H144410   6.215   3.360   3.174 -1.2122  0.3970  0.9940
 7665TIP3    H244411   6.235   3.218   3.125  0.1113 -0.6075  4.1639
 7666TIP3   OH244412   1.697   6.260  11.327 -0.0055  0.1860 -0.1865
 7666TIP3    H144413   1.614   6.306  11.316  0.2800  0.6695 -0.3428
 7666TIP3    H244414   1.759   6.308  11.272  0.0104 -1.1803 -1.4110
 7667TIP3   OH244415   3.459   3.883  13.112 -0.4151  0.4070  0.5545
 7667TIP3    H144416   3.432   3.810  13.167  1.8930  0.5304  1.9752
 7667TIP3    H244417   3.417   3.959  13.151 -1.5621  0.0739  0.0146
 7668TIP3   OH244418   4.875   1.516  16.115 -0.4844 -0.2936  0.7994
 7668TIP3    H144419   4.920   1.476  16.041  0.7699  1.2318  0.6811
 7668TIP3    H244420   4.900   1.461  16.190 -1.1156 -1.3759  0.2441
 7669TIP3   OH244421   5.707   2.390  14.348 -0.6688 -0.7783 -0.7913
 7669TIP3    H144422   5.777   2.456  14.344 -0.7849 -0.4784  0.9700
 7669TIP3    H244423   5.696   2.361  14.258  3.1525 -2.3179 -0.9797
 7670TIP3   OH244424   2.195   0.378   4.636  0.0094  0.0450 -0.4400
 7670TIP3    H144425   2.133   0.311   4.666  0.1030  0.1929  0.0907
 7670TIP3    H244426   2.167   0.398   4.547 -1.2038  0.6994  0.0692
 7671TIP3   OH244427   0.389   4.539  17.071 -0.4241  0.4958 -0.5439
 7671TIP3    H144428   0.475   4.527  17.032 -0.6596 -0.4121 -0.8123
 7671TIP3    H244429   0.346   4.604  17.015 -0.8420 -0.9622 -1.9972
 7672TIP3   OH244430   0.583   0.826   1.230 -0.4357 -0.2213  0.2049
 7672TIP3    H144431   0.579   0.831   1.326  0.2306  1.5647  0.1657
 7672TIP3    H244432   0.572   0.917   1.201 -0.9605 -0.7819 -1.4410
 7673TIP3   OH244433   1.155   5.918   2.090 -0.0394 -0.3273  0.0772
 7673TIP3    H144434   1.155   6.012   2.104  0.3742 -0.5171  1.5713
 7673TIP3    H244435   1.068   5.889   2.117 -0.0144 -0.4280  0.0510
 7674TIP3   OH244436   4.945   1.340   1.051 -0.2111  0.0777  0.0166
 7674TIP3    H144437   4.965   1.386   1.132 -0.8847 -1.4003  1.0589
 7674TIP3    H244438   5.006   1.377   0.987  1.6407 -0.0390  1.6225
 7675TIP3   OH244439   0.364   0.611   2.074 -0.9395  0.2820  0.4531
 7675TIP3    H144440   0.338   0.524   2.044 -0.9508  1.0847 -2.1080
 7675TIP3    H244441   0.285   0.649   2.111 -1.8671  0.4092 -1.5408
 7676TIP3   OH244442   4.402   1.240  13.699  0.3804  0.5195  0.2585
 7676TIP3    H144443   4.442   1.153  13.696 -0.8581 -0.1077  1.0217
 7676TIP3    H244444   4.316   1.228  13.659 -0.0620  1.2406  0.9687
 7677TIP3   OH244445   5.040   2.811  13.341 -0.1306 -0.2187 -0.1043
 7677TIP3    H144446   4.991   2.882  13.300 -0.9054  0.0286  1.1884
 7677TIP3    H244447   4.976   2.765  13.395  0.4369 -1.7166 -0.6591
 7678TIP3   OH244448   2.290   0.529   5.853  0.3812 -0.4625 -0.2139
 7678TIP3    H144449   2.230   0.603   5.853  1.6854  0.7050  1.9493
 7678TIP3    H244450   2.369   0.561   5.808  0.4520 -0.9968 -0.4766
 7679TIP3   OH244451   1.524   6.544   0.955  0.9008 -0.3354 -0.2099
 7679TIP3    H144452   1.584   6.469   0.953 -0.1439 -1.2357  0.7948
 7679TIP3    H244453   1.554   6.600   0.884  0.3049 -2.8527 -2.6472
 7680TIP3   OH244454   0.339   3.789   4.753 -0.2424 -0.3853 -0.4130
 7680TIP3    H144455   0.339   3.723   4.684  1.0572 -0.7420 -0.1028
 7680TIP3    H244456   0.313   3.741   4.832  0.7070 -0.5477 -0.1866
 7681TIP3   OH244457   0.727   6.297  16.796 -0.1754  0.0312  0.1030
 7681TIP3    H144458   0.717   6.289  16.701  1.0844  0.1471 -0.0515
 7681TIP3    H244459   0.656   6.244  16.832 -2.1456  1.8317 -0.8765
 7682TIP3   OH244460   1.624   4.556   3.580 -0.2131  0.1673 -1.4321
 7682TIP3    H144461   1.644   4.647   3.557  1.0376 -0.3361 -2.4695
 7682TIP3    H244462   1.654   4.547   3.670  2.9778 -0.1000 -2.3994
 7683TIP3   OH244463   1.650   1.684  15.587 -0.4354 -0.1307 -0.5032
 7683TIP3    H144464   1.667   1.628  15.511 -0.2559 -1.4203  0.4748
 7683TIP3    H244465   1.696   1.642  15.659 -0.4715  1.1703  0.3081
 7684TIP3   OH244466   2.837   1.954  14.285 -0.3040  0.3065  0.1666
 7684TIP3    H144467   2.784   2.008  14.344  2.2552  4.1512 -0.7275
 7684TIP3    H244468   2.907   1.920  14.341 -0.1420  0.5697  0.1250
 7685TIP3   OH244469   1.451   0.065  14.910 -0.1108 -0.5439  0.2735
 7685TIP3    H144470   1.463   0.156  14.882 -0.0920 -0.7315 -0.3407
 7685TIP3    H244471   1.373   0.067  14.966  1.2032  0.2502  2.2016
 7686TIP3   OH244472   0.863   2.356   5.962  0.2483  0.3291  0.2759
 7686TIP3    H144473   0.784   2.401   5.933  0.2045  0.8905  1.2179
 7686TIP3    H244474   0.864   2.369   6.057  1.9981  1.2180  0.1711
 7687TIP3   OH244475   0.588   5.362  16.539  0.2995  0.0812 -0.2039
 7687TIP3    H144476   0.581   5.448  16.500 -1.2027 -0.0033 -0.1646
 7687TIP3    H244477   0.667   5.324  16.500 -0.2058  0.6530 -1.8290
 7688TIP3   OH244478   3.633   3.989   3.680 -0.7015 -0.5206  0.7965
 7688TIP3    H144479   3.574   3.963   3.610 -1.5526  0.6960  1.0333
 7688TIP3    H244480   3.718   3.997   3.638 -1.3025  0.7005 -0.2326
 7689TIP3   OH244481   5.922   4.079   4.605 -0.6705  0.0985 -0.1656
 7689TIP3    H144482   5.896   4.168   4.629  0.4878  0.4117 -0.0516
 7689TIP3    H244483   5.920   4.079   4.509 -1.4522 -0.0080 -0.1624
 7690TIP3   OH244484   3.079   3.204   5.002 -0.0816 -0.3392  0.1849
 7690TIP3    H144485   3.169   3.193   4.973 -0.4020 -2.0406 -0.2578
 7690TIP3    H244486   3.028   3.146   4.945 -1.5575  1.0665 -0.0160
 7691TIP3   OH244487   4.212   4.416   0.762  0.1089 -0.5404  0.2748
 7691TIP3    H144488   4.165   4.428   0.679  2.6764 -0.8689 -1.3574
 7691TIP3    H244489   4.144   4.420   0.829 -2.0963 -0.2530 -1.8274
 7692TIP3   OH244490   5.479   3.263   2.791 -0.7130 -0.8495  0.4546
 7692TIP3    H144491   5.434   3.204   2.730  1.0380 -1.6579 -0.1346
 7692TIP3    H244492   5.475   3.349   2.748 -3.0487 -0.5384  1.1901
 7693TIP3   OH244493   2.099   3.607   3.645 -0.5033  0.6218 -0.0044
 7693TIP3    H144494   2.093   3.619   3.739 -0.1859  0.5143  0.0313
 7693TIP3    H244495   2.009   3.608   3.614 -0.7856 -1.7780  0.5855
 7694TIP3   OH244496   5.880   0.587  16.415  0.4380  0.6341 -0.2701
 7694TIP3    H144497   5.862   0.595  16.321  0.7405 -1.2552 -0.5267
 7694TIP3    H244498   5.885   0.677  16.446  0.4664  1.3033 -2.0897
 7695TIP3   OH244499   1.213   1.771  12.612 -0.5008 -0.5235 -0.0254
 7695TIP3    H144500   1.247   1.860  12.617 -1.0905  0.0018 -3.2021
 7695TIP3    H244501   1.291   1.715  12.607 -0.1378 -0.1761  1.4481
 7696TIP3   OH244502   5.194   1.484   5.823 -0.5016 -0.2267 -0.3173
 7696TIP3    H144503   5.210   1.452   5.733 -0.2536 -0.2800 -0.2557
 7696TIP3    H244504   5.254   1.558   5.833 -0.5708 -0.1852 -0.2157
 7697TIP3   OH244505   2.554   5.158  13.853  0.5165 -0.5703  0.4011
 7697TIP3    H144506   2.567   5.193  13.941  0.7285  0.2776  0.0407
 7697TIP3    H244507   2.636   5.114  13.832  0.6586 -0.3287  0.4358
 7698TIP3   OH244508   5.738   3.702   2.540  0.2254 -0.4199  0.0963
 7698TIP3    H144509   5.697   3.735   2.620  1.3171 -2.8279  1.7842
 7698TIP3    H244510   5.831   3.695   2.562  0.3300 -2.5839 -0.7760
 7699TIP3   OH244511   3.235   3.363   4.765 -0.3146  0.0364  0.1514
 7699TIP3    H144512   3.146   3.378   4.798  0.3403  0.9023  1.6307
 7699TIP3    H244513   3.223   3.316   4.683 -2.1665  0.8316 -0.0735
 7700TIP3   OH244514   4.454   5.039   3.067  0.2008  0.9015  0.2641
 7700TIP3    H144515   4.549   5.042   3.080  0.4220  0.7817 -1.1461
 7700TIP3    H244516   4.419   5.001   3.147  1.4070  0.3635  0.5453
 7701TIP3   OH244517   0.786   6.383   1.903 -0.6514  0.2509 -0.3755
 7701TIP3    H144518   0.768   6.475   1.885 -0.5622  0.8811  2.3794
 7701TIP3    H244519   0.881   6.376   1.899 -0.4700  0.8991  1.7932
 7702TIP3   OH244520   4.119   0.746  15.881 -0.3381  0.1730 -0.5260
 7702TIP3    H144521   4.209   0.775  15.891 -0.2934 -0.0677 -0.1823
 7702TIP3    H244522   4.125   0.665  15.830 -0.3567  0.1605 -0.5084
 7703TIP3   OH244523   4.708   3.387   1.147  0.9608  0.1934  0.5444
 7703TIP3    H144524   4.668   3.418   1.228 -0.0129 -0.1028  0.1861
 7703TIP3    H244525   4.656   3.428   1.077  0.3689 -1.3005  0.0706
 7704TIP3   OH244526   5.486   2.793  15.614  0.2865 -0.2857 -0.2128
 7704TIP3    H144527   5.513   2.829  15.530  1.3482 -1.2191 -0.2927
 7704TIP3    H244528   5.456   2.868  15.664 -3.3683 -0.0105 -2.4647
 7705TIP3   OH244529   0.645   1.516  12.027  0.6666  0.2638 -0.1213
 7705TIP3    H144530   0.717   1.455  12.013  0.8560  0.3129  0.6063
 7705TIP3    H244531   0.590   1.507  11.948  0.6652 -0.8659 -0.0052
 7706TIP3   OH244532   2.485   2.765   3.962 -0.3318  0.5061 -0.1054
 7706TIP3    H144533   2.567   2.715   3.963  0.6012  1.8082 -2.5309
 7706TIP3    H244534   2.510   2.853   3.989 -1.1969  0.6252  0.3431
 7707TIP3   OH244535   6.220   5.527   1.298  0.4562 -0.0962  0.0889
 7707TIP3    H144536   6.232   5.622   1.294 -0.5256  0.1560  2.0648
 7707TIP3    H244537   6.243   5.503   1.387  0.3659 -1.6892 -0.2804
 7708TIP3   OH244538   5.834   5.600  11.932  0.1394 -0.0360  0.3838
 7708TIP3    H144539   5.912   5.551  11.905 -0.5462 -1.2142  0.5276
 7708TIP3    H244540   5.760   5.551  11.896 -0.5941  0.4643  1.1780
 7709TIP3   OH244541   3.182   1.056   4.129 -0.6289  0.0538  0.1195
 7709TIP3    H144542   3.240   0.983   4.106 -1.7290 -0.3008 -1.7362
 7709TIP3    H244543   3.095   1.017   4.133 -0.9818  0.9129  1.0520
 7710TIP3   OH244544   5.506   2.135   5.915 -0.1005  0.3349  0.2685
 7710TIP3    H144545   5.489   2.053   5.868  2.3310 -0.1194  0.0069
 7710TIP3    H244546   5.581   2.115   5.971 -0.6357  1.8880  1.6032
 7711TIP3   OH244547   0.828   1.654  14.802  0.2403 -1.0676 -0.4066
 7711TIP3    H144548   0.773   1.591  14.755  0.9335 -1.2240 -1.0383
 7711TIP3    H244549   0.802   1.739  14.767  0.6403 -1.1711 -0.9686
 7712TIP3   OH244550   5.026   2.009  15.059  0.2325  0.4010 -0.3435
 7712TIP3    H144551   5.074   2.007  14.976  1.1129 -0.3171  0.1580
 7712TIP3    H244552   5.008   2.101  15.074  0.2884  0.5647 -1.2056
 7713TIP3   OH244553   4.143   1.693  13.284 -0.0135  0.6048  0.5521
 7713TIP3    H144554   4.192   1.611  13.286 -1.9703 -0.6302  1.7413
 7713TIP3    H244555   4.068   1.678  13.342 -2.1311  2.1209 -1.5692
 7714TIP3   OH244556   4.409   3.427  17.147 -0.3073 -0.1210  0.2505
 7714TIP3    H144557   4.458   3.345  17.142  0.6939  0.3087  2.1153
 7714TIP3    H244558   4.332   3.406  17.200 -1.2804 -0.3635 -1.1925
 7715TIP3   OH244559   6.152   5.025  13.496 -0.4392  0.2366 -0.0945
 7715TIP3    H144560   6.089   4.970  13.543  0.6561 -1.1437 -0.1716
 7715TIP3    H244561   6.143   4.998  13.405  1.1564 -0.9696  0.0571
 7716TIP3   OH244562   0.249   1.486  16.980  0.0828 -0.0333  0.7625
 7716TIP3    H144563   0.270   1.576  17.003  0.0480  0.0482  0.4809
 7716TIP3    H244564   0.292   1.473  16.895 -1.4362  0.2988 -0.0883
 7717TIP3   OH244565   5.963   0.629   3.264 -0.0320  0.4742  1.0152
 7717TIP3    H144566   6.037   0.689   3.255 -0.3884  0.6964 -0.7572
 7717TIP3    H244567   5.897   0.662   3.203 -0.2625 -1.6872  0.0008
 7718TIP3   OH244568   4.138   4.419  17.156  0.4063  0.4214  0.1979
 7718TIP3    H144569   4.055   4.467  17.162  1.0760  1.3944  2.9335
 7718TIP3    H244570   4.115   4.340  17.107 -2.7842 -0.4936  2.7807
 7719TIP3   OH244571   0.747   0.549   1.351 -0.0784 -0.3095 -0.3363
 7719TIP3    H144572   0.738   0.478   1.287 -2.9349  0.4682 -0.9440
 7719TIP3    H244573   0.756   0.628   1.298  0.6655  0.0430  0.2992
 7720TIP3   OH244574   2.757   2.590  14.196 -0.0237  0.0199 -0.1070
 7720TIP3    H144575   2.665   2.567  14.194  0.2679 -1.1214 -1.1518
 7720TIP3    H244576   2.784   2.591  14.105  0.4720  2.6766 -0.0292
 7721TIP3   OH244577   6.429   4.334  14.434 -0.1796 -0.0040  0.1861
 7721TIP3    H144578   6.366   4.303  14.370 -2.6750  2.8313  1.0125
 7721TIP3    H244579   6.398   4.299  14.518 -0.2206  0.7437  0.4970
 7722TIP3   OH244580   4.387   6.436  15.208 -0.4972 -0.1213  0.3467
 7722TIP3    H144581   4.477   6.405  15.219 -0.2033  0.1406 -1.0405
 7722TIP3    H244582   4.343   6.366  15.159 -0.6491  0.3465 -0.1995
 7723TIP3   OH244583   6.219   3.265   0.857 -0.1768  0.5633 -0.2514
 7723TIP3    H144584   6.151   3.273   0.789 -0.8756  0.0198  0.3620
 7723TIP3    H244585   6.171   3.235   0.934  0.8646 -0.3979  0.0412
 7724TIP3   OH244586   4.153   0.707   5.694  0.0872 -0.2227 -0.2483
 7724TIP3    H144587   4.209   0.664   5.758  0.3625  2.4597  1.4329
 7724TIP3    H244588   4.064   0.700   5.730  0.2299  1.2106  0.4194
 7725TIP3   OH244589   3.864   3.352   4.144  0.6215  0.0536 -0.5000
 7725TIP3    H144590   3.787   3.309   4.106 -0.8700  2.4444 -0.3931
 7725TIP3    H244591   3.880   3.427   4.086  3.4602 -0.8515 -1.0095
 7726TIP3   OH244592   0.362   1.403   4.402  0.3518  0.1841 -0.2477
 7726TIP3    H144593   0.381   1.399   4.308  1.4157 -1.1700 -0.0044
 7726TIP3    H244594   0.269   1.379   4.408 -0.2197  1.9952 -1.0568
 7727TIP3   OH244595   6.131   5.277  14.946 -0.3621  0.2128 -0.2591
 7727TIP3    H144596   6.167   5.346  14.891  3.6915 -0.4253  1.2552
 7727TIP3    H244597   6.146   5.196  14.896 -2.4754  0.0807 -0.7891
 7728TIP3   OH244598   3.498   2.971   2.273  0.7001  0.0634 -0.3164
 7728TIP3    H144599   3.469   3.059   2.249  0.0435 -0.3545 -1.1260
 7728TIP3    H244600   3.431   2.913   2.236  2.2943 -0.9013 -1.8321
 7729TIP3   OH244601   2.176   0.201   0.321  0.4380 -0.1858  0.2253
 7729TIP3    H144602   2.184   0.290   0.354 -2.5651  0.4926 -0.5584
 7729TIP3    H244603   2.222   0.147   0.385  0.4339  1.7263  1.9310
 7730TIP3   OH244604   0.508   4.515   2.686  0.0865  0.0413 -0.0347
 7730TIP3    H144605   0.575   4.577   2.656  0.8811 -0.7617  0.0592
 7730TIP3    H244606   0.514   4.517   2.782  0.4379 -0.5274 -0.0427
 7731TIP3   OH244607   1.628   5.617  13.021 -0.5459  0.3981 -0.1575
 7731TIP3    H144608   1.593   5.686  12.964  0.6756 -0.6141 -2.2277
 7731TIP3    H244609   1.573   5.541  13.003 -0.5396  0.2352  0.5042
 7732TIP3   OH244610   2.758   4.941   2.401  1.3773  0.3259 -0.4239
 7732TIP3    H144611   2.835   4.983   2.439  2.0662 -0.4101 -0.9624
 7732TIP3    H244612   2.738   4.869   2.460 -0.5616  2.0526  1.1879
 7733TIP3   OH244613   1.733   3.404   2.415 -0.4657  0.4475 -0.4448
 7733TIP3    H144614   1.662   3.440   2.362  0.8185  0.1437 -2.4762
 7733TIP3    H244615   1.812   3.447   2.381  0.5423 -0.6947  0.3849
 7734TIP3   OH244616   1.755   2.969  11.348 -0.5249  0.0058  0.4046
 7734TIP3    H144617   1.748   2.911  11.423 -1.1281 -2.4039 -1.3940
 7734TIP3    H244618   1.664   2.993  11.327 -0.3403  0.9280  0.6045
 7735TIP3   OH244619   5.269   4.979   3.349  0.1443 -0.4686 -0.3122
 7735TIP3    H144620   5.176   4.994   3.364  0.2936  0.6205 -0.3786
 7735TIP3    H244621   5.298   4.929   3.426 -0.1355  0.7386  0.6146
 7736TIP3   OH244622   0.394   2.962  14.084  0.1505  0.3121 -0.2871
 7736TIP3    H144623   0.392   2.953  14.180  1.7529 -0.4360 -0.3059
 7736TIP3    H244624   0.386   3.056  14.069  0.2986  0.4741  0.6014
 7737TIP3   OH244625   1.046   6.287  16.499 -0.0349  0.0713  0.0503
 7737TIP3    H144626   0.963   6.335  16.494 -0.1962 -0.2241 -0.1436
 7737TIP3    H244627   1.035   6.215  16.437  0.0291 -0.4818  0.6686
 7738TIP3   OH244628   1.718   4.839  15.973 -0.5970  0.0837  0.0632
 7738TIP3    H144629   1.672   4.918  16.002 -0.6428  0.6318 -1.4217
 7738TIP3    H244630   1.801   4.871  15.937 -1.9335 -0.0829 -3.5802
 7739TIP3   OH244631   6.313   5.584   1.556 -0.0681  0.3768  0.5572
 7739TIP3    H144632   6.351   5.528   1.624  0.7398  1.5995  1.1496
 7739TIP3    H244633   6.237   5.624   1.598  0.1005  0.6979  0.5580
 7740TIP3   OH244634   5.782   5.857  14.520  0.3284 -0.1525 -0.8646
 7740TIP3    H144635   5.710   5.803  14.552 -0.1715  0.2094 -1.3636
 7740TIP3    H244636   5.857   5.833  14.575 -0.3874  0.1284  0.2476
 7741TIP3   OH244637   2.171   4.253   1.761  0.4721 -0.0626 -0.3563
 7741TIP3    H144638   2.231   4.224   1.692  0.6318  0.5560 -0.4805
 7741TIP3    H244639   2.092   4.280   1.714  0.1745 -0.6602 -0.2093
 7742TIP3   OH244640   2.220   5.974   4.009  0.0083 -0.3373  0.4013
 7742TIP3    H144641   2.280   5.934   3.946  1.1041  0.1484  1.0926
 7742TIP3    H244642   2.230   5.921   4.088  1.3846  1.1339  1.2888
 7743TIP3   OH244643   1.427   5.325   3.446 -0.6700  0.0905  0.3933
 7743TIP3    H144644   1.449   5.243   3.489 -0.1768  0.3025  0.5457
 7743TIP3    H244645   1.332   5.321   3.434 -0.3763 -1.8275 -2.2476
 7744TIP3   OH244646   2.893   5.341   5.543  0.3821 -0.0553 -0.0852
 7744TIP3    H144647   2.865   5.268   5.488  0.2783 -0.4484  0.4792
 7744TIP3    H244648   2.877   5.311   5.633 -1.4278  1.3665  0.1273
 7745TIP3   OH244649   2.017   4.346  16.376 -0.5037  0.4396  0.2900
 7745TIP3    H144650   2.002   4.263  16.421 -0.5199  0.5054  0.4059
 7745TIP3    H244651   1.946   4.403  16.406  0.3874  0.9862  1.3993
 7746TIP3   OH244652   5.010   0.289   2.160 -0.5292  0.1296  0.0851
 7746TIP3    H144653   5.071   0.350   2.201 -0.8009  1.0463 -0.8144
 7746TIP3    H244654   4.939   0.280   2.223 -1.0627  1.7167 -0.2446
 7747TIP3   OH244655   2.437   3.078   4.980  0.5683  0.3452 -0.4119
 7747TIP3    H144656   2.363   3.135   5.003  1.2575  2.0455 -2.1049
 7747TIP3    H244657   2.512   3.137   4.976  2.2302 -1.4416  1.8766
 7748TIP3   OH244658   0.625   2.709  11.551 -0.2127 -0.1483 -0.4120
 7748TIP3    H144659   0.719   2.720  11.533 -0.4165 -0.5522 -1.8228
 7748TIP3    H244660   0.588   2.795  11.531  0.0891  0.6435  2.0930
 7749TIP3   OH244661   3.651   2.889   0.500 -0.3367 -0.5793  0.0368
 7749TIP3    H144662   3.560   2.862   0.513 -0.0534 -1.2246  0.7093
 7749TIP3    H244663   3.669   2.947   0.573  0.1733 -1.4383  0.6034
 7750TIP3   OH244664   6.337   3.769   2.109 -0.0415  0.6503 -0.5143
 7750TIP3    H144665   6.338   3.848   2.163 -0.0679  0.4318 -0.1949
 7750TIP3    H244666   6.289   3.795   2.030 -0.7009  0.7467 -0.0920
 7751TIP3   OH244667   6.137   4.720   1.403 -0.4267  0.2148 -0.3109
 7751TIP3    H144668   6.065   4.667   1.438 -1.3204  0.8960 -1.0652
 7751TIP3    H244669   6.113   4.735   1.312  1.2074 -0.4303 -0.8788
 7752TIP3   OH244670   6.661   1.618  13.597  0.1393 -0.0139  0.1811
 7752TIP3    H144671   6.696   1.629  13.686  0.2076  0.0002  0.1522
 7752TIP3    H244672   6.624   1.530  13.598 -0.9832  0.4438  0.6033
 7753TIP3   OH244673   1.150   4.546  15.700 -0.1409  0.3446  0.2509
 7753TIP3    H144674   1.218   4.611  15.714  0.6075 -0.4375  0.3221
 7753TIP3    H244675   1.189   4.482  15.641 -0.5971 -0.4305  0.7695
 7754TIP3   OH244676   2.073   1.540   5.063 -0.4541 -0.0233  0.2422
 7754TIP3    H144677   2.059   1.585   5.146  0.3309  0.1971  0.2663
 7754TIP3    H244678   2.122   1.462   5.086  0.1302  0.2458 -0.0480
 7755TIP3   OH244679   5.720   2.066  12.375  0.4970  0.1675  0.0335
 7755TIP3    H144680   5.739   2.107  12.291 -0.0181 -0.4087 -0.3707
 7755TIP3    H244681   5.685   2.137  12.429 -1.0714  0.1341 -0.8885
 7756TIP3   OH244682   6.136   6.254   3.146 -0.7250  0.0700  0.3795
 7756TIP3    H144683   6.190   6.333   3.136  1.1147 -1.2440 -0.7477
 7756TIP3    H244684   6.055   6.275   3.099 -0.8582  1.7443  1.2557
 7757TIP3   OH244685   1.303   3.362   1.078 -0.0673 -0.4318 -0.0754
 7757TIP3    H144686   1.219   3.360   1.123  0.5873 -0.1057  1.2196
 7757TIP3    H244687   1.325   3.270   1.062 -1.0424 -0.4997 -1.2175
 7758TIP3   OH244688   2.099   2.234   5.368 -0.0291 -0.0114  0.2468
 7758TIP3    H144689   2.184   2.278   5.370  0.1976 -0.3831 -0.6878
 7758TIP3    H244690   2.043   2.287   5.426  0.2841  1.4043 -0.6798
 7759TIP3   OH244691   1.344   6.647  13.008  0.0331 -0.0744  0.2396
 7759TIP3    H144692   1.260   6.619  12.970  0.5818  0.2312 -1.2874
 7759TIP3    H244693   1.400   6.570  13.001  0.7354  0.5426 -1.4820
 7760TIP3   OH244694   4.835   5.670  10.535 -0.2744 -0.0339 -0.0375
 7760TIP3    H144695   4.871   5.756  10.513  0.2666  0.4948  2.5804
 7760TIP3    H244696   4.752   5.690  10.579 -0.0656 -0.8173  0.7409
 7761TIP3   OH244697   0.246   6.787  13.558  0.1139 -0.0501  0.1786
 7761TIP3    H144698   0.217   6.726  13.490  0.4331  0.0690 -0.0720
 7761TIP3    H244699   0.274   6.732  13.630 -1.1934 -0.1579  0.6260
 7762TIP3   OH244700   1.304   1.778  14.993  0.3232  0.5852 -0.0809
 7762TIP3    H144701   1.218   1.802  15.026 -0.7756 -2.5348 -0.3293
 7762TIP3    H244702   1.320   1.839  14.920 -2.2198  0.5111 -0.7821
 7763TIP3   OH244703   1.653   0.748  13.971  0.1695 -0.4235 -0.1005
 7763TIP3    H144704   1.658   0.787  13.883 -0.6337 -0.4879 -0.1842
 7763TIP3    H244705   1.561   0.720  13.979  0.1349 -0.0446  0.9149
 7764TIP3   OH244706   5.027   5.771  14.629  0.1898  0.0379 -0.2157
 7764TIP3    H144707   5.087   5.834  14.670  0.3735 -0.7086  0.6996
 7764TIP3    H244708   5.081   5.693  14.613 -0.1495 -0.0664 -0.8884
 7765TIP3   OH244709   1.965   6.076  13.276 -0.3666  0.3009  0.2398
 7765TIP3    H144710   1.916   6.021  13.215 -1.0841  1.1604  0.0198
 7765TIP3    H244711   1.988   6.016  13.348 -1.3175 -0.2494  0.1143
 7766TIP3   OH244712   4.273   4.618   4.000 -0.0807  0.2049 -0.5358
 7766TIP3    H144713   4.319   4.555   4.056 -0.7507 -0.6246 -0.9112
 7766TIP3    H244714   4.294   4.591   3.911 -0.0638  0.7483 -0.7015
 7767TIP3   OH244715   4.629   2.022  15.846 -0.1711  0.5635 -0.4493
 7767TIP3    H144716   4.651   2.086  15.778  0.1425  1.3251  0.3563
 7767TIP3    H244717   4.685   1.947  15.827  0.8292  1.2572 -0.2966
 7768TIP3   OH244718   1.977   0.333  17.092 -0.5172  0.2135 -0.3124
 7768TIP3    H144719   1.915   0.406  17.091  0.0027  0.6714  0.0422
 7768TIP3    H244720   1.922   0.254  17.092 -1.1162  0.6161  0.9088
 7769TIP3   OH244721   1.890   4.162  13.781  0.0421 -0.2090 -0.3642
 7769TIP3    H144722   1.932   4.229  13.727  2.7679  0.4831  2.3637
 7769TIP3    H244723   1.812   4.205  13.816  0.0045  0.3922 -1.1444
 7770TIP3   OH244724   5.224   0.029   5.241 -0.2880 -0.5770  0.3746
 7770TIP3    H144725   5.176   0.007   5.321  0.3037 -0.3794  0.7944
 7770TIP3    H244726   5.209  -0.045   5.183 -0.2816 -0.9786  0.8716
 7771TIP3   OH244727   0.108   2.657  15.414  0.4864 -0.2088 -0.2287
 7771TIP3    H144728   0.181   2.628  15.470  1.8620  0.1247 -1.7745
 7771TIP3    H244729   0.084   2.743  15.449 -0.3164 -1.0257  1.3222
 7772TIP3   OH244730   3.844   2.492   5.533 -0.8237 -0.2560  0.2004
 7772TIP3    H144731   3.871   2.486   5.625  1.0386  0.5193 -0.2370
 7772TIP3    H244732   3.917   2.452   5.485 -1.7551 -0.6213 -0.9553
 7773TIP3   OH244733   2.106   6.100   0.970 -0.1800  0.1526  0.1376
 7773TIP3    H144734   2.029   6.135   1.014  0.0788  1.0074 -0.0636
 7773TIP3    H244735   2.179   6.117   1.030 -0.0651 -0.1563  0.0892
 7774TIP3   OH244736   0.479   4.220   0.109  0.1665 -0.2665  0.2174
 7774TIP3    H144737   0.411   4.273   0.150  0.2466  0.2382 -0.2873
 7774TIP3    H244738   0.430   4.160   0.052  0.0253 -1.3106  1.4147
 7775TIP3   OH244739   3.201   5.475  11.955  0.2234 -0.2716 -0.0775
 7775TIP3    H144740   3.255   5.520  12.020  0.5002 -1.4352  0.5411
 7775TIP3    H244741   3.124   5.530  11.945  0.7081  0.5123  0.3810
 7776TIP3   OH244742   2.758   6.680   4.971  0.0079  0.2954 -0.6109
 7776TIP3    H144743   2.832   6.645   4.921  1.2384  0.3175  1.1102
 7776TIP3    H244744   2.782   6.771   4.989  0.5190 -0.2134  1.5796
 7777TIP3   OH244745   3.594   5.482   4.059 -0.1930  0.0941  0.5618
 7777TIP3    H144746   3.630   5.395   4.079 -1.5254 -0.6509 -0.1420
 7777TIP3    H244747   3.550   5.508   4.139  0.8327  0.4784  1.0244
 7778TIP3   OH244748   1.448   6.627  16.987  0.6546 -0.2115  0.0700
 7778TIP3    H144749   1.481   6.661  16.904  0.1069 -0.8425 -0.4206
 7778TIP3    H244750   1.496   6.676  17.054  0.6343  0.7726 -0.6125
 7779TIP3   OH244751   4.310   2.665   1.513  0.3989 -0.0802 -0.2227
 7779TIP3    H144752   4.394   2.710   1.525  0.3016  0.0750 -0.1187
 7779TIP3    H244753   4.277   2.696   1.430  0.4910 -0.2187 -0.3123
 7780TIP3   OH244754   6.663   4.026  15.659  0.1226  0.2758 -0.5298
 7780TIP3    H144755   6.650   4.040  15.753 -0.1696  0.9707 -0.6634
 7780TIP3    H244756   6.716   4.101  15.631 -1.4174  1.1452 -1.2718
 7781TIP3   OH244757   3.427   0.738   2.852  0.2276 -0.3750 -0.2068
 7781TIP3    H144758   3.376   0.801   2.801 -1.5697 -0.8157  0.9398
 7781TIP3    H244759   3.361   0.687   2.899  1.6894 -2.1990 -0.0369
 7782TIP3   OH244760   2.001   3.383  16.370  0.4573 -0.0828  0.1740
 7782TIP3    H144761   1.932   3.318  16.386  0.2946 -0.4150 -1.5979
 7782TIP3    H244762   1.953   3.464  16.351  0.6156  0.1390  0.7053
 7783TIP3   OH244763   1.534   5.942  13.130 -0.5372  0.0078  0.7341
 7783TIP3    H144764   1.519   5.951  13.036  0.0288 -0.0813  0.6283
 7783TIP3    H244765   1.476   6.007  13.170 -2.4424 -1.4466  0.4819
 7784TIP3   OH244766   4.795   4.120   1.947  0.0262 -0.0944 -0.0610
 7784TIP3    H144767   4.890   4.116   1.954  0.1385  0.2061 -1.2293
 7784TIP3    H244768   4.770   4.190   2.008  0.4434 -0.7997  0.9544
 7785TIP3   OH244769   4.772   3.190   4.103  0.3330  0.4488 -0.2682
 7785TIP3    H144770   4.681   3.209   4.082  0.3491  0.9856  0.1215
 7785TIP3    H244771   4.802   3.134   4.032 -0.0563  0.9729 -0.8551
 7786TIP3   OH244772   6.057   5.774  11.864 -0.3124  0.3168  0.2347
 7786TIP3    H144773   6.042   5.726  11.945 -0.5271  1.0837  0.6619
 7786TIP3    H244774   6.012   5.857  11.877  0.7738  0.9860 -0.1401
 7787TIP3   OH244775   4.926   5.193  12.958 -1.1981 -0.2151 -0.1909
 7787TIP3    H144776   4.846   5.202  12.906 -1.5773 -0.0013  0.4135
 7787TIP3    H244777   4.983   5.264  12.928 -0.1823 -1.8469 -2.4099
 7788TIP3   OH244778   0.910   1.535   1.704 -0.2704  0.4191 -0.4060
 7788TIP3    H144779   0.948   1.620   1.726 -0.0134  0.4269 -0.8548
 7788TIP3    H244780   0.901   1.490   1.788  1.1187  0.2604 -0.3130
 7789TIP3   OH244781   1.675   1.092   4.387 -0.0329  0.3476 -0.1208
 7789TIP3    H144782   1.621   1.118   4.462 -0.6135 -0.7220 -0.1407
 7789TIP3    H244783   1.763   1.081   4.423 -0.4570 -0.9526  0.6223
 7790TIP3   OH244784   4.973   6.112   0.437  0.1133 -0.0234  0.4577
 7790TIP3    H144785   5.059   6.127   0.397 -1.0379  0.3134 -2.0606
 7790TIP3    H244786   4.911   6.116   0.364 -1.8725 -2.1911  1.8794
 7791TIP3   OH244787   6.325   4.501   1.265 -0.1535 -0.0865  0.3604
 7791TIP3    H144788   6.371   4.503   1.181  0.9963  0.7682  0.9841
 7791TIP3    H244789   6.233   4.512   1.241  0.2083  0.7325 -0.7563
 7792TIP3   OH244790   4.572   1.589  15.428 -0.2468 -0.2139  0.2200
 7792TIP3    H144791   4.501   1.613  15.488 -1.1347 -0.8103 -0.5787
 7792TIP3    H244792   4.541   1.617  15.342  1.4735  1.6350  0.1111
 7793TIP3   OH244793   0.445   3.660  12.528 -0.2651 -0.1043  0.0198
 7793TIP3    H144794   0.381   3.601  12.568 -0.5145  1.4436  2.0381
 7793TIP3    H244795   0.530   3.622  12.551 -0.4259  0.1373  1.0448
 7794TIP3   OH244796   6.528   2.740  13.020  0.0433 -0.1841  0.7689
 7794TIP3    H144797   6.547   2.739  12.926 -0.1455  0.4249  0.7198
 7794TIP3    H244798   6.537   2.649  13.047  1.5551 -0.1625  0.4512
 7795TIP3   OH244799   5.127   0.035  14.569  0.0818 -0.5449  0.3097
 7795TIP3    H144800   5.148  -0.058  14.575  1.4529 -0.3194 -0.6192
 7795TIP3    H244801   5.191   0.071  14.508 -0.8068  0.9064  0.1778
 7796TIP3   OH244802   0.978   0.853   5.593 -0.0745 -0.2307  0.5532
 7796TIP3    H144803   0.936   0.791   5.652 -0.1499 -2.3870 -1.6080
 7796TIP3    H244804   0.920   0.857   5.517  0.6125  1.4930  0.0840
 7797TIP3   OH244805   2.605   1.904   3.782  0.1367  0.3026 -0.0270
 7797TIP3    H144806   2.545   1.937   3.715 -0.1824 -0.4266 -0.1071
 7797TIP3    H244807   2.556   1.911   3.864  0.1757  0.3042 -0.0040
 7798TIP3   OH244808   3.974   0.535  16.782 -0.1555  0.4986 -0.2144
 7798TIP3    H144809   4.021   0.617  16.790 -1.2591  1.3041 -1.5417
 7798TIP3    H244810   3.885   0.560  16.755 -0.8321 -1.0662  0.4114
 7799TIP3   OH244811   0.664   5.455   2.836  0.2354  0.0801 -0.6267
 7799TIP3    H144812   0.754   5.429   2.855  0.2956 -0.1681 -1.2154
 7799TIP3    H244813   0.629   5.383   2.782 -0.2592  0.2531 -0.5453
 7800TIP3   OH244814   3.558   4.998  16.228  0.6926 -0.2124 -0.4782
 7800TIP3    H144815   3.496   4.944  16.277 -0.5746  1.9848  0.4838
 7800TIP3    H244816   3.643   4.982  16.270  0.6081 -2.2444 -0.9636
 7801TIP3   OH244817   6.028   5.654   1.557  0.2341  0.2111  0.1127
 7801TIP3    H144818   5.935   5.642   1.575  0.4672 -0.4126  0.9778
 7801TIP3    H244819   6.031   5.726   1.494 -0.7917  0.8384  0.7447
 7802TIP3   OH244820   1.884   1.393  14.978  0.1410  0.2048  0.2116
 7802TIP3    H144821   1.902   1.405  15.072  2.4568 -0.5607 -0.0681
 7802TIP3    H244822   1.962   1.427  14.935  0.8847 -2.9940 -1.2279
 7803TIP3   OH244823   5.260   3.372  15.419  0.0644  0.0616  0.1025
 7803TIP3    H144824   5.249   3.381  15.514  0.3874 -0.9371  0.2481
 7803TIP3    H244825   5.246   3.460  15.384  0.9031  0.6310  1.1701
 7804TIP3   OH244826   4.349   2.249   4.724  0.2465 -0.1350 -0.2903
 7804TIP3    H144827   4.352   2.271   4.631 -0.6343  1.2512 -0.0117
 7804TIP3    H244828   4.364   2.154   4.726  0.2075 -0.2030 -1.8448
 7805TIP3   OH244829   1.490   4.065  14.459  0.3724 -0.9359 -0.2180
 7805TIP3    H144830   1.411   4.010  14.459 -1.2513  1.1784 -1.8379
 7805TIP3    H244831   1.495   4.101  14.547 -0.5069 -1.1027 -0.0915
 7806TIP3   OH244832   6.616   6.197   0.042  0.6831 -0.1441  0.3981
 7806TIP3    H144833   6.538   6.163  -0.002  0.5340  1.1651 -0.4042
 7806TIP3    H244834   6.594   6.193   0.135 -0.5793  0.7093  0.1676
 7807TIP3   OH244835   3.393   3.677   6.542 -0.1601  0.0208 -0.3077
 7807TIP3    H144836   3.418   3.613   6.608 -0.0444  0.4525  0.0776
 7807TIP3    H244837   3.302   3.698   6.563 -0.6936 -1.1275 -1.3593
 7808TIP3   OH244838   2.463   4.149   0.009  0.1929 -0.6044 -0.3442
 7808TIP3    H144839   2.477   4.116   0.098 -0.6905  2.1131  0.9317
 7808TIP3    H244840   2.542   4.199  -0.010 -0.7226  1.0731  0.0904
 7809TIP3   OH244841   6.457   2.012  11.092 -0.0080  0.6312 -0.8915
 7809TIP3    H144842   6.395   2.002  11.165  1.1567  2.1399  0.3809
 7809TIP3    H244843   6.421   1.959  11.022 -1.7898  0.0420  0.4101
 7810TIP3   OH244844   0.373   0.554  13.820 -0.4399  0.4668 -0.4738
 7810TIP3    H144845   0.434   0.519  13.755  1.1716  3.0840 -0.5280
 7810TIP3    H244846   0.420   0.545  13.903 -0.3271  1.6414 -0.3906
 7811TIP3   OH244847   6.614   2.619  12.775 -0.0074 -0.5177  0.1150
 7811TIP3    H144848   6.527   2.635  12.740 -0.0883 -1.2714 -0.0302
 7811TIP3    H244849   6.659   2.568  12.707  1.0273  1.0626 -0.4541
 7812TIP3   OH244850   2.886   5.521  16.284  0.3828  0.2983 -0.2576
 7812TIP3    H144851   2.958   5.584  16.278 -0.3737  1.2804  0.6055
 7812TIP3    H244852   2.807   5.575  16.293 -0.2042 -0.7562  1.4236
 7813TIP3   OH244853   1.421   2.246  14.283  0.4922  0.1498 -0.0132
 7813TIP3    H144854   1.426   2.336  14.316  2.3974  0.8344 -1.9591
 7813TIP3    H244855   1.329   2.233  14.260  0.5262  2.4067 -1.6956
 7814TIP3   OH244856   6.186   5.974  16.661 -0.6222 -0.0696 -0.0843
 7814TIP3    H144857   6.276   5.942  16.664 -0.1127  1.2023 -1.0248
 7814TIP3    H244858   6.139   5.908  16.610 -0.5351 -1.3746  1.4440
 7815TIP3   OH244859   1.276   6.557   3.073 -0.3906  0.0125  0.5401
 7815TIP3    H144860   1.269   6.599   3.159  0.8335  1.7063 -0.1227
 7815TIP3    H244861   1.268   6.630   3.011 -0.1167 -1.0182 -0.7432
 7816TIP3   OH244862   1.542   4.231   4.699  0.3509 -0.5402  0.4528
 7816TIP3    H144863   1.456   4.269   4.719  0.4458  0.4177 -0.8250
 7816TIP3    H244864   1.532   4.195   4.611  1.8265  1.5784 -0.6851
 7817TIP3   OH244865   6.764   6.563   3.470 -0.0957 -0.0998  0.2748
 7817TIP3    H144866   6.769   6.570   3.565  1.7286 -1.3446  0.3126
 7817TIP3    H244867   6.702   6.493   3.454  1.5010 -1.6687  0.6720
 7818TIP3   OH244868   6.762   4.181   1.802  0.4844 -0.4691 -0.2085
 7818TIP3    H144869   6.705   4.156   1.875  1.4951 -0.5738  0.5804
 7818TIP3    H244870   6.765   4.104   1.745 -1.6212  0.1629 -1.2713
 7819TIP3   OH244871   6.522   5.068  11.779  0.1147 -0.0510 -0.0749
 7819TIP3    H144872   6.605   5.062  11.827 -0.9064 -0.6699  1.7326
 7819TIP3    H244873   6.509   4.981  11.743 -0.0842 -0.1585  0.2523
 7820TIP3   OH244874   1.545   1.445  11.461  0.1437 -0.0820  0.1468
 7820TIP3    H144875   1.535   1.414  11.371  0.9551 -1.5632  0.5412
 7820TIP3    H244876   1.558   1.539  11.453  0.5734 -0.2474 -1.3130
 7821TIP3   OH244877   4.801   4.707   5.771 -0.6052  0.0645 -0.0219
 7821TIP3    H144878   4.799   4.612   5.781  2.3954 -0.0677  0.4178
 7821TIP3    H244879   4.773   4.741   5.856 -1.0529 -0.4433  0.0345
 7822TIP3   OH244880   6.733   4.934  14.715  0.0257 -0.7606  0.4943
 7822TIP3    H144881   6.657   4.976  14.674  0.3521 -1.2130 -0.6303
 7822TIP3    H244882   6.770   4.879  14.646  0.3770 -1.8839  1.5368
 7823TIP3   OH244883   3.375   6.064  11.756  0.3199 -0.3709  0.1812
 7823TIP3    H144884   3.315   6.024  11.693 -0.7678 -1.3825  1.7862
 7823TIP3    H244885   3.333   6.146  11.781  0.5882 -0.1307 -0.1437
 7824TIP3   OH244886   0.790   2.750  13.164  0.0444  0.3365  0.1074
 7824TIP3    H144887   0.826   2.665  13.189  1.0403 -0.0300 -2.3191
 7824TIP3    H244888   0.696   2.734  13.155  0.1668 -0.4054  0.0570
 7825TIP3   OH244889   5.901   1.906   2.057  0.1430 -0.4931  0.2544
 7825TIP3    H144890   5.821   1.925   2.106  1.3414 -0.2328  2.2176
 7825TIP3    H244891   5.957   1.983   2.070  1.8943 -1.8785  1.5450
 7826TIP3   OH244892   0.159   2.733  14.602  0.3043 -0.3170 -0.0643
 7826TIP3    H144893   0.235   2.715  14.656  0.8564 -1.5673 -1.2112
 7826TIP3    H244894   0.089   2.678  14.638  0.3031 -0.1498  0.1878
 7827TIP3   OH244895   2.738   3.002  15.919  0.2916 -0.3949 -0.7159
 7827TIP3    H144896   2.762   2.912  15.894  0.5713 -0.9022  1.2266
 7827TIP3    H244897   2.657   2.992  15.968 -0.4820  0.6203 -1.7373
 7828TIP3   OH244898   0.107   0.731  10.841 -0.8318  0.7277  0.6839
 7828TIP3    H144899   0.188   0.763  10.802 -0.7766 -0.2939 -0.0797
 7828TIP3    H244900   0.120   0.636  10.849 -2.8356  0.1433 -1.6858
 7829TIP3   OH244901   2.629   5.730   3.623  0.2906 -0.2699 -0.2840
 7829TIP3    H144902   2.702   5.728   3.562  0.3464  1.7100 -0.3454
 7829TIP3    H244903   2.554   5.702   3.571  0.6118 -0.1078 -0.8473
 7830TIP3   OH244904   3.177   0.738  14.108  0.4711 -0.3684  0.0075
 7830TIP3    H144905   3.159   0.740  14.014 -2.7999 -2.3420  0.4219
 7830TIP3    H244906   3.091   0.747  14.150  1.8520  0.9357  2.8793
 7831TIP3   OH244907   1.943   6.081  12.213 -0.1205  0.1588  0.4534
 7831TIP3    H144908   1.986   6.018  12.155  1.0773  0.0980  1.3718
 7831TIP3    H244909   1.875   6.030  12.257  2.1927 -1.2021  2.8095
 7832TIP3   OH244910   2.642   5.343  17.062 -0.3455  0.3420 -0.3419
 7832TIP3    H144911   2.722   5.291  17.054 -0.8924 -0.5900 -0.0304
 7832TIP3    H244912   2.669   5.432  17.042  1.2428  0.4429  1.8399
 7833TIP3   OH244913   0.000   2.725  11.437 -0.0705  0.2213  0.2356
 7833TIP3    H144914   0.032   2.674  11.362  1.6744  0.8556  0.4991
 7833TIP3    H244915   0.070   2.788  11.454 -0.7539  0.5606  1.9547
 7834TIP3   OH244916   0.930   6.298  11.104 -0.5647  0.3017 -0.1596
 7834TIP3    H144917   0.962   6.215  11.069  0.2804  0.2129  0.7817
 7834TIP3    H244918   0.878   6.273  11.180  1.1183  0.6764  1.1883
 7835TIP3   OH244919   6.291   1.898   3.065  0.5223  0.1872  0.2707
 7835TIP3    H144920   6.245   1.818   3.039 -1.1649  1.4833 -0.9391
 7835TIP3    H244921   6.292   1.895   3.160  0.2376 -1.1338  0.2549
 7836TIP3   OH244922   0.705   5.294   0.125 -0.5594  0.4332 -0.2649
 7836TIP3    H144923   0.738   5.349   0.196 -0.9846  0.8994 -0.4178
 7836TIP3    H244924   0.619   5.264   0.155  0.0907 -0.9743  0.2354
 7837TIP3   OH244925   4.424   2.654   2.817  0.4641 -0.3601 -0.5357
 7837TIP3    H144926   4.346   2.651   2.871  1.5221  0.5809  1.1293
 7837TIP3    H244927   4.392   2.665   2.728 -1.2836 -0.2036  0.0877
 7838TIP3   OH244928   4.404   6.251   1.746 -0.1646 -0.6420 -0.0062
 7838TIP3    H144929   4.357   6.327   1.712  2.5739  1.4042  0.5001
 7838TIP3    H244930   4.453   6.284   1.821  1.0673 -2.9441  0.3107
 7839TIP3   OH244931   3.086   4.173   6.186 -0.5181 -0.1249 -0.6292
 7839TIP3    H144932   3.077   4.190   6.092  0.3962 -1.1399 -0.9222
 7839TIP3    H244933   3.005   4.204   6.224 -0.4491  1.3324 -1.6107
 7840TIP3   OH244934   1.159   0.585   5.207  0.2179  0.0938 -0.6081
 7840TIP3    H144935   1.197   0.508   5.165  1.6851  1.9655 -2.9905
 7840TIP3    H244936   1.082   0.606   5.153 -1.2562 -0.6425  1.0937
 7841TIP3   OH244937   0.634   3.027  16.141 -0.2794  0.1254  0.3062
 7841TIP3    H144938   0.658   3.118  16.155  0.4928  0.2012 -1.2752
 7841TIP3    H244939   0.626   3.018  16.046 -0.3677 -1.4333  0.4273
 7842TIP3   OH244940   2.560   3.672  12.026  0.1162 -0.0469  0.6638
 7842TIP3    H144941   2.578   3.581  12.049 -3.4156 -0.8468  0.8519
 7842TIP3    H244942   2.522   3.710  12.105 -0.3549  0.9803 -0.0352
 7843TIP3   OH244943   2.930   2.155   4.752 -0.0577 -0.2980 -0.0560
 7843TIP3    H144944   2.927   2.108   4.835 -1.0981 -0.5319 -0.2056
 7843TIP3    H244945   2.856   2.216   4.756 -0.0495 -0.2317 -0.7581
 7844TIP3   OH244946   5.156   2.968  11.076  1.3982 -0.4697 -0.3335
 7844TIP3    H144947   5.078   3.023  11.083  1.6643 -0.1406  0.1454
 7844TIP3    H244948   5.127   2.881  11.102  0.9216 -0.6126 -1.3034
 7845TIP3   OH244949   1.622   4.462  12.015  0.5215 -0.7961  0.5387
 7845TIP3    H144950   1.623   4.445  11.920  0.2993  1.3100  0.1109
 7845TIP3    H244951   1.576   4.386  12.051  0.2940 -1.4887 -1.0778
 7846TIP3   OH244952   5.001   3.273   0.973  0.3186  0.0945 -0.2278
 7846TIP3    H144953   5.096   3.278   0.972  0.3180  0.1174 -0.7359
 7846TIP3    H244954   4.982   3.181   0.995  0.4659 -0.0264 -0.5987
 7847TIP3   OH244955   0.539   5.044  15.647 -0.7325 -0.2916 -0.1048
 7847TIP3    H144956   0.513   5.130  15.681  0.4313 -0.6675  1.9402
 7847TIP3    H244957   0.561   5.059  15.556 -1.0235  1.4867  0.0905
 7848TIP3   OH244958   3.282   5.295  14.797 -0.5236  0.1508  0.2168
 7848TIP3    H144959   3.220   5.362  14.825  0.6956  1.3859  0.0286
 7848TIP3    H244960   3.332   5.336  14.727  0.8138 -0.6456  0.6654
 7849TIP3   OH244961   4.609   1.381   0.765 -0.0973  0.3540  0.6240
 7849TIP3    H144962   4.549   1.321   0.811  0.2989 -1.9654 -1.6494
 7849TIP3    H244963   4.694   1.339   0.773  0.2306  0.7123 -0.8602
 7850TIP3   OH244964   0.580   4.137  16.160  0.3203 -0.0559 -0.3236
 7850TIP3    H144965   0.558   4.059  16.212  1.7727  0.5281  1.2744
 7850TIP3    H244966   0.665   4.117  16.122  0.7239  0.7506  0.1327
 7851TIP3   OH244967   2.587   4.263  16.029 -0.1563  0.0070 -0.5291
 7851TIP3    H144968   2.509   4.319  16.030 -0.1260  0.0715 -1.2730
 7851TIP3    H244969   2.606   4.247  16.121  0.1036  1.5978 -0.2785
 7852TIP3   OH244970   3.601   4.755  15.784 -0.0431  0.1363  0.4551
 7852TIP3    H144971   3.521   4.703  15.771 -0.4872  0.7955  0.5120
 7852TIP3    H244972   3.574   4.845  15.768  0.9074  0.2799 -0.4412
 7853TIP3   OH244973   3.125   4.344  14.019 -1.1529 -0.5412 -0.5976
 7853TIP3    H144974   3.074   4.394  13.955 -0.5594 -1.3016 -1.6836
 7853TIP3    H244975   3.116   4.394  14.100 -1.2847  0.8688 -1.4462
 7854TIP3   OH244976   3.472   1.749   1.476  0.3354  0.0141  0.4826
 7854TIP3    H144977   3.445   1.693   1.403  0.7158 -0.1438  0.4639
 7854TIP3    H244978   3.393   1.756   1.530  0.0142  0.2288 -0.0021
 7855TIP3   OH244979   0.886   3.778  12.563 -0.6749 -0.2093  0.3415
 7855TIP3    H144980   0.831   3.856  12.556 -0.4717 -0.0242  0.7680
 7855TIP3    H244981   0.975   3.813  12.567 -0.5564 -0.4857  0.1220
 7856TIP3   OH244982   5.254   2.699   5.691  0.3075  0.2743  0.1731
 7856TIP3    H144983   5.335   2.655   5.665  0.5333  0.0206  1.2479
 7856TIP3    H244984   5.271   2.729   5.780  0.5658  3.5294 -0.8550
 7857TIP3   OH244985   2.246   3.297   2.770 -0.0649  0.8547 -0.1002
 7857TIP3    H144986   2.186   3.346   2.715  0.8359  1.1390 -0.8646
 7857TIP3    H244987   2.291   3.364   2.822  0.8974  0.8420 -0.8760
 7858TIP3   OH244988   4.918   0.146  17.140  0.0604  0.1507  0.2165
 7858TIP3    H144989   4.836   0.195  17.152 -0.4019 -0.2473 -1.1956
 7858TIP3    H244990   4.983   0.214  17.117 -0.7741  0.1175 -2.6518
 7859TIP3   OH244991   3.373   4.082  13.251  0.5350 -0.5652  0.3267
 7859TIP3    H144992   3.407   4.056  13.337  2.2727 -0.3937 -0.2635
 7859TIP3    H244993   3.324   4.163  13.268  1.0098 -0.4336  1.1361
 7860TIP3   OH244994   4.116   5.898  12.207 -0.3856 -0.1991 -0.0086
 7860TIP3    H144995   4.187   5.893  12.143  0.0180 -1.0308  0.4785
 7860TIP3    H244996   4.096   5.991  12.215 -0.9158 -0.1209 -1.8404
 7861TIP3   OH244997   6.033   5.718   3.234  0.2174 -0.6133 -0.2494
 7861TIP3    H144998   6.047   5.694   3.142 -0.8758  1.4337 -1.0192
 7861TIP3    H244999   6.056   5.811   3.238 -3.6147  0.4725  0.5075
 7862TIP3   OH245000   6.684   2.539   0.912 -0.3780  0.0136  0.5070
 7862TIP3    H145001   6.716   2.621   0.876  0.3351  0.5908  2.3440
 7862TIP3    H245002   6.638   2.497   0.839 -0.0544  1.6455 -0.6915
 7863TIP3   OH245003   2.891   5.222  15.515  0.0120 -0.0421  0.1149
 7863TIP3    H145004   2.798   5.206  15.500  0.3046 -0.9086 -0.9093
 7863TIP3    H245005   2.916   5.163  15.586 -0.2999  0.5095  0.6956
 7864TIP3   OH245006   6.106   2.620   1.449 -0.2359  0.0037 -0.4201
 7864TIP3    H145007   6.156   2.551   1.492  2.8896  1.3596 -1.5947
 7864TIP3    H245008   6.023   2.578   1.425  1.1572 -3.0622 -0.2992
 7865TIP3   OH245009   0.236   0.043  10.960  0.1373 -0.1577  0.6312
 7865TIP3    H145010   0.190   0.038  10.876  1.6822 -2.4550 -0.1704
 7865TIP3    H245011   0.304   0.109  10.946  2.4677 -2.7441 -1.1400
 7866TIP3   OH245012   3.710   6.110   3.626 -0.0673  0.0123 -0.5270
 7866TIP3    H145013   3.748   6.037   3.674  1.7946  0.7792 -0.7585
 7866TIP3    H245014   3.615   6.100   3.639  0.1605 -2.0960 -0.1023
 7867TIP3   OH245015   1.298   5.605   4.655 -0.3847  0.1593  0.5210
 7867TIP3    H145016   1.238   5.661   4.606  0.5607  0.0366 -0.8254
 7867TIP3    H245017   1.279   5.517   4.623 -0.4692 -0.0519  1.1433
 7868TIP3   OH245018   1.604   0.482  12.129 -0.3988  0.8005 -0.0329
 7868TIP3    H145019   1.550   0.434  12.066 -0.6038  1.2772 -0.2320
 7868TIP3    H245020   1.693   0.451  12.114 -0.4936  0.6733 -0.3375
 7869TIP3   OH245021   4.875   5.152  12.385  0.1471 -0.7234  0.2603
 7869TIP3    H145022   4.915   5.239  12.391  0.1391 -0.5027 -1.9664
 7869TIP3    H245023   4.948   5.091  12.393  0.4540 -0.4301 -0.2573
 7870TIP3   OH245024   2.834   5.727  16.584  0.1989  0.4277  0.5252
 7870TIP3    H145025   2.752   5.696  16.544 -0.0401  1.4733  0.1775
 7870TIP3    H245026   2.829   5.695  16.674 -0.3372  0.0165  0.3617
 7871TIP3   OH245027   6.708   2.102   4.117  0.2103  0.0452  0.5611
 7871TIP3    H145028   6.663   2.020   4.138  1.0902 -0.0764  2.1020
 7871TIP3    H245029   6.644   2.170   4.139  0.1024 -0.1897  1.0037
 7872TIP3   OH245030   1.923   0.399   1.864  0.4967 -0.2826  0.1699
 7872TIP3    H145031   1.967   0.470   1.817 -0.2519  1.1548  1.5471
 7872TIP3    H245032   1.915   0.329   1.799  1.9839  0.5643 -1.0042
 7873TIP3   OH245033   0.056   0.902  12.690 -0.0854  0.4511  0.6951
 7873TIP3    H145034   0.115   0.892  12.765 -0.5894  1.4395  1.2480
 7873TIP3    H245035   0.023   0.992  12.697 -1.8594 -0.1482  0.5680
 7874TIP3   OH245036   5.853   6.639  14.808  0.2870  0.5119 -0.3495
 7874TIP3    H145037   5.883   6.699  14.876  1.0853  0.7724 -0.9288
 7874TIP3    H245038   5.891   6.672  14.727 -0.4468  0.0530 -0.8938
 7875TIP3   OH245039   4.003   0.011  16.124  0.0660 -0.0595 -0.0993
 7875TIP3    H145040   4.003   0.004  16.219  0.5588 -1.4501 -0.1790
 7875TIP3    H245041   4.084   0.058  16.103  0.2346 -0.2404  0.1424
 7876TIP3   OH245042   5.926   4.557  14.132  0.4404  0.4525 -0.0927
 7876TIP3    H145043   5.901   4.545  14.040 -1.2722  2.3152  0.0575
 7876TIP3    H245044   5.896   4.477  14.176 -0.6259  0.4351 -0.8232
 7877TIP3   OH245045   1.732   1.611  14.474 -0.0940  0.2512  0.2963
 7877TIP3    H145046   1.663   1.559  14.433 -0.3717 -0.1879  1.2707
 7877TIP3    H245047   1.694   1.639  14.557 -0.0352  2.2703 -0.3106
 7878TIP3   OH245048   1.097   0.153   5.236 -0.0523  0.3942  0.0981
 7878TIP3    H145049   1.121   0.063   5.258  0.0476 -0.0247 -1.6017
 7878TIP3    H245050   1.145   0.171   5.155 -1.7390  1.2084 -0.7700
 7879TIP3   OH245051   6.116   6.721  12.128  0.0318 -0.0555 -0.0815
 7879TIP3    H145052   6.052   6.716  12.200 -1.4122  1.8231 -1.1553
 7879TIP3    H245053   6.101   6.807  12.088  1.6580 -0.5320 -1.8592
 7880TIP3   OH245054   1.998   4.958   3.192 -0.2629  0.2983 -0.7305
 7880TIP3    H145055   1.922   5.015   3.176 -1.2608 -0.4408  1.0483
 7880TIP3    H245056   1.977   4.877   3.147 -0.2414  0.3054 -0.7530
 7881TIP3   OH245057   0.800   2.111  14.273  0.0130  0.2257 -0.1342
 7881TIP3    H145058   0.760   2.167  14.207  0.4958 -1.2855 -1.8012
 7881TIP3    H245059   0.818   2.029  14.227  0.1350 -1.0035  1.9609
 7882TIP3   OH245060   0.888   4.888  11.126 -0.0854  0.5576 -0.1774
 7882TIP3    H145061   0.983   4.902  11.120 -0.0835  0.3563 -0.6445
 7882TIP3    H245062   0.863   4.859  11.038 -0.4416 -0.2447  0.1839
 7883TIP3   OH245063   4.975   6.163  12.218  0.3575 -0.2431 -0.4269
 7883TIP3    H145064   5.018   6.144  12.300  0.0569  0.8931  0.0186
 7883TIP3    H245065   4.927   6.244  12.234 -2.1398 -1.5501 -0.8182
 7884TIP3   OH245066   5.663   3.770   1.963 -0.6424  0.1631  0.1101
 7884TIP3    H145067   5.711   3.845   1.929 -1.5875  0.4815 -0.5778
 7884TIP3    H245068   5.632   3.725   1.884  1.0984 -1.7716  0.4470
 7885TIP3   OH245069   4.768   3.107  14.926 -0.3842 -0.6209 -0.3193
 7885TIP3    H145070   4.804   3.189  14.892 -1.7495  0.1747  0.0792
 7885TIP3    H245071   4.675   3.124  14.935 -0.7311 -2.3039 -0.4181
 7886TIP3   OH245072   5.224   0.197   4.923  0.2856 -0.6754  0.1656
 7886TIP3    H145073   5.264   0.111   4.916 -1.5632 -1.5616 -0.1493
 7886TIP3    H245074   5.202   0.221   4.833  2.3799  0.9840  0.0221
 7887TIP3   OH245075   4.640   5.339  12.867  0.0604  0.0164  0.8964
 7887TIP3    H145076   4.611   5.396  12.938 -2.1856 -0.6474  0.5724
 7887TIP3    H245077   4.565   5.284  12.847  1.1300 -0.8817 -0.9624
 7888TIP3   OH245078   3.075   1.026   1.966 -0.0220 -0.0914  0.2241
 7888TIP3    H145079   3.037   1.089   1.904  1.8527  0.7017 -0.1965
 7888TIP3    H245080   3.014   1.026   2.040 -0.4158  1.7751 -0.0424
 7889TIP3   OH245081   2.041   3.869   2.513  0.6896 -0.0741 -0.1377
 7889TIP3    H145082   2.090   3.951   2.504  2.9679 -1.5660 -3.4388
 7889TIP3    H245083   2.034   3.855   2.608  2.6603  2.5620  0.5043
 7890TIP3   OH245084   4.742   2.601  15.492 -0.1711 -0.6369  0.1471
 7890TIP3    H145085   4.747   2.569  15.402 -2.3278 -0.2078 -0.1828
 7890TIP3    H245086   4.796   2.680  15.492  2.9293 -2.5891  0.2697
 7891TIP3   OH245087   1.577   0.035  11.479 -0.8070  0.0597 -0.0893
 7891TIP3    H145088   1.567   0.115  11.530 -1.7341 -0.3196  0.3301
 7891TIP3    H245089   1.625   0.063  11.401 -0.6396  0.9148  0.3076
 7892TIP3   OH245090   5.189   1.315   5.565 -0.2701  0.0554  0.5892
 7892TIP3    H145091   5.249   1.247   5.595 -0.7477 -0.1757  1.0323
 7892TIP3    H245092   5.246   1.389   5.544  0.2817 -0.5912 -0.2333
 7893TIP3   OH245093   1.409   5.589  11.130 -0.0042  0.1259  0.1004
 7893TIP3    H145094   1.347   5.661  11.121 -0.5780  0.1901  3.4249
 7893TIP3    H245095   1.422   5.580  11.224  0.3723 -3.8519 -0.1755
 7894TIP3   OH245096   5.035   1.499  12.024 -0.0396  0.2556  0.4498
 7894TIP3    H145097   4.943   1.520  12.011 -0.3756 -1.8565 -1.0880
 7894TIP3    H245098   5.036   1.445  12.104 -0.2124 -0.1289  0.1947
 7895TIP3   OH245099   6.309   6.074  14.402 -0.3303  0.0366  0.5445
 7895TIP3    H145100   6.361   6.080  14.321  0.1704  0.1216  0.8662
 7895TIP3    H245101   6.331   6.154  14.450  0.5656 -0.7222  1.4579
 7896TIP3   OH245102   0.133   4.845   4.163 -0.3071  0.0486 -0.3659
 7896TIP3    H145103   0.186   4.783   4.113  0.6911  1.6261 -1.3296
 7896TIP3    H245104   0.120   4.802   4.248  0.7020 -1.2842 -0.8548
 7897TIP3   OH245105   4.846   0.583  12.979 -0.1465  0.3120  0.5400
 7897TIP3    H145106   4.876   0.533  13.055 -0.3135 -0.6529 -0.0085
 7897TIP3    H245107   4.885   0.538  12.904 -0.2895  1.0211  0.0274
 7898TIP3   OH245108   3.848   0.930   3.692 -0.3020 -0.3520 -0.1348
 7898TIP3    H145109   3.824   1.023   3.686 -1.1001 -0.5714 -0.5597
 7898TIP3    H245110   3.790   0.887   3.629  1.0723 -0.9599 -1.0085
 7899TIP3   OH245111   3.243   5.920   4.939  0.4353 -0.0018 -0.2444
 7899TIP3    H145112   3.233   5.827   4.955 -1.8188  0.4141  1.0851
 7899TIP3    H245113   3.289   5.925   4.855  0.6882 -2.2811 -0.2896
 7900TIP3   OH245114   3.952   6.381  13.912 -0.3869 -0.0979  0.8742
 7900TIP3    H145115   3.919   6.308  13.860  0.1128 -0.4611  1.0564
 7900TIP3    H245116   3.900   6.380  13.992 -1.2751  0.5682  0.3157
 7901TIP3   OH245117   3.727   0.423   1.241 -0.2705  0.2587  0.0312
 7901TIP3    H145118   3.632   0.415   1.245 -0.0921 -1.6886  1.5945
 7901TIP3    H245119   3.750   0.477   1.317 -0.1501  1.5787 -0.8994
 7902TIP3   OH245120   1.114   3.095  14.865  0.6623  0.0647 -0.4902
 7902TIP3    H145121   1.029   3.052  14.851 -0.0026  1.5403 -1.2155
 7902TIP3    H245122   1.165   3.032  14.915 -1.4264 -0.2694  1.3778
 7903TIP3   OH245123   5.308   1.444   1.445 -0.0443  0.0269 -1.0373
 7903TIP3    H145124   5.238   1.457   1.509 -0.8617  1.3761 -2.1501
 7903TIP3    H245125   5.378   1.401   1.494 -0.3901  1.5700  0.9528
 7904TIP3   OH245126   0.524   4.003   5.729  0.1116  0.6892  0.6911
 7904TIP3    H145127   0.529   4.037   5.819 -1.3030  0.8655  0.7136
 7904TIP3    H245128   0.439   4.031   5.697  0.3438  0.0887 -0.5061
 7905TIP3   OH245129   1.931   2.115   3.745  0.5957 -0.1483 -0.7719
 7905TIP3    H145130   1.947   2.208   3.726 -1.2423  0.3618 -0.0872
 7905TIP3    H245131   1.851   2.095   3.697 -0.4175 -0.6625  1.0700
 7906TIP3   OH245132   6.017   2.897   4.468 -1.0553 -0.2166  0.5269
 7906TIP3    H145133   5.998   2.882   4.375  1.0411  0.2205 -0.0262
 7906TIP3    H245134   6.029   2.809   4.505  0.7931 -0.3459 -0.2810
 7907TIP3   OH245135   2.891   5.514   0.192 -0.4422 -0.8188  0.1093
 7907TIP3    H145136   2.911   5.565   0.114 -2.5370  2.1332  1.2970
 7907TIP3    H245137   2.798   5.495   0.185 -0.3447 -1.8385  1.2116
 7908TIP3   OH245138   6.249   3.748   3.159 -0.4363  0.0139 -0.7222
 7908TIP3    H145139   6.299   3.669   3.141 -0.3389 -0.4382  1.2898
 7908TIP3    H245140   6.159   3.718   3.173 -0.2312  0.0844  0.9672
 7909TIP3   OH245141   0.475   5.850  15.804 -1.0901 -0.0364  0.0206
 7909TIP3    H145142   0.542   5.786  15.826 -1.1642 -0.1222 -0.0016
 7909TIP3    H245143   0.434   5.816  15.724 -1.6470 -0.3601  0.4377
 7910TIP3   OH245144   2.063   4.266   2.423  0.0399  0.2994 -0.4824
 7910TIP3    H145145   2.062   4.219   2.506  3.0139 -0.0701 -0.5584
 7910TIP3    H245146   1.986   4.323   2.428 -1.8974 -2.2253  0.9381
 7911TIP3   OH245147   0.129   4.121   0.621  0.3219 -0.3160 -0.6410
 7911TIP3    H145148   0.102   4.206   0.585 -1.9197 -0.7611 -0.1124
 7911TIP3    H245149   0.115   4.059   0.550  1.6606 -0.3322 -0.9217
 7912TIP3   OH245150   0.174   0.977   5.352  0.2488  0.4261 -0.2159
 7912TIP3    H145151   0.219   0.953   5.433  1.6774 -2.1879 -1.6246
 7912TIP3    H245152   0.082   0.961   5.370  0.6192 -0.9124  0.6845
 7913TIP3   OH245153   4.960   1.851   0.992  0.1675 -0.1921  0.4372
 7913TIP3    H145154   4.977   1.942   1.016 -1.3317  0.1548  0.3314
 7913TIP3    H245155   4.872   1.852   0.955  0.9598 -1.3456 -1.6312
 7914TIP3   OH245156   3.024   2.346   6.852  0.4482 -0.2065  0.2958
 7914TIP3    H145157   3.022   2.361   6.758  1.5969 -0.1235  0.2655
 7914TIP3    H245158   2.984   2.261   6.864  0.6916 -0.4130 -0.3213
 7915TIP3   OH245159   4.439   0.269  16.994 -0.4428 -0.1545 -0.1176
 7915TIP3    H145160   4.349   0.253  17.023 -0.2097 -1.8015 -0.2602
 7915TIP3    H245161   4.459   0.197  16.935  1.1639 -0.0886  0.3190
 7916TIP3   OH245162   5.512   6.204  11.172  0.4354  0.0887  0.8728
 7916TIP3    H145163   5.534   6.150  11.248  1.1771 -1.3238 -0.2958
 7916TIP3    H245164   5.491   6.141  11.103  2.9197  1.1742 -1.0438
 7917TIP3   OH245165   2.045   6.029  14.637 -0.0578 -0.7329  0.9596
 7917TIP3    H145166   2.047   5.975  14.558  1.6750 -0.1005  0.5362
 7917TIP3    H245167   1.971   5.995  14.687 -0.7892 -1.5708 -0.6300
 7918TIP3   OH245168   3.782   1.056   4.943  0.0050 -0.0752 -0.2883
 7918TIP3    H145169   3.855   1.088   4.890 -0.0318  1.5407  0.5675
 7918TIP3    H245170   3.708   1.113   4.920 -0.3707 -0.2363  0.4747
 7919TIP3   OH245171   0.135   1.148   3.835 -0.0243  0.6925  0.4086
 7919TIP3    H145172   0.104   1.211   3.900 -0.8035  1.7151 -0.9089
 7919TIP3    H245173   0.096   1.065   3.862  0.7567  0.8000  1.9888
 7920TIP3   OH245174   5.336   4.636   5.348  0.4779  0.3047  0.5653
 7920TIP3    H145175   5.328   4.727   5.376 -1.3508  0.2443  0.3418
 7920TIP3    H245176   5.386   4.640   5.267 -0.1193  1.1812  0.2337
 7921TIP3   OH245177   3.286   5.040   4.086 -0.6933 -0.0829 -0.3136
 7921TIP3    H145178   3.318   5.081   4.005  1.8695 -0.0039  0.6359
 7921TIP3    H245179   3.279   5.112   4.149  3.4727 -0.7675  1.2527
 7922TIP3   OH245180   5.122   2.439   2.454 -0.0062  0.4546  0.3566
 7922TIP3    H145181   5.084   2.524   2.431  1.1087  0.7031 -0.6754
 7922TIP3    H245182   5.182   2.458   2.526  0.3260  0.5674  0.0519
 7923TIP3   OH245183   6.583   3.565  16.640  0.3422 -0.6490 -0.1364
 7923TIP3    H145184   6.587   3.653  16.678 -0.7804 -0.3953 -0.5758
 7923TIP3    H245185   6.528   3.574  16.563  2.1401 -1.2619 -1.5786
 7924TIP3   OH245186   2.864   5.141  16.291  0.4701  0.3255  0.0327
 7924TIP3    H145187   2.862   5.086  16.214  0.9504  0.5438 -0.1394
 7924TIP3    H245188   2.821   5.089  16.359  0.0800  0.1192 -0.3674
 7925TIP3   OH245189   2.995   0.055   3.614 -0.0843 -0.2541  0.2503
 7925TIP3    H145190   2.982   0.147   3.591 -0.9201 -0.0297  1.5068
 7925TIP3    H245191   3.078   0.052   3.661  0.8294 -0.4590 -1.2985
 7926TIP3   OH245192   0.313   4.470   3.443 -0.3707  0.3019  0.7629
 7926TIP3    H145193   0.384   4.499   3.501  0.8927 -0.3487 -0.4159
 7926TIP3    H245194   0.356   4.448   3.361 -1.9648 -0.0347 -0.0249
 7927TIP3   OH245195   1.769   6.296  14.810  0.0119 -1.1012  0.7115
 7927TIP3    H145196   1.787   6.234  14.739  0.7954 -1.7270  1.4373
 7927TIP3    H245197   1.810   6.257  14.887 -1.4065 -0.7591  1.6688
 7928TIP3   OH245198   3.136   1.257  10.076  0.3061  0.4114 -0.8369
 7928TIP3    H145199   3.151   1.240   9.983  0.8658  1.9941 -1.0642
 7928TIP3    H245200   3.049   1.220  10.093 -0.0037  0.4991 -2.0973
 7929TIP3   OH245201   2.288   3.753   3.853 -0.5434 -0.4111 -0.4370
 7929TIP3    H145202   2.370   3.803   3.853 -0.6085 -0.2770  0.4952
 7929TIP3    H245203   2.234   3.795   3.786 -0.7170  1.0152  0.5504
 7930TIP3   OH245204   5.844   3.784   3.842 -0.4967 -0.3419 -0.1888
 7930TIP3    H145205   5.888   3.742   3.768 -0.2456  1.5771 -1.1931
 7930TIP3    H245206   5.868   3.730   3.917 -0.0580 -1.8616 -1.3513
 7931TIP3   OH245207   2.293   0.065  15.812 -0.7405 -0.3425 -0.5537
 7931TIP3    H145208   2.351   0.140  15.820  0.6012 -1.3159 -0.8638
 7931TIP3    H245209   2.343  -0.009  15.847 -2.5980 -0.8681  1.2391
 7932TIP3   OH245210   2.441   5.830   0.724 -0.1024  0.1049  0.0827
 7932TIP3    H145211   2.391   5.755   0.692 -0.9295  0.3358  0.7866
 7932TIP3    H245212   2.383   5.904   0.713  0.0902  0.3868  0.8983
 7933TIP3   OH245213   5.796   0.449  12.440  0.4215 -0.2413  0.3259
 7933TIP3    H145214   5.868   0.389  12.458  0.1873 -0.1984  1.4942
 7933TIP3    H245215   5.835   0.536  12.445  0.8335 -0.2635 -1.7011
 7934TIP3   OH245216   3.202   1.984  14.069 -0.0445 -0.2714  0.7756
 7934TIP3    H145217   3.288   1.989  14.027 -0.7295  0.8276 -0.5849
 7934TIP3    H245218   3.188   1.890  14.084  0.5953 -0.6477 -0.7578
 7935TIP3   OH245219   4.486   5.307   1.877 -0.1195 -0.1411 -0.3930
 7935TIP3    H145220   4.567   5.293   1.827  0.1980  0.4053 -0.0315
 7935TIP3    H245221   4.470   5.223   1.919  1.7576  0.4726  1.7302
 7936TIP3   OH245222   5.949   4.999   3.910  0.0698  0.3378  0.0353
 7936TIP3    H145223   5.876   4.980   3.851  0.6311  0.9830 -0.8982
 7936TIP3    H245224   5.911   5.054   3.978 -0.9296 -1.6747  1.1847
 7937TIP3   OH245225   5.933   1.433  14.612  0.2280  0.1806  0.6513
 7937TIP3    H145226   5.857   1.398  14.660 -0.0935  1.4615  1.1102
 7937TIP3    H245227   5.950   1.368  14.543 -0.3316 -0.8745  1.4795
 7938TIP3   OH245228   0.942   3.922  17.214  0.4068  0.1074 -0.2424
 7938TIP3    H145229   1.027   3.951  17.181  0.8427 -2.4246 -1.6067
 7938TIP3    H245230   0.956   3.911  17.309  0.8811  1.8917 -0.0759
 7939TIP3   OH245231   3.961   2.324   3.895 -0.2875 -0.2797  0.1917
 7939TIP3    H145232   4.049   2.317   3.930 -0.5978  0.4433  1.1588
 7939TIP3    H245233   3.956   2.412   3.858 -0.4385 -0.5110 -0.3550
 7940TIP3   OH245234   0.719   0.379   0.568 -0.4633  0.3302  0.7165
 7940TIP3    H145235   0.631   0.391   0.532  0.0480  3.7076  0.1871
 7940TIP3    H245236   0.773   0.439   0.516  1.3991  1.1638  3.4327
 7941TIP3   OH245237   2.235   1.742  15.567 -0.3264  0.7951  0.1594
 7941TIP3    H145238   2.306   1.763  15.628 -0.4329 -0.1198  0.6121
 7941TIP3    H245239   2.219   1.825  15.521  0.8684  1.0801  0.2077
 7942TIP3   OH245240   5.807   1.680  15.144 -0.0276 -0.0053  0.0143
 7942TIP3    H145241   5.798   1.737  15.221 -1.1868 -0.2288  0.0572
 7942TIP3    H245242   5.788   1.738  15.070  0.8517  0.1510 -0.1015
 7943TIP3   OH245243   1.938   2.844  15.225 -0.0211  0.3215  0.2136
 7943TIP3    H145244   2.002   2.785  15.185  0.1923  0.1160  0.8422
 7943TIP3    H245245   1.962   2.931  15.193 -0.0386  0.1260 -0.3377
 7944TIP3   OH245246   5.411   0.406   5.876  0.2664 -0.0793 -0.0582
 7944TIP3    H145247   5.353   0.481   5.862 -0.2366 -0.2573  0.9989
 7944TIP3    H245248   5.444   0.385   5.789 -2.4605 -0.9357 -0.9844
 7945TIP3   OH245249   2.309   4.791  14.605  0.0437  0.0249  0.1367
 7945TIP3    H145250   2.311   4.877  14.648  0.6883  0.8442 -1.4392
 7945TIP3    H245251   2.341   4.808  14.517 -0.1163 -1.8040 -0.3116
 7946TIP3   OH245252   2.595   5.155  15.280  0.0179  0.4473  0.5263
 7946TIP3    H145253   2.628   5.110  15.203 -2.0410  0.1834 -0.2753
 7946TIP3    H245254   2.656   5.131  15.350  0.1715 -1.9318 -0.3151
 7947TIP3   OH245255   4.032   0.028  16.423 -0.0258 -0.0857  0.2643
 7947TIP3    H145256   3.983  -0.045  16.462  0.2609 -1.2299 -1.4179
 7947TIP3    H245257   3.975   0.104  16.435  0.5748 -0.0219  4.0155
 7948TIP3   OH245258   5.210   4.530   4.183 -0.6447  0.1238 -0.1919
 7948TIP3    H145259   5.175   4.619   4.184  1.3096  0.9479  0.3423
 7948TIP3    H245260   5.303   4.542   4.161 -0.3963 -1.8166 -0.3457
 7949TIP3   OH245261   0.137   6.115   4.124  0.1226 -0.1662  0.3755
 7949TIP3    H145262   0.230   6.106   4.103 -0.1148 -0.7395 -0.4976
 7949TIP3    H245263   0.135   6.129   4.218  1.2312  2.2027  0.1287
 7950TIP3   OH245264   4.513   1.751   2.923 -0.4726 -0.0465 -0.3094
 7950TIP3    H145265   4.428   1.774   2.960 -0.5265  0.6406 -0.8447
 7950TIP3    H245266   4.499   1.666   2.881 -0.7572 -0.1782  0.0493
 7951TIP3   OH245267   2.540   3.069  15.091 -0.4101 -0.1651 -0.2246
 7951TIP3    H145268   2.623   3.028  15.066 -0.8398 -0.7582 -0.7153
 7951TIP3    H245269   2.560   3.162  15.097  0.0096 -0.1432 -1.5912
 7952TIP3   OH245270   5.493   2.742  15.030  0.4128  0.1779  0.1955
 7952TIP3    H145271   5.512   2.649  15.019  1.5971  0.6584 -2.8032
 7952TIP3    H245272   5.579   2.784  15.030 -0.0654  1.5716 -3.5889
 7953TIP3   OH245273   4.064   4.217  16.980  0.0616  0.5669  0.3971
 7953TIP3    H145274   4.114   4.187  16.904 -0.6114  1.0974 -0.2731
 7953TIP3    H245275   3.986   4.257  16.942 -0.2258  0.9461  1.3737
 7954TIP3   OH245276   1.762   5.122   3.043  0.6720  0.3578 -0.4109
 7954TIP3    H145277   1.734   5.210   3.069  1.1120  0.8237 -1.4274
 7954TIP3    H245278   1.837   5.137   2.985  1.3195 -0.7369  0.1166
 7955TIP3   OH245279   4.276   3.395   1.584 -0.1991 -0.0571 -0.0049
 7955TIP3    H145280   4.284   3.301   1.569 -1.3625 -0.2384  0.4741
 7955TIP3    H245281   4.361   3.420   1.621 -0.1278 -1.0498  0.5370
 7956TIP3   OH245282   6.237   0.545  16.409 -0.5810 -0.0376  0.8829
 7956TIP3    H145283   6.173   0.492  16.361  0.4138  0.4159 -1.0314
 7956TIP3    H245284   6.220   0.524  16.501 -2.0113 -1.5878  0.3322
 7957TIP3   OH245285   1.087   4.959   3.697 -0.0458  0.2347  0.6921
 7957TIP3    H145286   1.060   4.919   3.780 -1.0577  0.9346  0.7187
 7957TIP3    H245287   1.029   4.919   3.632  1.5449 -1.2220  0.0934
 7958TIP3   OH245288   3.221   2.578   6.434  0.5796  0.4146  0.0774
 7958TIP3    H145289   3.296   2.621   6.474  0.4912  1.6339 -1.0047
 7958TIP3    H245290   3.150   2.591   6.497  1.0315  0.0759  0.6695
 7959TIP3   OH245291   0.569   4.192  14.202 -0.0548 -0.4493 -0.3334
 7959TIP3    H145292   0.597   4.201  14.293  1.9625  0.8201 -1.0032
 7959TIP3    H245293   0.573   4.098  14.185  0.2479 -0.6352  0.6866
 7960TIP3   OH245294   3.302   1.966   1.198  0.1611 -0.3659 -0.0211
 7960TIP3    H145295   3.381   1.958   1.252 -0.9001  0.5993  1.8019
 7960TIP3    H245296   3.245   1.895   1.229 -0.3326 -0.0107 -0.1063
 7961TIP3   OH245297   3.622   4.582  15.432  0.4577 -0.4420 -0.3094
 7961TIP3    H145298   3.638   4.500  15.479  0.7650 -0.6132 -0.7135
 7961TIP3    H245299   3.526   4.585  15.421  0.3238 -0.1151  0.8322
 7962TIP3   OH245300   0.523   0.156  16.580 -0.0814 -0.2460  0.4523
 7962TIP3    H145301   0.463   0.105  16.633 -1.2354 -0.3112 -0.8497
 7962TIP3    H245302   0.540   0.101  16.503 -0.6771  0.9496 -0.5733
 7963TIP3   OH245303   3.820   1.907  11.977  0.5417 -0.1587  0.2623
 7963TIP3    H145304   3.786   1.985  11.933  0.1259 -0.1055  0.6696
 7963TIP3    H245305   3.906   1.933  12.010  0.6690 -0.0667 -0.1362
 7964TIP3   OH245306   5.091   3.615   2.205 -0.4385 -0.5156 -0.1728
 7964TIP3    H145307   5.165   3.554   2.210  0.0211 -0.1496 -1.7367
 7964TIP3    H245308   5.022   3.564   2.162 -1.0815 -0.8101  1.1526
 7965TIP3   OH245309   4.073   4.572   1.152 -0.0201 -0.6123  0.0016
 7965TIP3    H145310   3.986   4.584   1.113  0.0125  1.5503  0.5077
 7965TIP3    H245311   4.128   4.636   1.108  0.7441 -0.2873  1.3878
 7966TIP3   OH245312   6.341   1.890  15.929  0.4114  0.8316  0.5933
 7966TIP3    H145313   6.286   1.850  15.996 -0.9347  0.4798 -0.6516
 7966TIP3    H245314   6.422   1.839  15.929 -0.9448 -1.5024 -0.4171
 7967TIP3   OH245315   6.703   3.163   3.092  0.2371  0.8721  0.0414
 7967TIP3    H145316   6.729   3.113   3.170 -0.5504 -1.4653 -1.0952
 7967TIP3    H245317   6.760   3.129   3.023  1.9199  3.9216 -0.2236
 7968TIP3   OH245318   1.476   1.352  15.991 -0.1717  0.2876  0.2804
 7968TIP3    H145319   1.417   1.393  15.927  0.5410  0.6078 -0.1759
 7968TIP3    H245320   1.447   1.261  15.995  0.6996 -0.1033 -1.5884
 7969TIP3   OH245321   0.560   0.290  11.452 -0.8487  0.1358 -0.6109
 7969TIP3    H145322   0.581   0.202  11.484 -0.6203  0.0882 -0.8793
 7969TIP3    H245323   0.476   0.311  11.492 -0.4047  0.2248  0.3045
 7970TIP3   OH245324   0.730   3.999  15.316 -0.1477  0.2454  0.0779
 7970TIP3    H145325   0.760   4.090  15.322 -3.5213  1.4115  2.9039
 7970TIP3    H245326   0.800   3.948  15.356  1.1625  1.7944 -0.1357
 7971TIP3   OH245327   1.164   3.865   4.594 -0.4533  0.7532  0.1821
 7971TIP3    H145328   1.082   3.860   4.544 -0.4842  0.2882  0.2713
 7971TIP3    H245329   1.220   3.799   4.552  0.1587  1.6196 -0.3838
 7972TIP3   OH245330   3.023   5.956   0.642  0.4529 -0.0949 -0.0309
 7972TIP3    H145331   3.065   6.042   0.650 -0.6038  0.3354  1.4617
 7972TIP3    H245332   3.004   5.948   0.549 -3.1916  3.2928  0.1271
 7973TIP3   OH245333   6.604   3.078   4.176 -0.3969 -1.2442  0.0984
 7973TIP3    H145334   6.668   3.036   4.119 -1.1383 -1.5739 -0.5039
 7973TIP3    H245335   6.580   3.158   4.131  1.7540  0.4449  1.6997
 7974TIP3   OH245336   6.360   5.740   4.478 -0.0015  0.8135 -0.5222
 7974TIP3    H145337   6.393   5.672   4.419 -0.5396 -2.4096  2.5943
 7974TIP3    H245338   6.268   5.749   4.455  0.0067  0.2721 -0.7739
 7975TIP3   OH245339   0.210   0.499   5.945  0.1289 -0.3920 -0.1610
 7975TIP3    H145340   0.295   0.511   5.987 -1.3592 -0.1363  3.1118
 7975TIP3    H245341   0.166   0.432   5.998 -2.0085  0.0677 -1.2202
 7976TIP3   OH245342   3.340   2.312  11.743 -0.1745  0.0391 -0.2405
 7976TIP3    H145343   3.347   2.401  11.707  0.9188  0.5627  1.1352
 7976TIP3    H245344   3.309   2.259  11.671 -0.7533  1.5289 -1.1388
 7977TIP3   OH245345   2.044   0.672   1.970 -0.6097 -0.0800 -0.1128
 7977TIP3    H145346   2.032   0.754   2.018 -0.6013  0.6002 -1.2338
 7977TIP3    H245347   1.955   0.642   1.953 -0.6132 -0.2888  0.2833
 7978TIP3   OH245348   1.053   0.197   4.311 -0.7407  0.1309 -0.2235
 7978TIP3    H145349   0.997   0.274   4.313 -1.6031 -0.5088  0.7382
 7978TIP3    H245350   0.996   0.126   4.283  0.3130  0.0202 -2.2987
 7979TIP3   OH245351   4.215   1.865  15.370 -0.1032 -0.2372  0.0529
 7979TIP3    H145352   4.227   1.941  15.427  1.2635 -0.3166 -0.1072
 7979TIP3    H245353   4.130   1.829  15.396  0.5401 -0.3385  2.1077
 7980TIP3   OH245354   5.137   3.330   3.254 -0.2600 -0.4833 -0.3982
 7980TIP3    H145355   5.060   3.387   3.255 -0.3601 -0.6162 -0.6248
 7980TIP3    H245356   5.201   3.376   3.309  0.0682  0.4162 -1.4981
 7981TIP3   OH245357   4.738   2.599   4.466  0.4131  0.0596 -0.1577
 7981TIP3    H145358   4.673   2.648   4.416  0.4325 -0.4351 -0.6723
 7981TIP3    H245359   4.689   2.563   4.540 -0.3797 -1.9750 -1.5862
 7982TIP3   OH245360   4.934   5.881  12.713 -0.0691  0.2821  0.7428
 7982TIP3    H145361   4.910   5.795  12.677  2.2129 -0.7027  1.3896
 7982TIP3    H245362   4.855   5.910  12.759 -1.8913 -0.0497 -1.9422
 7983TIP3   OH245363   1.977   3.898  13.779 -0.4257 -0.0827 -0.3124
 7983TIP3    H145364   1.893   3.856  13.763 -0.9307  0.4525  0.7785
 7983TIP3    H245365   1.956   3.991  13.790  0.0425 -0.1474  1.5714
 7984TIP3   OH245366   1.410   5.321  11.186  0.0828  0.2199  0.5074
 7984TIP3    H145367   1.404   5.273  11.103  0.6888 -0.4579  0.8413
 7984TIP3    H245368   1.421   5.413  11.161  0.6994 -0.0303 -0.1725
 7985TIP3   OH245369   5.801   1.371   5.133  0.2672 -0.3410 -0.0635
 7985TIP3    H145370   5.708   1.364   5.111  0.5269 -1.5870 -0.8902
 7985TIP3    H245371   5.803   1.368   5.229 -0.5439 -0.2862 -0.0336
 7986TIP3   OH245372   3.962   1.894   3.853  0.3252  0.3711 -0.5720
 7986TIP3    H145373   3.907   1.854   3.785  0.0409  0.7750 -0.5833
 7986TIP3    H245374   4.039   1.926   3.806  0.0096  0.8820 -0.7488
 7987TIP3   OH245375   4.924   3.147  11.250 -0.2846  0.1101  0.3385
 7987TIP3    H145376   4.874   3.136  11.170  1.3367 -0.7547 -0.6139
 7987TIP3    H245377   4.997   3.204  11.225  0.0016  0.1891  1.3116
 7988TIP3   OH245378   0.991   0.080   5.784  0.3637  0.3767  0.3800
 7988TIP3    H145379   1.043   0.102   5.706  0.0250  1.4992  0.4602
 7988TIP3    H245380   0.979   0.163   5.829 -2.1845  0.3270 -0.0423
 7989TIP3   OH245381   4.412   1.732   2.311  0.3162 -0.2609 -0.2851
 7989TIP3    H145382   4.334   1.784   2.292  2.1069  2.2707 -1.1832
 7989TIP3    H245383   4.451   1.774   2.388  1.5300 -0.5955 -0.6950
 7990TIP3   OH245384   3.347   2.162  12.906 -0.0015  0.6707  0.5941
 7990TIP3    H145385   3.319   2.146  12.996 -3.0525  0.6248 -0.2580
 7990TIP3    H245386   3.440   2.183  12.913 -0.4393  2.0667  3.8904
 7991TIP3   OH245387   5.696   4.478  15.677  0.3183  0.6203  0.5465
 7991TIP3    H145388   5.772   4.513  15.630 -0.3370 -0.3193 -1.3110
 7991TIP3    H245389   5.624   4.483  15.614 -0.2826 -2.0764  0.8844
 7992TIP3   OH245390   5.870   3.543   6.147 -0.4114 -0.1206 -0.5576
 7992TIP3    H145391   5.797   3.487   6.175  1.1409 -1.4107  1.2022
 7992TIP3    H245392   5.919   3.560   6.228  0.8309  1.3361 -1.5556
 7993TIP3   OH245393   3.308   0.084  15.172 -0.2545  0.3866 -0.2969
 7993TIP3    H145394   3.276   0.174  15.181  0.5126  0.4516  2.7337
 7993TIP3    H245395   3.233   0.029  15.196 -0.0997  0.2924 -0.0269
 7994TIP3   OH245396   4.193   5.175  16.292 -0.1834  0.1864  0.1515
 7994TIP3    H145397   4.170   5.217  16.375 -1.4516 -2.3215  1.1770
 7994TIP3    H245398   4.254   5.106  16.316 -1.1054 -1.0222 -0.8638
 7995TIP3   OH245399   5.682   5.988   2.822 -0.4530  0.2930 -0.4766
 7995TIP3    H145400   5.755   5.997   2.883 -0.9632  0.8011  0.0753
 7995TIP3    H245401   5.604   5.993   2.877 -0.9007 -1.1906 -0.9363
 7996TIP3   OH245402   3.494   2.233  13.190  0.0683 -0.0571 -0.7070
 7996TIP3    H145403   3.470   2.251  13.281 -0.0496  0.5666 -0.8587
 7996TIP3    H245404   3.484   2.317  13.145 -0.8412 -0.5691 -1.5016
 7997TIP3   OH245405   3.380   5.277  17.177  0.4833  0.1722  0.3663
 7997TIP3    H145406   3.398   5.284  17.271  0.8552 -0.9107  0.3889
 7997TIP3    H245407   3.331   5.195  17.168 -0.5906  0.8599 -0.2454
 7998TIP3   OH245408   2.207   0.992  13.724  0.4650  0.8994 -0.6029
 7998TIP3    H145409   2.220   0.983  13.630 -0.3559  0.2675 -0.6674
 7998TIP3    H245410   2.112   1.003  13.735  0.5868  1.3449  0.1250
 7999TIP3   OH245411   2.757   2.951   2.491 -1.4947  0.2864  0.0843
 7999TIP3    H145412   2.717   3.038   2.497 -1.9684  0.1241 -0.6342
 7999TIP3    H245413   2.831   2.954   2.551 -1.1394  1.3814 -0.3974
 8000TIP3   OH245414   1.978   1.886   3.210  0.0561 -0.0619 -0.2019
 8000TIP3    H145415   2.007   1.798   3.186  0.3734  0.3998 -1.6029
 8000TIP3    H245416   1.919   1.872   3.285 -0.1952 -1.4933 -0.6275
 8001TIP3   OH245417   4.733   5.775   1.957  0.1538  0.3783 -0.3707
 8001TIP3    H145418   4.733   5.869   1.939 -1.1107  0.6399  0.8256
 8001TIP3    H245419   4.724   5.734   1.871 -0.1019  1.3777 -0.8315
 8002TIP3   OH245420   1.399   5.135   6.225 -0.0882 -0.1331 -0.4931
 8002TIP3    H145421   1.346   5.066   6.264  0.7207 -1.4544 -1.6176
 8002TIP3    H245422   1.462   5.159   6.294 -0.4649 -0.4128 -0.0468
 8003TIP3   OH245423   5.604   4.490   2.626  0.2826  0.2953  0.2580
 8003TIP3    H145424   5.684   4.460   2.670  0.1648  1.5546  1.4019
 8003TIP3    H245425   5.623   4.481   2.532  1.4296 -0.2728  0.5330
 8004TIP3   OH245426   1.752   2.381  11.430  0.0203 -0.4091  0.3362
 8004TIP3    H145427   1.662   2.414  11.428  0.3184  0.4001  0.2830
 8004TIP3    H245428   1.763   2.350  11.520 -1.1615 -2.9514 -0.2858
 8005TIP3   OH245429   4.018   0.581   3.765  0.6710  0.1557 -0.6345
 8005TIP3    H145430   4.046   0.663   3.725  1.5306 -0.6589 -1.7736
 8005TIP3    H245431   4.026   0.516   3.695  1.1301 -1.1251  0.5591
 8006TIP3   OH245432   4.495   0.650   3.855 -0.0248 -0.2147 -0.1140
 8006TIP3    H145433   4.494   0.745   3.844  0.9877 -0.3497 -1.7468
 8006TIP3    H245434   4.429   0.633   3.922  0.1755  1.6772  0.6314
 8007TIP3   OH245435   5.593   2.947   1.207  0.5482  0.4717 -0.2354
 8007TIP3    H145436   5.637   3.032   1.205  1.8007 -0.1834 -1.3277
 8007TIP3    H245437   5.663   2.883   1.218 -0.3015 -0.4732 -0.1769
 8008TIP3   OH245438   1.978   3.414  15.137 -0.1280 -0.3407  0.3696
 8008TIP3    H145439   1.956   3.449  15.051  2.2407  0.3937 -0.0184
 8008TIP3    H245440   2.055   3.359  15.121  2.5614  2.4986  2.3818
 8009TIP3   OH245441   2.681   0.462   5.089 -0.7964  0.1955 -0.2887
 8009TIP3    H145442   2.596   0.464   5.044  0.0047 -0.1957 -1.8741
 8009TIP3    H245443   2.715   0.374   5.072 -0.7263 -0.2060  1.6541
 8010TIP3   OH245444   1.478   4.363   5.129 -0.5318  0.3654 -0.0173
 8010TIP3    H145445   1.541   4.296   5.102 -0.0809  0.1804  1.4252
 8010TIP3    H245446   1.530   4.443   5.134 -0.8751  0.6546 -0.8263
 8011TIP3   OH245447   0.235   2.694  11.724 -0.6076  0.2669  0.6388
 8011TIP3    H145448   0.149   2.700  11.766 -1.3466  1.6209 -0.9294
 8011TIP3    H245449   0.232   2.612  11.675 -0.1032 -0.8360  2.3769
 8012TIP3   OH245450   0.277   5.916  13.757 -0.3803  0.8191 -0.2834
 8012TIP3    H145451   0.360   5.890  13.719 -1.0832 -1.6559 -0.2993
 8012TIP3    H245452   0.211   5.872  13.704 -1.5217  0.0278  1.6733
 8013TIP3   OH245453   2.617   2.100  13.937 -0.0724 -0.5545  0.0324
 8013TIP3    H145454   2.538   2.140  13.900 -2.2085 -1.1915  3.4657
 8013TIP3    H245455   2.646   2.162  14.004  0.9456 -1.4357  0.4401
 8014TIP3   OH245456   3.025   3.814  12.585 -0.4259  0.2970  0.6874
 8014TIP3    H145457   3.102   3.806  12.530 -0.4878  1.3969  0.4368
 8014TIP3    H245458   3.029   3.737  12.642  0.1667 -0.3240 -0.1686
 8015TIP3   OH245459   4.949   3.975   4.363  0.6473  0.2047 -0.5093
 8015TIP3    H145460   5.011   3.948   4.295  0.0043  0.3300 -1.1655
 8015TIP3    H245461   4.971   3.921   4.439 -0.0466 -1.5923 -1.5047
 8016TIP3   OH245462   5.850   2.476   1.429 -0.5262  0.3264  0.4118
 8016TIP3    H145463   5.803   2.400   1.464 -2.1054  2.0850  2.3407
 8016TIP3    H245464   5.834   2.472   1.335 -1.9432 -0.8549  0.6637
 8017TIP3   OH245465   1.083   0.146  13.158  0.4059 -0.0157  0.2843
 8017TIP3    H145466   1.021   0.186  13.218 -1.8396  0.4026 -2.1218
 8017TIP3    H245467   1.081   0.053  13.179 -2.0822 -0.2004 -0.5307
 8018TIP3   OH245468   5.334   4.993  13.625  0.5954  0.5602 -0.2713
 8018TIP3    H145469   5.257   5.043  13.597 -0.2434  0.4263  1.6739
 8018TIP3    H245470   5.408   5.051  13.607  0.0737  0.7455 -2.0347
 8019TIP3   OH245471   1.063   1.240  11.653 -0.7849  0.5901 -0.7073
 8019TIP3    H145472   1.147   1.194  11.648  0.3004  2.4377 -0.3267
 8019TIP3    H245473   1.072   1.314  11.593 -2.0936  0.9009 -0.5542
 8020TIP3   OH245474   2.071   4.778  12.444 -0.3708  0.2361  0.8180
 8020TIP3    H145475   2.027   4.855  12.409  1.0130  0.5693 -0.2793
 8020TIP3    H245476   2.139   4.758  12.380  0.6264 -0.6653  2.0964
 8021TIP3   OH245477   6.531   0.161  16.080 -0.5271 -0.4617 -0.0108
 8021TIP3    H145478   6.590   0.092  16.048 -1.8793 -1.2235 -0.9716
 8021TIP3    H245479   6.570   0.243  16.050  2.6700 -0.4492  3.5588
 8022TIP3   OH245480   1.926   1.667  12.865  0.5902  0.5536  0.3720
 8022TIP3    H145481   1.883   1.633  12.786 -0.3792  0.6663  0.8347
 8022TIP3    H245482   1.855   1.679  12.928  1.1387  1.8606  0.7756
 8023TIP3   OH245483   5.089   5.163   0.389 -0.0685 -0.2209 -0.0724
 8023TIP3    H145484   5.058   5.203   0.308  0.3394  0.7770  0.2484
 8023TIP3    H245485   5.045   5.212   0.458  2.0728  1.1562  0.3910
 8024TIP3   OH245486   2.534   4.014  15.346  0.0200  0.4087  0.5268
 8024TIP3    H145487   2.501   4.098  15.314  0.2499  0.6226  0.8426
 8024TIP3    H245488   2.617   4.036  15.388  0.4523 -0.0806 -0.0508
 8025TIP3   OH245489   1.906   3.652   5.448 -0.2792 -0.3086  0.2779
 8025TIP3    H145490   1.983   3.620   5.400 -1.3132  0.6788 -2.2250
 8025TIP3    H245491   1.938   3.728   5.497  0.5896 -0.6356  0.2353
 8026TIP3   OH245492   3.455   2.729   4.923 -0.8408 -0.5609 -0.5831
 8026TIP3    H145493   3.468   2.765   4.835 -0.2981 -0.7399 -0.5825
 8026TIP3    H245494   3.518   2.657   4.928  0.3146  0.4889  0.5472
 8027TIP3   OH245495   1.266   0.267  13.880 -0.3675  0.1822  0.0209
 8027TIP3    H145496   1.207   0.279  13.954  1.1491  0.5342  1.2248
 8027TIP3    H245497   1.215   0.296  13.804 -2.1696 -0.7510  0.8051
 8028TIP3   OH245498   0.362   2.014   2.351  0.4300 -0.1956 -0.1870
 8028TIP3    H145499   0.390   2.024   2.442  0.4166  0.5029 -0.2615
 8028TIP3    H245500   0.294   2.080   2.339  1.1226  0.3926 -0.9873
 8029TIP3   OH245501   4.564   5.840  13.115 -0.5186 -0.9695  0.8733
 8029TIP3    H145502   4.618   5.762  13.124 -1.6953 -1.7255  1.7166
 8029TIP3    H245503   4.476   5.811  13.141 -0.9651  0.6534  1.2692
 8030TIP3   OH245504   4.785   0.677   3.862  0.4848 -0.6886  0.3232
 8030TIP3    H145505   4.816   0.647   3.947  0.0610  0.3920  0.8878
 8030TIP3    H245506   4.690   0.676   3.869  0.4338  1.4474  0.6659
 8031TIP3   OH245507   4.133   4.861  12.574  0.3925 -0.1956 -0.0252
 8031TIP3    H145508   4.220   4.826  12.557  1.3097 -0.6994  4.4376
 8031TIP3    H245509   4.088   4.791  12.620 -1.2247  1.1644  0.5602
 8032TIP3   OH245510   1.826   1.490  16.783 -0.3632 -0.4749  0.0743
 8032TIP3    H145511   1.884   1.554  16.744  0.4963 -0.0807  1.8812
 8032TIP3    H245512   1.763   1.542  16.833 -0.7922 -0.9803  0.0671
 8033TIP3   OH245513   5.133   6.654   2.389  0.2175 -0.0903 -0.3290
 8033TIP3    H145514   5.071   6.683   2.322 -0.5305 -0.8390  0.0247
 8033TIP3    H245515   5.141   6.560   2.376  0.3148 -0.1944  0.4290
 8034TIP3   OH245516   6.049   6.658  16.657 -0.3141  0.2208  0.2267
 8034TIP3    H145517   5.984   6.644  16.726  1.3687 -0.9838  1.6577
 8034TIP3    H245518   6.058   6.573  16.614  2.2327 -0.4586  1.8847
 8035TIP3   OH245519   3.559   0.061  13.170 -0.6715 -0.0427  0.3423
 8035TIP3    H145520   3.471   0.047  13.136  0.3058 -1.4807 -1.8604
 8035TIP3    H245521   3.585   0.146  13.134 -0.7708 -0.1145  0.1018
 8036TIP3   OH245522   0.331   5.780  14.361 -0.3883  0.1708 -0.0311
 8036TIP3    H145523   0.413   5.742  14.332  0.8188  2.8064 -0.4066
 8036TIP3    H245524   0.286   5.710  14.408  1.6935 -1.5727 -0.5322
 8037TIP3   OH245525   0.239   5.886   2.325 -0.0935  0.0423 -0.2146
 8037TIP3    H145526   0.259   5.919   2.413  0.4373  0.9008 -0.6435
 8037TIP3    H245527   0.223   5.793   2.337  0.0957  0.1282  0.7759
 8038TIP3   OH245528   2.961   0.352  16.810 -0.2913 -0.0339 -0.3432
 8038TIP3    H145529   2.876   0.337  16.851 -0.4079  1.2064 -0.0818
 8038TIP3    H245530   2.985   0.268  16.773 -1.1784 -0.6544  0.4335
 8039TIP3   OH245531   0.896   0.470   6.531 -0.2256 -0.3882 -0.4983
 8039TIP3    H145532   0.912   0.561   6.505 -0.1216 -0.6577 -1.4071
 8039TIP3    H245533   0.875   0.475   6.625 -1.2088  0.6800 -0.7539
 8040TIP3   OH245534   5.903   2.662  13.791  0.2547 -0.1650  0.1843
 8040TIP3    H145535   5.863   2.705  13.866 -1.5183  0.1525 -0.8976
 8040TIP3    H245536   5.937   2.734  13.737  0.4081 -0.3246  0.0662
 8041TIP3   OH245537   4.278   2.673  12.017 -0.2664  0.1470  0.8810
 8041TIP3    H145538   4.244   2.731  12.085 -0.6899  0.7351  0.1772
 8041TIP3    H245539   4.202   2.619  11.992 -0.0314 -0.2900  1.0898
 8042TIP3   OH245540   4.220   4.903  13.865 -0.8736  0.3053  0.0795
 8042TIP3    H145541   4.174   4.843  13.807 -0.4653  0.5083 -0.4634
 8042TIP3    H245542   4.155   4.929  13.930 -1.9783  1.7287 -1.5046
 8043TIP3   OH245543   1.488   1.613   5.597 -0.5023 -0.2801  0.0949
 8043TIP3    H145544   1.434   1.576   5.668  0.3146 -0.6233  0.5463
 8043TIP3    H245545   1.544   1.540   5.570 -0.8141 -0.1575 -0.9298
 8044TIP3   OH245546   6.631   5.708   5.449 -0.0790 -0.1660  0.1194
 8044TIP3    H145547   6.608   5.703   5.356  0.2140 -0.7557  0.0748
 8044TIP3    H245548   6.553   5.745   5.491  0.4121  1.8003 -0.5893
 8045TIP3   OH245549   5.913   2.567   0.576  0.5469  0.1877  0.4172
 8045TIP3    H145550   5.988   2.593   0.630  1.4931  0.7195 -1.0973
 8045TIP3    H245551   5.942   2.580   0.486 -0.3719 -2.2564 -0.3328
 8046TIP3   OH245552   3.002   2.969   3.664  0.1909  0.5040  0.4842
 8046TIP3    H145553   2.983   3.032   3.594 -1.9136  0.5576  1.0399
 8046TIP3    H245554   3.097   2.970   3.672  0.3434  1.9920 -1.0000
 8047TIP3   OH245555   3.074   1.531   6.307  0.0664 -0.3928 -0.3391
 8047TIP3    H145556   3.127   1.524   6.386 -0.5037  0.6900  0.1560
 8047TIP3    H245557   3.022   1.451   6.305 -2.1231  0.8504  2.0419
 8048TIP3   OH245558   3.182   0.403  11.295  1.0428  0.4585  0.1984
 8048TIP3    H145559   3.172   0.310  11.276  0.7915  0.7618 -1.3467
 8048TIP3    H245560   3.133   0.418  11.375 -1.3101 -0.2312 -1.0360
 8049TIP3   OH245561   3.969   5.384   0.935  0.0612  0.1624 -0.0525
 8049TIP3    H145562   4.056   5.343   0.928  2.1256  3.7362  1.4889
 8049TIP3    H245563   3.939   5.360   1.023 -0.1541 -0.4415 -0.2878
 8050TIP3   OH245564   6.065   0.693  15.942  0.1351  0.1954  0.0278
 8050TIP3    H145565   6.029   0.760  15.884  0.0740 -0.1190 -0.3028
 8050TIP3    H245566   6.041   0.610  15.900  0.1971 -0.0309  0.4409
 8051TIP3   OH245567   5.622   5.188   4.009 -0.7682 -0.3365 -0.1804
 8051TIP3    H145568   5.580   5.264   4.050  1.4184  0.4946  0.7003
 8051TIP3    H245569   5.712   5.190   4.042  0.4333 -1.1200 -3.0745
 8052TIP3   OH245570   0.957   0.327   0.265 -0.1297 -0.3967  0.3575
 8052TIP3    H145571   0.978   0.293   0.352  0.6591  0.2721  0.4457
 8052TIP3    H245572   0.904   0.259   0.224 -1.2256 -0.3641  1.6655
 8053TIP3   OH245573   6.287   1.442   1.353  0.2515  0.5096  0.2690
 8053TIP3    H145574   6.368   1.399   1.326 -0.2915  0.4513 -1.3753
 8053TIP3    H245575   6.281   1.518   1.296 -1.2013  0.1254 -0.1151
 8054TIP3   OH245576   3.653   0.022  14.796  0.1745  0.0053 -0.4620
 8054TIP3    H145577   3.604   0.102  14.814  0.7568  0.3677 -0.4496
 8054TIP3    H245578   3.742   0.052  14.780  0.2346 -0.5659 -1.2762
 8055TIP3   OH245579   1.919   4.656   2.106 -0.5286  0.2605  0.2390
 8055TIP3    H145580   1.853   4.726   2.111 -1.6166 -0.8126  1.8695
 8055TIP3    H245581   1.983   4.679   2.174  0.2668  0.7463 -0.6425
 8056TIP3   OH245582   0.787   2.108   3.772  0.9633  0.2414  0.1109
 8056TIP3    H145583   0.803   2.058   3.692  0.7236  1.9332 -1.0442
 8056TIP3    H245584   0.719   2.058   3.818 -0.3495  0.2370 -1.7209
 8057TIP3   OH245585   3.894   5.451   0.421  0.8289 -0.2186 -0.0868
 8057TIP3    H145586   3.982   5.417   0.404  1.1822  1.0600 -0.9320
 8057TIP3    H245587   3.890   5.459   0.516  1.9899  0.6325 -0.0922
 8058TIP3   OH245588   3.337   1.693   5.755 -0.6192  0.0733 -0.0407
 8058TIP3    H145589   3.355   1.762   5.690  0.6415  1.2822  1.4971
 8058TIP3    H245590   3.411   1.698   5.816 -2.0378 -0.6122  1.8338
 8059TIP3   OH245591   3.848   0.669  16.515  0.5813 -0.0146  0.1579
 8059TIP3    H145592   3.935   0.677  16.476  0.4968 -2.4645 -0.7426
 8059TIP3    H245593   3.847   0.734  16.585  2.4350  1.3592 -0.9939
 8060TIP3   OH245594   0.856   1.959   0.866 -0.3525 -0.5775  0.1502
 8060TIP3    H145595   0.820   2.043   0.839 -0.5213 -0.7333 -0.1090
 8060TIP3    H245596   0.950   1.974   0.872 -0.3393 -0.4754 -0.2876
 8061TIP3   OH245597   3.539   2.448   2.915  0.4472  0.2268 -0.5445
 8061TIP3    H145598   3.588   2.403   2.846 -0.2735 -0.6847 -0.4787
 8061TIP3    H245599   3.476   2.383   2.946 -2.0063  1.8522 -1.7802
 8062TIP3   OH245600   1.640   3.153   0.557  0.3025 -0.6004 -0.2786
 8062TIP3    H145601   1.557   3.106   0.566 -0.2688  0.4970  0.4537
 8062TIP3    H245602   1.622   3.223   0.493  0.8922 -0.8353 -0.7136
 8063TIP3   OH245603   5.567   1.334   5.047  0.0898  0.0782  0.0304
 8063TIP3    H145604   5.582   1.344   4.953 -0.3711 -0.3584 -0.0933
 8063TIP3    H245605   5.489   1.280   5.053  1.1102 -1.3804  0.6656
 8064TIP3   OH245606   3.706   2.638   2.551 -0.3938 -0.0628 -0.2155
 8064TIP3    H145607   3.764   2.639   2.627 -1.3611  1.9922  0.5870
 8064TIP3    H245608   3.753   2.587   2.485 -0.0004 -2.9272  2.0694
 8065TIP3   OH245609   5.400   2.715   1.952 -0.2440  0.3715  0.4458
 8065TIP3    H145610   5.384   2.687   2.042 -1.4223 -0.6337 -0.0530
 8065TIP3    H245611   5.436   2.803   1.961 -1.2420  0.6793  1.8626
 8066TIP3   OH245612   3.191   0.802   1.821 -0.3464 -0.0511 -0.7095
 8066TIP3    H145613   3.276   0.824   1.785 -0.7088  1.7665 -0.5115
 8066TIP3    H245614   3.149   0.886   1.840 -1.2175 -0.9001  1.4714
 8067TIP3   OH245615   5.199   5.553  15.941 -0.7142 -0.1356 -0.0775
 8067TIP3    H145616   5.291   5.540  15.964  0.4092  1.9740 -2.7794
 8067TIP3    H245617   5.186   5.647  15.951 -2.3983 -0.3182 -0.3903
 8068TIP3   OH245618   1.125   0.694  11.843  0.5863 -0.0739  0.0419
 8068TIP3    H145619   1.141   0.671  11.752  0.0578  0.6669 -0.2471
 8068TIP3    H245620   1.097   0.785  11.840  0.2443 -0.1425  0.9156
 8069TIP3   OH245621   1.250   1.152  12.649  0.2585 -0.0734  0.9255
 8069TIP3    H145622   1.234   1.209  12.574  0.8243 -0.6396  0.3583
 8069TIP3    H245623   1.324   1.192  12.695  0.9202 -0.5404  0.3011
 8070TIP3   OH245624   3.977   6.673  14.566 -0.2485  0.4300 -0.2087
 8070TIP3    H145625   3.965   6.653  14.473 -1.1510  0.8112 -0.1731
 8070TIP3    H245626   3.984   6.587  14.608 -1.2078  0.2318 -0.4485
 8071TIP3   OH245627   4.799   6.328   2.550  0.4004 -0.3649  0.2051
 8071TIP3    H145628   4.887   6.364   2.541  0.0875  0.3619  0.0351
 8071TIP3    H245629   4.779   6.292   2.464  1.0100 -1.6711  0.5738
 8072TIP3   OH245630   1.902   6.479   0.029 -0.6732  0.0671 -0.1030
 8072TIP3    H145631   1.816   6.499   0.067 -1.0732 -0.9971 -0.4067
 8072TIP3    H245632   1.965   6.516   0.091 -1.3355 -0.1197  0.7069
 8073TIP3   OH245633   2.972   2.727  12.107  0.8519  0.2746  0.0636
 8073TIP3    H145634   2.954   2.821  12.113  0.0522  0.0521  2.2116
 8073TIP3    H245635   2.938   2.691  12.189  0.3327 -2.0462 -1.0814
 8074TIP3   OH245636   3.056   3.343  11.355 -0.1806  0.4574  0.3589
 8074TIP3    H145637   2.990   3.412  11.363 -1.0913  0.0685 -2.5803
 8074TIP3    H245638   3.040   3.305  11.269  0.6618 -3.0556  1.5852
 8075TIP3   OH245639   2.592   1.132  13.060 -0.2705 -0.0022 -0.4805
 8075TIP3    H145640   2.556   1.143  13.148  0.5126  0.4731 -0.2077
 8075TIP3    H245641   2.553   1.051  13.028 -1.5565  0.4827 -0.1985
 8076TIP3   OH245642   4.068   3.222   3.947 -0.3131 -0.1200  0.3445
 8076TIP3    H145643   4.108   3.225   3.860 -0.3795 -0.9458  0.2830
 8076TIP3    H245644   4.118   3.286   3.998  0.6339 -0.6189  0.0679
 8077TIP3   OH245645   3.561   5.645  15.550  0.6067  0.1064 -0.4025
 8077TIP3    H145646   3.643   5.688  15.525  1.2682 -0.8688  0.0467
 8077TIP3    H245647   3.510   5.715  15.591  0.3820  1.2019 -2.4295
 8078TIP3   OH245648   3.353   5.289  16.281  0.5391  0.2422 -0.1576
 8078TIP3    H145649   3.386   5.214  16.330 -1.1908 -0.9706 -0.7706
 8078TIP3    H245650   3.259   5.289  16.297  0.6222  3.2026  1.0204
 8079TIP3   OH245651   2.963   0.056  15.034  0.4295 -0.9510 -0.0260
 8079TIP3    H145652   3.026  -0.016  15.035 -1.1421 -2.4924 -2.5093
 8079TIP3    H245653   2.891   0.027  15.089  1.1527  0.1827  1.6030
 8080TIP3   OH245654   4.923   0.327  16.621  0.1998  0.4180 -0.1827
 8080TIP3    H145655   4.842   0.321  16.672 -0.0081 -1.2397 -0.6368
 8080TIP3    H245656   4.902   0.387  16.550  0.1381  1.8597  1.0103
 8081TIP3   OH245657   5.018   0.217   0.413 -0.2696  0.0193  0.0772
 8081TIP3    H145658   4.945   0.173   0.455 -0.3282  1.1720  1.2431
 8081TIP3    H245659   4.979   0.292   0.367 -0.0222 -0.3670 -0.7873
 8082TIP3   OH245660   1.967   6.687   0.199 -0.8344  0.0051 -0.2776
 8082TIP3    H145661   1.930   6.770   0.171  1.2926  1.3227  0.5434
 8082TIP3    H245662   1.996   6.703   0.289  1.2853 -0.9906 -0.7085
 8083TIP3   OH245663   5.276   5.424   2.282  0.4490 -0.1372  0.1882
 8083TIP3    H145664   5.267   5.489   2.212 -1.8846  1.0733  1.4972
 8083TIP3    H245665   5.361   5.443   2.321  0.4286  1.1960 -0.3607
 8084TIP3   OH245666   1.397   4.239  17.083  0.0609  0.5615 -0.3906
 8084TIP3    H145667   1.379   4.296  17.008 -0.5975  1.2002  0.2311
 8084TIP3    H245668   1.479   4.195  17.060  0.0638  1.0150 -1.3241
 8085TIP3   OH245669   0.789   1.378  11.432 -0.2377 -0.3036  0.0862
 8085TIP3    H145670   0.850   1.441  11.470  1.2335 -2.0649  0.8009
 8085TIP3    H245671   0.820   1.365  11.342  0.7255 -1.5010  0.5753
 8086TIP3   OH245672   3.151   0.826  12.500 -0.3363  0.2764 -0.0539
 8086TIP3    H145673   3.194   0.888  12.558  1.4085 -1.3042  0.4229
 8086TIP3    H245674   3.066   0.810  12.541  0.1796  0.4976  1.1348
 8087TIP3   OH245675   4.894   0.384  14.523 -0.0822  0.2611 -0.9830
 8087TIP3    H145676   4.888   0.475  14.494 -1.5704  0.2742 -0.7398
 8087TIP3    H245677   4.809   0.347  14.500 -1.0022  0.0120  2.3626
 8088TIP3   OH245678   5.191   2.280   5.170  0.2162  0.8060 -0.4001
 8088TIP3    H145679   5.225   2.195   5.141  0.2457  0.8989 -0.6470
 8088TIP3    H245680   5.171   2.268   5.263  0.9570  0.7537 -0.2383
 8089TIP3   OH245681   5.945   0.994   5.519  0.4487 -0.4049 -0.3386
 8089TIP3    H145682   5.852   0.972   5.522  0.7344 -1.5796  0.9039
 8089TIP3    H245683   5.955   1.065   5.583  0.5134 -0.7565  0.0459
 8090TIP3   OH245684   5.445   3.035  12.799  0.1364 -0.2749 -0.5752
 8090TIP3    H145685   5.442   3.016  12.893  1.6190 -0.3912 -0.5322
 8090TIP3    H245686   5.505   2.969  12.764  0.0575  0.1484 -1.5121
 8091TIP3   OH245687   5.721   3.147  11.530  0.4886 -0.1416 -0.2482
 8091TIP3    H145688   5.734   3.127  11.437 -1.1837 -1.0263 -0.3293
 8091TIP3    H245689   5.626   3.158  11.539  0.8230  3.0805  0.7858
 8092TIP3   OH245690   4.530   0.170  11.193 -0.2399 -0.3717  0.0041
 8092TIP3    H145691   4.595   0.170  11.264 -1.1544 -0.6792  0.8639
 8092TIP3    H245692   4.569   0.225  11.125  1.1663 -1.0041  0.2641
 8093TIP3   OH245693   0.562   0.337  14.617 -0.2988 -0.0284  0.3818
 8093TIP3    H145694   0.569   0.304  14.527  0.0630  0.2138  0.3182
 8093TIP3    H245695   0.507   0.273  14.662  1.1975 -1.2617  0.5255
 8094TIP3   OH245696   2.215   4.633   1.342 -0.4382 -0.3565 -0.6738
 8094TIP3    H145697   2.251   4.712   1.301 -1.4024  0.5569  0.1780
 8094TIP3    H245698   2.125   4.628   1.310 -0.5555 -0.7939 -0.2811
 8095TIP3   OH245699   2.621   4.893  16.523 -0.3166  0.1906  0.1534
 8095TIP3    H145700   2.535   4.854  16.540 -0.7382  0.3111 -1.4873
 8095TIP3    H245701   2.658   4.838  16.453  1.9758 -1.2920  2.3780
 8096TIP3   OH245702   3.585   4.554   2.339 -0.0933  0.1705  0.4195
 8096TIP3    H145703   3.651   4.599   2.286  0.9583  0.0269  1.5776
 8096TIP3    H245704   3.502   4.596   2.314  0.4240  0.4503 -0.9489
 8097TIP3   OH245705   3.681   6.581  13.137  0.1241  0.6594  0.5681
 8097TIP3    H145706   3.608   6.522  13.121 -0.0780  1.3763 -1.4769
 8097TIP3    H245707   3.641   6.668  13.140  0.7653  0.9640  0.4841
 8098TIP3   OH245708   5.121   6.161   1.802  0.4764  0.0155 -0.0457
 8098TIP3    H145709   5.140   6.181   1.893  0.2788  0.8043 -0.1714
 8098TIP3    H245710   5.036   6.118   1.804  0.8768 -0.7914  0.2212
 8099TIP3   OH245711   1.108   1.068   0.191 -0.5816 -0.2606  0.9591
 8099TIP3    H145712   1.059   1.084   0.110 -1.2705 -1.3539  1.1447
 8099TIP3    H245713   1.139   0.977   0.182 -0.7900 -0.4405  1.9805
 8100TIP3   OH245714   6.666   5.472  13.039  0.2716  0.2613  0.8085
 8100TIP3    H145715   6.588   5.527  13.027  0.5607  0.1287 -3.5465
 8100TIP3    H245716   6.636   5.383  13.017  1.3289 -0.0205  0.4453
 8101TIP3   OH245717   0.809   5.743   0.253  0.1676  0.6679  0.3840
 8101TIP3    H145718   0.724   5.758   0.211  0.3213 -0.3937 -0.3337
 8101TIP3    H245719   0.793   5.757   0.346 -1.4614 -2.1026  0.6031
 8102TIP3   OH245720   4.796   4.525   6.008  0.3150 -0.0202 -0.2444
 8102TIP3    H145721   4.703   4.516   6.030  0.4791 -1.1986  0.0590
 8102TIP3    H245722   4.840   4.464   6.067  1.3611  0.9877  0.0584
 8103TIP3   OH245723   0.158   4.829   0.552  0.4489  0.1211  0.4033
 8103TIP3    H145724   0.194   4.870   0.631  0.8457  2.0002 -0.7107
 8103TIP3    H245725   0.191   4.882   0.480  1.7795 -2.7111 -1.2412
 8104TIP3   OH245726   6.154   1.622  14.203 -0.0272  0.2873 -0.0213
 8104TIP3    H145727   6.210   1.566  14.149 -1.1813 -1.1271  0.1577
 8104TIP3    H245728   6.195   1.708  14.199  1.6313 -0.4756 -0.6184
 8105TIP3   OH245729   0.592   0.124   4.783 -0.0508  0.2132  0.4409
 8105TIP3    H145730   0.539   0.068   4.839 -1.5565 -0.3724 -1.4699
 8105TIP3    H245731   0.663   0.068   4.753 -1.1745 -0.5262 -0.9269
 8106TIP3   OH245732   4.457   4.820   2.266 -0.0868 -0.0095 -0.5467
 8106TIP3    H145733   4.504   4.736   2.263 -1.0478 -0.5820 -0.1463
 8106TIP3    H245734   4.518   4.881   2.307  0.2689 -0.7613  0.0624
 8107TIP3   OH245735   6.574   6.231  15.859 -0.3625 -0.0450  0.1083
 8107TIP3    H145736   6.518   6.307  15.844  0.3731  0.4224 -0.2613
 8107TIP3    H245737   6.588   6.193  15.772 -0.7294 -0.6180  0.2888
 8108TIP3   OH245738   4.987   2.965   5.898 -0.5503  0.4216 -0.9624
 8108TIP3    H145739   5.024   2.925   5.976 -0.3783 -0.7088 -1.5887
 8108TIP3    H245740   5.052   2.947   5.829  0.5937  3.6399 -0.9203
 8109TIP3   OH245741   1.187   3.778   5.954 -0.4978  0.1575  0.6868
 8109TIP3    H145742   1.215   3.687   5.956 -0.8056 -0.1858 -3.0334
 8109TIP3    H245743   1.266   3.828   5.971 -0.2934 -0.7254  2.6077
 8110TIP3   OH245744   6.626   0.661  16.981 -0.0867 -0.3129  0.9909
 8110TIP3    H145745   6.551   0.719  16.976  0.6419  0.7463  1.8838
 8110TIP3    H245746   6.590   0.573  16.966 -1.2661  0.3065  0.0670
 8111TIP3   OH245747   5.279   5.633  12.635  0.2277 -0.1510  0.4046
 8111TIP3    H145748   5.196   5.597  12.604 -0.2134  0.6814  0.5980
 8111TIP3    H245749   5.261   5.726  12.650  1.2780  0.1119  0.1383
 8112TIP3   OH245750   6.245   1.205  13.339  0.2137 -0.4149 -0.1678
 8112TIP3    H145751   6.269   1.270  13.404 -1.3405  1.8003 -1.6661
 8112TIP3    H245752   6.328   1.179  13.299  0.8193  1.6764 -0.4088
 8113TIP3   OH245753   4.182   1.918   3.681 -0.2274  0.9778  0.2994
 8113TIP3    H145754   4.235   1.996   3.700  1.0920 -0.3192  2.4639
 8113TIP3    H245755   4.246   1.846   3.678 -1.4970 -0.1567 -0.7275
 8114TIP3   OH245756   3.531   2.062   7.008  0.0417  0.4371 -0.6425
 8114TIP3    H145757   3.621   2.030   7.011 -0.6517 -1.6262 -0.2048
 8114TIP3    H245758   3.532   2.143   7.060  1.1798 -0.8357  1.4317
 8115TIP3   OH245759   5.478   4.763   3.820 -0.0120  0.2173 -0.5200
 8115TIP3    H145760   5.414   4.692   3.829  2.1128 -1.5898  2.0216
 8115TIP3    H245761   5.467   4.815   3.900  0.4806  0.9788 -0.9325
 8116TIP3   OH245762   2.667   5.219   3.870 -0.9567 -0.1470  0.0533
 8116TIP3    H145763   2.749   5.214   3.919 -0.2187 -1.1201 -1.2269
 8116TIP3    H245764   2.635   5.129   3.867 -1.6038  0.0875 -0.2380
 8117TIP3   OH245765   1.906   3.821   1.105  0.6073 -0.1180 -0.6019
 8117TIP3    H145766   1.964   3.807   1.031  0.5125 -2.3679 -0.3138
 8117TIP3    H245767   1.819   3.803   1.071  0.3969  0.2967 -0.2923
 8118TIP3   OH245768   1.792   6.198   4.511  0.0006 -0.1640 -0.5414
 8118TIP3    H145769   1.749   6.199   4.425  0.6559 -0.1496 -0.8767
 8118TIP3    H245770   1.725   6.228   4.572 -0.5655 -0.4788 -1.0071
 8119TIP3   OH245771   2.551   3.205   3.700  0.2307  0.0256  0.4705
 8119TIP3    H145772   2.482   3.181   3.638  1.2492 -2.5866  0.2179
 8119TIP3    H245773   2.506   3.253   3.769 -1.2812  1.1947 -1.2145
 8120TIP3   OH245774   3.295   5.326  12.783  0.1535 -0.1928 -0.4840
 8120TIP3    H145775   3.287   5.257  12.718  0.1002  0.3834 -1.0991
 8120TIP3    H245776   3.333   5.400  12.736 -0.1846  0.3431  0.0534
 8121TIP3   OH245777   1.392   3.481  13.018  0.0146  0.1963  0.2311
 8121TIP3    H145778   1.457   3.421  13.053 -1.7781 -2.0921 -0.1471
 8121TIP3    H245779   1.364   3.441  12.935 -0.4678  2.1480 -0.6283
 8122TIP3   OH245780   1.101   0.028  16.200  0.2704 -0.2079 -0.2442
 8122TIP3    H145781   1.091  -0.055  16.247  1.3769  0.3986  1.1191
 8122TIP3    H245782   1.180   0.016  16.147  0.6013  0.0681  0.1821
 8123TIP3   OH245783   2.584   5.298  13.604 -0.1560 -0.7830  0.5278
 8123TIP3    H145784   2.524   5.248  13.548 -2.5840  1.2783  1.0868
 8123TIP3    H245785   2.553   5.282  13.693  1.3793 -1.1617  1.0219
 8124TIP3   OH245786   2.994   1.840   5.684  0.0542 -0.1139  0.0683
 8124TIP3    H145787   3.050   1.780   5.634  0.2464 -0.4608  0.6818
 8124TIP3    H245788   2.917   1.854   5.629  0.3650 -0.3099 -0.4169
 8125TIP3   OH245789   1.053   1.658   3.290 -0.3061 -0.1423 -0.1360
 8125TIP3    H145790   0.965   1.635   3.262  0.3482 -1.3718 -1.3539
 8125TIP3    H245791   1.089   1.576   3.325  0.6799  0.0564 -0.6236
 8126TIP3   OH245792   4.154   5.366   5.907 -0.2895 -0.0859 -0.0213
 8126TIP3    H145793   4.213   5.437   5.882  0.7183 -0.2907  1.6369
 8126TIP3    H245794   4.092   5.406   5.968  0.7566 -0.7186  1.5355
 8127TIP3   OH245795   2.392   1.945   3.596  0.0389 -0.1471  0.1735
 8127TIP3    H145796   2.399   1.953   3.501 -0.1595  0.8228  0.2396
 8127TIP3    H245797   2.310   1.989   3.618 -0.0622 -0.6219  0.7699
 8128TIP3   OH245798   3.581   0.722   4.634  0.3641 -0.7863  0.5685
 8128TIP3    H145799   3.576   0.771   4.716  0.1278 -1.1426  0.7703
 8128TIP3    H245800   3.512   0.761   4.580 -1.2846 -2.2636  1.4880
 8129TIP3   OH245801   2.724   6.574   2.874 -0.0395 -0.7032  0.4214
 8129TIP3    H145802   2.677   6.640   2.924  0.0067 -1.1041  1.0063
 8129TIP3    H245803   2.656   6.531   2.821 -0.2989 -1.0920  1.0544
 8130TIP3   OH245804   2.046   3.888  14.466  0.5638 -0.1170  0.5566
 8130TIP3    H145805   2.069   3.918  14.378  0.4538 -0.1309  0.5230
 8130TIP3    H245806   1.987   3.955  14.500  2.0345  0.8287  1.3169
 8131TIP3   OH245807   4.324   6.083  15.588  0.4771 -0.2158 -0.5829
 8131TIP3    H145808   4.269   6.035  15.651  1.3028 -1.2807 -0.6478
 8131TIP3    H245809   4.263   6.106  15.517  0.2898 -2.3700 -1.1988
 8132TIP3   OH245810   2.440   0.878   4.361  0.0186 -0.0912  0.5500
 8132TIP3    H145811   2.427   0.949   4.298  2.1394  1.0700  1.3144
 8132TIP3    H245812   2.387   0.806   4.328 -0.3764  1.0786 -1.5266
 8133TIP3   OH245813   5.839   5.535   2.421 -0.2743  0.1609 -0.2353
 8133TIP3    H145814   5.908   5.552   2.486 -0.2384  2.2617 -0.7605
 8133TIP3    H245815   5.884   5.487   2.351  0.3784  0.4966 -0.0581
 8134TIP3   OH245816   5.241   1.838  14.041  0.4295 -0.1380  0.4312
 8134TIP3    H145817   5.323   1.800  14.010  0.0846 -1.2352  0.8266
 8134TIP3    H245818   5.189   1.849  13.961  0.7926  0.1654  0.2318
 8135TIP3   OH245819   1.622   4.349  15.784  0.6044  0.3337  0.0175
 8135TIP3    H145820   1.578   4.374  15.703 -1.7313  0.0427  1.1072
 8135TIP3    H245821   1.641   4.256  15.773  1.0400  0.4804 -0.5008
 8136TIP3   OH245822   2.466   1.404  16.568  0.6371  0.1615 -0.4366
 8136TIP3    H145823   2.548   1.384  16.612  0.7825  2.4777  0.4877
 8136TIP3    H245824   2.486   1.395  16.475  2.2300  1.5329 -0.2739
 8137TIP3   OH245825   0.663   5.771  17.238  0.2909  0.1227 -0.4455
 8137TIP3    H145826   0.740   5.718  17.256 -1.2252 -1.8987  0.5609
 8137TIP3    H245827   0.635   5.745  17.150  0.2520  0.1746 -0.4477
 8138TIP3   OH245828   6.132   3.142   4.017  0.5338 -0.0423 -0.6532
 8138TIP3    H145829   6.068   3.150   3.947  1.2024  0.2595 -1.2505
 8138TIP3    H245830   6.217   3.143   3.972  0.9573 -0.5838  0.1011
 8139TIP3   OH245831   1.889   5.420  16.454  0.2203 -0.5980  0.1010
 8139TIP3    H145832   1.861   5.380  16.537  1.2803 -1.7372 -0.0697
 8139TIP3    H245833   1.833   5.497  16.445  0.1688 -0.3750  1.9459
 8140TIP3   OH245834   2.947   5.102  11.866  0.1524  0.6694 -0.1067
 8140TIP3    H145835   2.961   5.095  11.960 -0.7355 -0.9627 -0.0560
 8140TIP3    H245836   2.891   5.027  11.845 -0.5724  1.6234 -1.7583
 8141TIP3   OH245837   2.131   2.590  14.604 -0.0557  0.5429  0.5188
 8141TIP3    H145838   2.084   2.508  14.618  0.5146  0.4134  1.8143
 8141TIP3    H245839   2.202   2.588  14.668  0.6259  1.5609 -0.1675
 8142TIP3   OH245840   5.689   0.826   1.545  0.3231 -0.4409 -0.0988
 8142TIP3    H145841   5.663   0.847   1.455  1.4767 -0.2589 -0.4056
 8142TIP3    H245842   5.778   0.794   1.537  1.1149  1.2750  1.1747
 8143TIP3   OH245843   5.175   2.312  16.079  0.2951  0.0731 -0.3134
 8143TIP3    H145844   5.087   2.281  16.098  1.4931 -2.7052  1.3800
 8143TIP3    H245845   5.231   2.235  16.092  3.1757  2.1179  0.5637
 8144TIP3   OH245846   4.995   2.180   2.194  0.5579 -0.0268  0.3978
 8144TIP3    H145847   4.985   2.086   2.211  2.6249 -0.5725 -0.9881
 8144TIP3    H245848   5.075   2.204   2.240  1.2272  0.5355 -1.0101
 8145TIP3   OH245849   3.306   6.209   3.767  0.0116 -0.3886  0.0531
 8145TIP3    H145850   3.333   6.201   3.859  2.2826  4.9732  0.1836
 8145TIP3    H245851   3.213   6.231   3.772  0.2615  0.4997  1.1293
 8146TIP3   OH245852   1.887   3.931  11.372  0.2103  0.1162  0.0368
 8146TIP3    H145853   1.856   3.947  11.283  0.7041  2.0988  0.1559
 8146TIP3    H245854   1.930   4.013  11.396  0.1918 -0.4294  2.0639
 8147TIP3   OH245855   6.433   4.510   3.651 -0.5947  0.2268  0.0970
 8147TIP3    H145856   6.427   4.522   3.556 -2.0125  0.6469  0.2120
 8147TIP3    H245857   6.353   4.549   3.685 -0.4984 -0.6356  1.4034
 8148TIP3   OH245858   4.797   5.976   4.034 -0.0181  0.1715 -0.7263
 8148TIP3    H145859   4.762   5.894   4.000 -2.1523  1.0024 -0.6794
 8148TIP3    H245860   4.832   5.952   4.120  1.0465 -1.0001 -1.4447
 8149TIP3   OH245861   2.298   0.820   5.817 -0.0986 -0.6151  0.0314
 8149TIP3    H145862   2.292   0.890   5.882  1.0186 -0.8948  0.4516
 8149TIP3    H245863   2.262   0.859   5.737  1.2940  0.7452  0.0172
 8150TIP3   OH245864   1.192   1.426   1.969  0.0392 -0.4600  0.5664
 8150TIP3    H145865   1.186   1.348   2.025 -1.5047 -0.6958  0.1203
 8150TIP3    H245866   1.121   1.483   2.000 -0.9760 -0.6725 -1.2124
 8151TIP3   OH245867   3.671   2.222  15.460 -0.2103  0.5678 -0.2106
 8151TIP3    H145868   3.672   2.132  15.429 -1.0306  0.8842 -1.2190
 8151TIP3    H245869   3.726   2.270  15.398  1.9351  0.4519  1.4832
 8152TIP3   OH245870   3.464   2.800  12.922 -0.0191 -0.3873  0.0411
 8152TIP3    H145871   3.417   2.883  12.913 -1.0746 -0.7281  1.8424
 8152TIP3    H245872   3.516   2.811  13.002  0.2459 -1.2676  0.0027
 8153TIP3   OH245873   6.706   0.910   5.430 -0.0902 -0.3109 -0.1047
 8153TIP3    H145874   6.646   0.959   5.486 -1.9741 -0.9809 -1.4178
 8153TIP3    H245875   6.649   0.868   5.365  1.7631 -1.5273 -1.0371
 8154TIP3   OH245876   1.329   1.836  13.022 -0.7707  0.5900 -0.1195
 8154TIP3    H145877   1.375   1.893  12.960  2.4875 -1.7298 -0.1108
 8154TIP3    H245878   1.347   1.875  13.107  0.8870  0.0233 -0.1661
 8155TIP3   OH245879   6.201   5.151   2.643  0.0220  0.1121 -0.7245
 8155TIP3    H145880   6.152   5.174   2.564 -0.2227  0.3257 -0.5128
 8155TIP3    H245881   6.137   5.106   2.698  0.1687  0.0464 -0.6076
 8156TIP3   OH245882   3.001   3.753   2.619 -0.2832  0.0988  0.3856
 8156TIP3    H145883   2.996   3.830   2.676  0.5269  0.7610 -0.3924
 8156TIP3    H245884   2.921   3.756   2.567  0.5947  1.5543 -0.9823
 8157TIP3   OH245885   0.509   1.907  16.628 -0.4434 -0.3867 -0.0112
 8157TIP3    H145886   0.436   1.960  16.658 -1.7685 -2.9232  1.5719
 8157TIP3    H245887   0.585   1.941  16.675 -1.5135 -0.7523  2.0856
 8158TIP3   OH245888   6.410   3.440   1.343  0.2721 -0.1042 -0.1220
 8158TIP3    H145889   6.407   3.531   1.373 -0.8635 -0.0429 -0.4011
 8158TIP3    H245890   6.438   3.445   1.252  2.5592 -0.2172  0.5007
 8159TIP3   OH245891   6.708   5.193   0.316  0.2174 -1.1452 -0.1106
 8159TIP3    H145892   6.687   5.104   0.289 -2.3094 -1.1832  1.6997
 8159TIP3    H245893   6.710   5.190   0.412  2.8279  0.2202 -0.0314
 8160TIP3   OH245894   5.682   0.640  14.085 -0.5074 -0.0986 -0.1594
 8160TIP3    H145895   5.730   0.723  14.085  0.1049 -0.4486 -0.4609
 8160TIP3    H245896   5.608   0.656  14.026  0.9064 -0.4753 -2.1283
 8161TIP3   OH245897   1.078   0.362   1.866 -0.4043 -0.3555 -0.0643
 8161TIP3    H145898   1.162   0.375   1.824 -1.3861  4.4207 -1.1877
 8161TIP3    H245899   1.095   0.374   1.959  0.2964 -0.3438 -0.1928
 8162TIP3   OH245900   0.674   0.837   2.999 -0.3655 -0.1627 -0.0826
 8162TIP3    H145901   0.758   0.806   2.965  0.4520 -0.2727  1.8878
 8162TIP3    H245902   0.617   0.760   2.997 -0.1590 -0.3062 -0.6104
 8163TIP3   OH245903   5.473   3.766   6.416 -0.0313  0.6817 -0.1824
 8163TIP3    H145904   5.473   3.697   6.482 -1.4680  0.9006  0.0805
 8163TIP3    H245905   5.403   3.740   6.355  0.7008  0.9257 -1.1558
 8164TIP3   OH245906   2.457   4.414  12.895  0.0129  0.4739  0.3387
 8164TIP3    H145907   2.453   4.425  12.800 -0.5493 -2.0171  0.0121
 8164TIP3    H245908   2.547   4.386  12.912  0.2558  1.4008  0.6193
 8165TIP3   OH245909   1.158   3.280  15.075 -0.0680  0.5853 -0.2347
 8165TIP3    H145910   1.077   3.313  15.113 -0.2799  2.2573 -1.9583
 8165TIP3    H245911   1.130   3.216  15.009 -0.1355  2.0870 -1.7276
 8166TIP3   OH245912   2.234   1.475   0.907  0.3265  0.4820 -0.3855
 8166TIP3    H145913   2.270   1.497   0.993  0.5588  1.0838 -0.6279
 8166TIP3    H245914   2.268   1.388   0.889 -0.3014  0.0451  0.4355
 8167TIP3   OH245915   3.756   1.956  15.399 -0.4513  0.3587  0.4488
 8167TIP3    H145916   3.772   1.866  15.425  0.2210  0.3102 -0.1189
 8167TIP3    H245917   3.816   1.972  15.326  0.9442  1.9040  1.8352
 8168TIP3   OH245918   3.822   6.544   4.459 -0.3735 -0.4766 -0.3194
 8168TIP3    H145919   3.858   6.632   4.451  1.0209 -1.0586 -0.8282
 8168TIP3    H245920   3.891   6.487   4.424 -1.2657 -1.7615 -0.0486
 8169TIP3   OH245921   2.889   3.906   1.003 -0.3547  0.4575 -0.5098
 8169TIP3    H145922   2.929   3.990   0.984  1.5583 -0.6452 -1.6511
 8169TIP3    H245923   2.948   3.864   1.065 -1.4262  0.0353  0.2600
 8170TIP3   OH245924   1.539   2.131  13.127 -0.0844  0.4259 -0.1687
 8170TIP3    H145925   1.583   2.205  13.085 -0.0051 -0.3434 -1.5002
 8170TIP3    H245926   1.590   2.055  13.100 -0.2778 -0.1463  1.0247
 8171TIP3   OH245927   1.234   0.197  14.574  0.2339  0.0007 -0.2402
 8171TIP3    H145928   1.153   0.147  14.561 -0.2619  0.9618 -0.9740
 8171TIP3    H245929   1.240   0.253  14.497  1.0829  0.6586  0.2892
 8172TIP3   OH245930   3.402   4.416   3.706  0.1289 -0.1170 -0.2697
 8172TIP3    H145931   3.472   4.481   3.722 -0.4114  0.1634  1.1026
 8172TIP3    H245932   3.433   4.337   3.751  0.3065 -0.5071 -1.0638
 8173TIP3   OH245933   2.790   3.161  11.379  0.8603  0.0216 -0.2381
 8173TIP3    H145934   2.848   3.221  11.333  0.5497  0.1411 -0.4758
 8173TIP3    H245935   2.845   3.085  11.400  1.8515  1.2601  1.9710
 8174TIP3   OH245936   2.250   3.861  11.962  0.0100  0.3111 -0.1009
 8174TIP3    H145937   2.193   3.934  11.988 -0.5019 -0.0118 -0.2851
 8174TIP3    H245938   2.300   3.841  12.041 -1.5274 -0.6577  0.6750
 8175TIP3   OH245939   1.880   6.347   2.718  0.4254 -0.6903 -0.0239
 8175TIP3    H145940   1.874   6.375   2.809  0.9604 -2.4684  0.5887
 8175TIP3    H245941   1.896   6.428   2.669  0.0019  0.3076  1.4251
 8176TIP3   OH245942   2.382   6.480  16.372 -0.1784 -0.1861  0.3777
 8176TIP3    H145943   2.404   6.447  16.285 -0.3501  0.7418 -0.0291
 8176TIP3    H245944   2.347   6.404  16.418  3.0751 -1.6050  0.8183
 8177TIP3   OH245945   4.642   0.444  11.243  0.3079 -0.2543 -0.4157
 8177TIP3    H145946   4.586   0.422  11.169  0.8932  0.4443 -1.0792
 8177TIP3    H245947   4.697   0.366  11.256  0.5669 -0.1764 -1.0529
 8178TIP3   OH245948   2.327   2.656  16.480 -0.0939  0.1482 -0.0297
 8178TIP3    H145949   2.271   2.688  16.550  1.4466  0.4502  1.1064
 8178TIP3    H245950   2.364   2.574  16.514  0.5317  0.2011 -0.5601
 8179TIP3   OH245951   1.213   2.381  14.028  0.3035 -0.1424 -0.8915
 8179TIP3    H145952   1.163   2.363  14.107  2.8012 -0.7592  0.6586
 8179TIP3    H245953   1.200   2.474  14.012 -0.8506 -0.1714 -0.2397
 8180TIP3   OH245954   2.298   1.044  12.510  0.3115  0.2999  0.6022
 8180TIP3    H145955   2.220   1.067  12.459  1.5430  2.5850 -0.3716
 8180TIP3    H245956   2.266   0.978  12.572 -2.5170  1.5290  0.6297
 8181TIP3   OH245957   5.700   4.334   0.915  0.0432  0.6085  0.0743
 8181TIP3    H145958   5.724   4.348   1.007  0.7344  1.0938 -0.1780
 8181TIP3    H245959   5.771   4.372   0.865 -0.8687  1.3705 -0.6867
 8182TIP3   OH245960   5.005   1.339  11.144  0.9279  0.4243 -0.3335
 8182TIP3    H145961   5.047   1.338  11.230  0.9441  1.2424 -0.3205
 8182TIP3    H245962   4.981   1.248  11.127 -0.6530  0.4737  1.3158
 8183TIP3   OH245963   5.873   6.178   3.296 -0.0224 -0.0421  0.6192
 8183TIP3    H145964   5.793   6.141   3.258 -0.3334  0.0646  1.1635
 8183TIP3    H245965   5.883   6.262   3.251 -0.1980 -0.0701  0.5225
 8184TIP3   OH245966   0.749   5.118   3.038  0.4742 -0.5561 -0.3067
 8184TIP3    H145967   0.708   5.123   3.124  0.2578 -0.2307 -0.4243
 8184TIP3    H245968   0.792   5.203   3.027  0.2805 -0.4952 -0.6253
 8185TIP3   OH245969   4.797   6.694  11.678  0.0394  0.0050  0.7592
 8185TIP3    H145970   4.739   6.764  11.709 -0.6016  0.3415 -1.0547
 8185TIP3    H245971   4.841   6.732  11.601  1.0607 -0.9801  0.8349
 8186TIP3   OH245972   0.899   6.290  15.109  0.4043  0.7155  0.1558
 8186TIP3    H145973   0.832   6.228  15.140  2.7866 -1.3893  1.5119
 8186TIP3    H245974   0.910   6.352  15.181  0.6247  0.4217  0.3787
 8187TIP3   OH245975   0.239   0.183   3.963  0.0609 -0.0146  0.0936
 8187TIP3    H145976   0.209   0.092   3.962 -1.0425  0.3402 -0.2474
 8187TIP3    H245977   0.265   0.199   4.054 -0.7343 -0.3577  0.3866
 8188TIP3   OH245978   2.399   5.460   5.485 -0.1582 -0.2415  0.3355
 8188TIP3    H145979   2.412   5.549   5.517  0.6462 -0.2325  0.0217
 8188TIP3    H245980   2.418   5.404   5.560  1.5308 -0.2145 -0.0204
 8189TIP3   OH245981   2.050   4.690   2.598 -0.5899 -0.1244  0.4925
 8189TIP3    H145982   2.120   4.640   2.641 -0.3659 -1.3640 -1.1991
 8189TIP3    H245983   1.994   4.719   2.670  0.6757 -0.6409  1.7467
 8190TIP3   OH245984   4.492   0.181   4.969  0.2607  0.0167  0.2608
 8190TIP3    H145985   4.506   0.116   4.900 -0.6460  0.9512 -0.8634
 8190TIP3    H245986   4.494   0.265   4.923 -1.4416  0.6133  1.1740
 8191TIP3   OH245987   0.580   3.857  10.670  0.3347 -0.3754 -0.2137
 8191TIP3    H145988   0.501   3.893  10.711 -0.5731 -0.3289 -1.8976
 8191TIP3    H245989   0.638   3.838  10.743 -0.6719  0.9117  0.9828
 8192TIP3   OH245990   6.189   6.519   5.813 -0.4270  0.3281 -0.6896
 8192TIP3    H145991   6.236   6.525   5.896 -0.8237 -0.1376 -0.4211
 8192TIP3    H245992   6.172   6.610   5.788 -3.0760  0.5534  1.3613
 8193TIP3   OH245993   1.643   4.571  13.342 -0.2093  0.4774  0.4514
 8193TIP3    H145994   1.656   4.480  13.371  0.5886  0.6790  0.7630
 8193TIP3    H245995   1.665   4.624  13.418  0.3351  0.9592 -0.0321
 8194TIP3   OH245996   3.242   2.636  12.341  0.5768 -0.3857  0.1572
 8194TIP3    H145997   3.198   2.555  12.313  0.2365 -0.4544  0.8902
 8194TIP3    H245998   3.319   2.641  12.284  0.3178 -0.9445 -0.2561
 8195TIP3   OH245999   3.755   5.492  12.498 -0.0181  0.0460  0.1530
 8195TIP3    H146000   3.675   5.453  12.532 -0.2975  0.1900 -0.3315
 8195TIP3    H246001   3.753   5.583  12.528 -0.3045  0.1949 -0.3108
 8196TIP3   OH246002   3.228   4.888   5.683 -0.4993  0.0187 -0.6917
 8196TIP3    H146003   3.223   4.867   5.776 -2.8845  1.5260 -0.3974
 8196TIP3    H246004   3.216   4.804   5.639 -1.9703 -0.3948  0.4098
 8197TIP3   OH246005   2.652   0.444   5.695 -0.0987 -0.9326 -0.2609
 8197TIP3    H146006   2.611   0.530   5.707  0.4932 -0.8289  1.2903
 8197TIP3    H246007   2.615   0.411   5.614 -1.2095  0.2941 -0.2921
 8198TIP3   OH246008   3.773   1.470   0.989  0.1030 -0.0529  0.9934
 8198TIP3    H146009   3.772   1.413   0.911  0.0717 -0.3510  1.2099
 8198TIP3    H246010   3.829   1.424   1.051  1.3983  0.9331  0.5976
 8199TIP3   OH246011   1.358   3.510   5.922  0.6557 -0.7455  0.1806
 8199TIP3    H146012   1.304   3.528   5.845  0.3763 -0.9020  0.3421
 8199TIP3    H246013   1.425   3.449   5.891  2.2909  1.3305 -0.6716
 8200TIP3   OH246014   2.430   3.282   1.483 -0.2081 -0.5701 -0.2066
 8200TIP3    H146015   2.512   3.261   1.526  0.1626  0.7645 -0.2242
 8200TIP3    H246016   2.452   3.349   1.419 -1.6810  1.7112  1.5255
 8201TIP3   OH246017   5.130   1.219   4.373  0.1310 -0.4662 -0.3106
 8201TIP3    H146018   5.169   1.132   4.362  0.5287 -0.5853  1.7288
 8201TIP3    H246019   5.039   1.201   4.396  0.5573 -0.4593  1.5777
 8202TIP3   OH246020   1.262   2.058   2.178  0.4824 -0.1967  0.2563
 8202TIP3    H146021   1.257   1.967   2.148  1.5816 -0.6885  1.4631
 8202TIP3    H246022   1.241   2.053   2.271  0.2289  0.8369  0.2601
 8203TIP3   OH246023   6.010   6.371  13.433 -0.0745 -0.1621 -0.2948
 8203TIP3    H146024   6.068   6.299  13.406 -0.4419 -0.8607  0.7497
 8203TIP3    H246025   5.935   6.364  13.374 -0.5331 -1.2218  0.3936
 8204TIP3   OH246026   5.918   2.078  16.230 -0.2146 -0.2144  0.3479
 8204TIP3    H146027   5.967   2.096  16.149 -2.0178 -0.9345 -0.9772
 8204TIP3    H246028   5.860   2.153  16.239 -0.6959 -0.5982  0.4379
 8205TIP3   OH246029   1.839   4.155   3.628 -0.5368 -0.2198 -0.3025
 8205TIP3    H146030   1.889   4.095   3.574  1.2389 -1.4008  2.4608
 8205TIP3    H246031   1.748   4.128   3.615 -0.0401 -1.4336 -1.5085
 8206TIP3   OH246032   4.283   6.547  12.910  0.7874 -0.0771 -0.2040
 8206TIP3    H146033   4.231   6.558  12.990  1.5673 -0.6649  0.3945
 8206TIP3    H246034   4.238   6.602  12.845  0.3342  0.6684  0.7171
 8207TIP3   OH246035   6.764   1.850   3.328  0.0375 -0.2665 -0.1580
 8207TIP3    H146036   6.856   1.875   3.317  0.2280 -1.1768 -0.7685
 8207TIP3    H246037   6.762   1.756   3.308 -0.5017 -0.9793  2.7387
 8208TIP3   OH246038   0.720   6.699   4.029  0.2433  0.1576  0.0618
 8208TIP3    H146039   0.671   6.772   4.066 -1.0824  0.6174 -2.4218
 8208TIP3    H246040   0.812   6.724   4.039 -0.0922  0.8961  1.6307
 8209TIP3   OH246041   6.499   0.302  11.967  0.7724  0.4152 -0.5005
 8209TIP3    H146042   6.453   0.372  11.922  1.3436  1.2448  0.1830
 8209TIP3    H246043   6.497   0.327  12.060  1.8910  0.0581 -0.3628
 8210TIP3   OH246044   4.825   5.759  16.517  0.6559  0.0021 -0.0533
 8210TIP3    H146045   4.902   5.732  16.466 -0.3771 -1.6971 -0.7785
 8210TIP3    H246046   4.837   5.717  16.602  0.1333 -0.9767 -0.4513
 8211TIP3   OH246047   3.796   1.136   5.822  0.2052  0.0761 -0.4251
 8211TIP3    H146048   3.710   1.154   5.861  1.5152  0.0373  2.8838
 8211TIP3    H246049   3.802   1.041   5.818  1.0420 -0.0613  2.1000
 8212TIP3   OH246050   5.923   5.341   5.634 -0.0560  0.1365 -0.2747
 8212TIP3    H146051   5.896   5.432   5.645 -1.5519 -0.1460 -1.2296
 8212TIP3    H246052   6.018   5.342   5.644 -0.0017  1.8672 -0.6928
 8213TIP3   OH246053   6.014   3.132  16.809 -0.4288  0.3390  0.0639
 8213TIP3    H146054   5.999   3.118  16.716 -2.6560  0.7848  0.2982
 8213TIP3    H246055   6.087   3.194  16.813 -0.5434  0.6041 -1.3913
 8214TIP3   OH246056   5.883   6.453   3.661 -0.0434 -0.3855  0.6929
 8214TIP3    H146057   5.866   6.360   3.645  0.8899 -0.5188  0.4415
 8214TIP3    H246058   5.979   6.460   3.664 -0.1070  0.5490  0.8273
 8215TIP3   OH246059   3.120   5.705   0.487  0.2684  0.1722  0.6875
 8215TIP3    H146060   3.176   5.743   0.420 -0.3534 -0.8101 -0.4081
 8215TIP3    H246061   3.181   5.668   0.551  0.8745  0.1464  0.1074
 8216TIP3   OH246062   4.057   3.845   1.356 -0.2186 -0.4466  0.0891
 8216TIP3    H146063   4.064   3.857   1.451 -2.0776  2.3707 -0.0328
 8216TIP3    H246064   4.138   3.801   1.332  1.4420  0.9832  2.6438
 8217TIP3   OH246065   6.323   4.428  13.056  0.2246 -0.5775  0.5272
 8217TIP3    H146066   6.234   4.405  13.084 -0.2318  1.5683  1.1054
 8217TIP3    H246067   6.376   4.418  13.135 -0.3056  1.7085  1.2768
 8218TIP3   OH246068   5.585   0.239  16.907  0.2598 -0.0614 -0.4190
 8218TIP3    H146069   5.577   0.145  16.918  0.6986  0.0032  0.5334
 8218TIP3    H246070   5.639   0.268  16.980 -0.7416  1.0766 -0.0859
 8219TIP3   OH246071   4.015   0.432   3.535  0.6356 -0.6414 -0.8142
 8219TIP3    H146072   4.094   0.446   3.483 -1.0260  0.1014 -3.3953
 8219TIP3    H246073   4.012   0.337   3.550  1.4291 -0.8286 -1.7282
 8220TIP3   OH246074   1.784   3.304   2.712 -0.5680 -0.2072 -0.1276
 8220TIP3    H146075   1.841   3.238   2.672  1.4101  0.8543  0.8294
 8220TIP3    H246076   1.777   3.372   2.645  1.1272  0.6631  0.5409
 8221TIP3   OH246077   3.543   2.748   1.172  0.2682 -0.1405 -0.2672
 8221TIP3    H146078   3.476   2.738   1.103  0.4938  0.6805 -0.6176
 8221TIP3    H246079   3.529   2.836   1.206 -0.0908 -0.6776  1.0277
 8222TIP3   OH246080   2.532   6.382  11.045 -0.1993  0.3543  0.1165
 8222TIP3    H146081   2.551   6.467  11.083  2.5720  0.4114 -1.1337
 8222TIP3    H246082   2.564   6.319  11.110  2.4510  0.4330 -0.9557
 8223TIP3   OH246083   5.098   4.083   2.008  0.0389 -0.4024  0.3594
 8223TIP3    H146084   5.166   4.105   2.071  0.3451  0.7093 -0.3225
 8223TIP3    H246085   5.093   3.987   2.009  0.0895 -0.4062  1.9803
 8224TIP3   OH246086   5.782   2.640   4.404 -0.2655  0.2905 -0.5099
 8224TIP3    H146087   5.808   2.648   4.496  1.9478  0.1553 -1.0552
 8224TIP3    H246088   5.749   2.551   4.396 -1.9098  0.7783  0.4350
 8225TIP3   OH246089   2.358   0.275  15.097  0.6023  0.0480  0.5690
 8225TIP3    H146090   2.272   0.299  15.132  0.0928 -1.9705  0.8671
 8225TIP3    H246091   2.365   0.180  15.114  1.4591 -0.5218 -2.4190
 8226TIP3   OH246092   2.440   3.280  14.056 -0.1571  0.0796  0.0563
 8226TIP3    H146093   2.470   3.224  14.129  0.7689 -3.2583 -2.6234
 8226TIP3    H246094   2.518   3.326  14.027  0.9715 -2.9497 -2.2198
 8227TIP3   OH246095   1.913   6.742   5.494 -0.1025  0.3675  0.0720
 8227TIP3    H146096   1.955   6.657   5.486  0.5613  0.8282 -2.0294
 8227TIP3    H246097   1.819   6.723   5.484 -0.0230 -0.1728  0.3127
 8228TIP3   OH246098   4.791   3.637  12.592  0.2128 -0.0174  0.0033
 8228TIP3    H146099   4.862   3.629  12.528  0.6698 -0.6645  0.5743
 8228TIP3    H246100   4.729   3.698  12.552 -0.2847 -1.5888 -1.7624
 8229TIP3   OH246101   6.153   5.008  12.476 -0.2569  0.0272 -0.5411
 8229TIP3    H146102   6.094   4.936  12.500 -0.6951  0.6804  0.4273
 8229TIP3    H246103   6.100   5.087  12.490  1.0645  0.6672  1.0867
 8230TIP3   OH246104   4.575   0.350   1.517  0.2722 -0.2732 -0.6581
 8230TIP3    H146105   4.481   0.340   1.531  0.2756 -0.3644 -0.7055
 8230TIP3    H246106   4.583   0.379   1.426  0.2989 -0.4014 -0.6969
 8231TIP3   OH246107   6.662   6.161   3.013  0.2138 -0.0022 -0.3070
 8231TIP3    H146108   6.735   6.215   3.043  0.0165 -0.3704  0.8446
 8231TIP3    H246109   6.703   6.095   2.956  0.6574  0.3337 -0.3882
 8232TIP3   OH246110   0.745   0.380   1.076  0.0569 -1.4453  0.1709
 8232TIP3    H146111   0.692   0.351   1.002 -0.4890  0.5835 -0.2923
 8232TIP3    H246112   0.813   0.313   1.084 -0.5990 -2.3545 -1.3621
 8233TIP3   OH246113   1.076   1.214  13.579 -0.8475 -0.1037  0.0555
 8233TIP3    H146114   1.034   1.140  13.535 -0.7837 -0.0233 -0.1443
 8233TIP3    H246115   1.094   1.183  13.667 -0.4792 -0.4565 -0.1420
 8234TIP3   OH246116   6.750   6.014  15.190  0.4085  0.1803 -0.1944
 8234TIP3    H146117   6.768   6.072  15.264 -0.0349  0.4155 -0.2702
 8234TIP3    H246118   6.683   5.954  15.222  0.7758 -0.2127 -0.1567
 8235TIP3   OH246119   4.566   2.342   0.697 -0.1078 -0.1571 -0.3923
 8235TIP3    H146120   4.533   2.329   0.608  2.4462 -0.3480 -1.3865
 8235TIP3    H246121   4.523   2.274   0.749 -1.8359  0.1188 -1.3793
 8236TIP3   OH246122   2.438   0.965  17.075 -0.2116 -0.7555  0.2550
 8236TIP3    H146123   2.345   0.990  17.077 -0.0744 -0.2507  0.3974
 8236TIP3    H246124   2.485   1.047  17.087  0.2194 -1.3921  3.9998
 8237TIP3   OH246125   2.511   0.955   2.732 -0.0031 -0.1632  0.1847
 8237TIP3    H146126   2.423   0.982   2.705  0.7812  0.9382 -1.3941
 8237TIP3    H246127   2.521   0.867   2.695  0.2555  0.4826 -1.3492
 8238TIP3   OH246128   5.486   2.855   0.228  0.2417 -0.3850  0.0435
 8238TIP3    H146129   5.462   2.941   0.191  0.1990 -0.3553  0.1413
 8238TIP3    H246130   5.462   2.793   0.159 -0.2674 -0.3693  0.1984
 8239TIP3   OH246131   0.884   0.237  13.840  0.5199  0.2540 -0.0622
 8239TIP3    H146132   0.946   0.289  13.790 -0.1222 -2.3279 -3.9907
 8239TIP3    H246133   0.936   0.163  13.873  0.2232 -0.0962 -0.3664
 8240TIP3   OH246134   4.891   1.158  14.856  0.2029 -0.5983 -0.1138
 8240TIP3    H146135   4.888   1.186  14.947 -0.6933 -0.0072 -0.3164
 8240TIP3    H246136   4.800   1.146  14.830  0.4575 -1.1455 -0.8244
 8241TIP3   OH246137   1.910   2.098   5.692 -0.6362 -0.3215  0.1453
 8241TIP3    H146138   1.818   2.079   5.707 -0.6403 -1.1191 -0.7502
 8241TIP3    H246139   1.945   2.120   5.778 -1.7746  0.5589  0.3981
 8242TIP3   OH246140   1.905   3.316  11.497 -0.1823  0.3733 -0.4561
 8242TIP3    H146141   1.851   3.268  11.560  2.0347  0.4595  1.6447
 8242TIP3    H246142   1.984   3.263  11.487  0.8552  1.9023 -0.7372
 8243TIP3   OH246143   5.669   4.098  13.479  0.6894 -0.0851 -0.3367
 8243TIP3    H146144   5.682   4.134  13.567 -2.1158  0.3548 -0.0051
 8243TIP3    H246145   5.669   4.003  13.492  2.8927 -0.1437 -0.3608
 8244TIP3   OH246146   2.725   6.327   0.824  0.1331 -0.0427  0.3429
 8244TIP3    H146147   2.769   6.385   0.763  0.5647  0.2291  0.9048
 8244TIP3    H246148   2.787   6.256   0.839  0.1001 -0.0172  0.6039
 8245TIP3   OH246149   4.850   6.021  11.052  0.1127 -0.0140  0.4736
 8245TIP3    H146150   4.766   6.067  11.063 -0.8535 -0.5719 -3.3215
 8245TIP3    H246151   4.842   5.944  11.108 -0.7811  1.2076  2.1417
 8246TIP3   OH246152   0.634   4.433   0.846 -0.4714  0.1462  0.6971
 8246TIP3    H146153   0.613   4.420   0.939  1.5746  0.6853  1.3095
 8246TIP3    H246154   0.717   4.481   0.848 -0.7601  0.8265 -1.4340
 8247TIP3   OH246155   3.468   4.606  16.502 -0.1482 -0.3347 -0.7248
 8247TIP3    H146156   3.526   4.676  16.530  1.7628 -0.6716 -3.4154
 8247TIP3    H246157   3.470   4.543  16.574  1.2886  0.5887  0.0938
 8248TIP3   OH246158   6.304   0.535  12.411 -0.4130  0.6340 -0.2735
 8248TIP3    H146159   6.270   0.535  12.322 -1.8697  0.4899  0.2557
 8248TIP3    H246160   6.344   0.622  12.422  0.1470  0.5057 -1.1718
 8249TIP3   OH246161   4.825   5.086  12.666  0.0697  0.1292 -0.4165
 8249TIP3    H146162   4.835   5.117  12.576 -1.1764 -1.1517 -1.0417
 8249TIP3    H246163   4.883   5.009  12.671 -0.4817 -0.2900 -0.3884
 8250TIP3   OH246164   4.627   0.710  16.065 -0.2375 -0.6996  0.2739
 8250TIP3    H146165   4.624   0.804  16.047 -3.7317 -0.9748 -1.4836
 8250TIP3    H246166   4.540   0.689  16.098 -0.3299 -3.5987 -1.4213
 8251TIP3   OH246167   2.933   3.761   1.571  0.2759  0.1947 -0.2496
 8251TIP3    H146168   2.882   3.681   1.578  0.2232  0.3181  1.0753
 8251TIP3    H246169   2.874   3.830   1.603  0.8588  0.5123  0.1625
 8252TIP3   OH246170   3.268   2.449   6.958  0.1950 -0.0624  0.2018
 8252TIP3    H146171   3.206   2.377   6.943 -0.4478  0.6238 -0.4648
 8252TIP3    H246172   3.215   2.528   6.956  1.1602  0.5873 -0.8916
 8253TIP3   OH246173   0.967   3.451   2.558 -0.1168  0.2628 -0.0765
 8253TIP3    H146174   0.931   3.363   2.559  1.9250 -0.6387  0.4950
 8253TIP3    H246175   0.896   3.506   2.527 -0.8592 -1.8480 -2.4667
 8254TIP3   OH246176   2.132   0.769  14.134  0.1709  0.0243 -0.7927
 8254TIP3    H146177   2.098   0.693  14.183  1.8811 -0.9838 -1.0964
 8254TIP3    H246178   2.055   0.823  14.118 -0.7605 -0.5374  1.3642
 8255TIP3   OH246179   3.679   3.197   5.881 -0.4758  0.0323  0.8003
 8255TIP3    H146180   3.597   3.240   5.903 -1.4241  0.0923 -2.4336
 8255TIP3    H246181   3.721   3.256   5.818  1.1113 -0.9483  0.8844
 8256TIP3   OH246182   3.629   2.527  15.107  0.0757  0.4725 -0.1834
 8256TIP3    H146183   3.608   2.608  15.153  0.3104  0.6799 -0.4400
 8256TIP3    H246184   3.712   2.545  15.063 -0.5448  0.5644 -1.3537
 8257TIP3   OH246185   0.077   5.210  15.857 -0.1636  0.1593  0.1965
 8257TIP3    H146186  -0.012   5.230  15.889  0.1124 -1.0935  1.8541
 8257TIP3    H246187   0.063   5.155  15.780 -0.8360 -0.0289  0.4452
 8258TIP3   OH246188   3.491   1.818  16.206  0.2044  0.1356 -0.0143
 8258TIP3    H146189   3.429   1.890  16.213  2.2774  2.0835 -0.4591
 8258TIP3    H246190   3.479   1.767  16.286 -0.2061  1.9419  1.1350
 8259TIP3   OH246191   6.303   5.791   1.024  0.2384 -0.3105 -0.6126
 8259TIP3    H146192   6.271   5.879   1.045 -0.3022 -0.6321 -0.0401
 8259TIP3    H246193   6.326   5.753   1.109  0.2458 -0.8014 -0.8289
 8260TIP3   OH246194   2.250   6.430   0.121 -0.1913  0.5667  0.2097
 8260TIP3    H146195   2.287   6.517   0.104 -0.7310  1.1363  1.7477
 8260TIP3    H246196   2.269   6.380   0.042 -0.1451  2.1729 -0.8406
 8261TIP3   OH246197   2.098   6.514   3.798 -0.4926  0.2455  0.2380
 8261TIP3    H146198   2.141   6.499   3.714  1.1331 -1.2179  1.2640
 8261TIP3    H246199   2.006   6.527   3.776 -1.0373 -4.5810 -1.5358
 8262TIP3   OH246200   0.625   0.209   1.365  0.0473 -0.1445 -0.2438
 8262TIP3    H146201   0.649   0.212   1.273 -0.0716 -2.2434 -0.3937
 8262TIP3    H246202   0.708   0.217   1.412  0.6222 -2.7791 -0.6660
 8263TIP3   OH246203   2.068   3.182   4.179 -0.3428  0.8656 -0.2003
 8263TIP3    H146204   2.116   3.259   4.210 -0.0422  0.1540  1.1874
 8263TIP3    H246205   2.029   3.209   4.096  0.2993  2.2961 -0.0564
 8264TIP3   OH246206   0.855   5.978   1.985 -0.5007  0.7075  0.5378
 8264TIP3    H146207   0.876   5.954   2.075  0.1003  3.3660  1.2131
 8264TIP3    H246208   0.795   6.052   1.993 -2.0310 -0.2411 -1.3246
 8265TIP3   OH246209   1.628   3.231   3.105  0.1691  0.4125 -0.4099
 8265TIP3    H146210   1.648   3.199   3.193 -1.7067  1.1468  0.3398
 8265TIP3    H246211   1.710   3.270   3.075  1.0026 -0.3197  0.7846
 8266TIP3   OH246212   0.980   4.717   5.097  0.1119 -0.5259 -0.4622
 8266TIP3    H146213   0.979   4.636   5.046 -0.6268 -0.5076 -0.4821
 8266TIP3    H246214   0.921   4.701   5.170 -1.0341  0.4101 -1.1457
 8267TIP3   OH246215   3.824   3.258   1.462  0.2966 -0.2419 -0.0770
 8267TIP3    H146216   3.885   3.310   1.410  0.1188  0.0369 -0.0055
 8267TIP3    H246217   3.794   3.190   1.401 -0.7035  0.6942 -0.6750
 8268TIP3   OH246218   4.024   4.771   0.474 -0.4041  0.4110 -0.2592
 8268TIP3    H146219   3.999   4.824   0.399 -1.3905 -1.0076 -0.9676
 8268TIP3    H246220   3.949   4.714   0.491  1.2016 -1.9897 -0.6566
 8269TIP3   OH246221   1.434   4.267   1.299 -0.3773  0.6119  0.4333
 8269TIP3    H146222   1.452   4.177   1.328 -0.4880  0.0545 -1.1535
 8269TIP3    H246223   1.470   4.321   1.369  0.0478 -0.6542  1.2438
 8270TIP3   OH246224   3.661   1.568  11.928 -0.6492  0.3394 -0.1246
 8270TIP3    H146225   3.738   1.619  11.954  0.8235 -1.4696 -0.7559
 8270TIP3    H246226   3.617   1.547  12.011  0.5688 -0.1670  0.4057
 8271TIP3   OH246227   1.591   2.569   1.994  0.0894  0.1640  0.1374
 8271TIP3    H146228   1.516   2.560   2.053 -1.6700  4.6154 -0.9961
 8271TIP3    H246229   1.560   2.531   1.912 -0.7898  1.3383 -0.1182
 8272TIP3   OH246230   4.896   0.596   2.658  0.0022  0.1523 -0.4323
 8272TIP3    H146231   4.936   0.661   2.717 -1.3142  0.9124 -0.3180
 8272TIP3    H246232   4.857   0.532   2.717 -0.9230  0.6701 -0.4523
 8273TIP3   OH246233   2.287   2.293   4.518 -0.5070  0.1920  0.5957
 8273TIP3    H146234   2.294   2.320   4.426  0.4297  1.0064  0.8971
 8273TIP3    H246235   2.199   2.255   4.524 -0.9100  0.9092 -0.4357
 8274TIP3   OH246236   5.699   2.794   5.938  0.4487  0.2629 -0.3646
 8274TIP3    H146237   5.743   2.735   5.998 -0.6616  0.2108  0.4263
 8274TIP3    H246238   5.658   2.860   5.994  1.8382  1.9529 -1.2297
 8275TIP3   OH246239   6.626   5.617   1.358  0.2662  0.0186  0.0950
 8275TIP3    H146240   6.579   5.538   1.384 -0.6915  1.3423  2.7933
 8275TIP3    H246241   6.564   5.665   1.303  1.7231 -2.0472 -3.7617
 8276TIP3   OH246242   3.061   2.224  10.685  0.5488  0.1953 -0.5604
 8276TIP3    H146243   2.986   2.251  10.738 -0.3627 -1.9321 -0.6684
 8276TIP3    H246244   3.137   2.253  10.736 -0.3193  0.3257  0.7161
 8277TIP3   OH246245   1.529   1.002  13.244  0.0397  0.0181  0.5689
 8277TIP3    H146246   1.624   1.013  13.231  0.0340 -0.4773  0.0588
 8277TIP3    H246247   1.490   1.074  13.195  0.0609 -1.3146 -1.5277
 8278TIP3   OH246248   0.591   2.686  10.658  0.0124  0.3190  0.3731
 8278TIP3    H146249   0.526   2.699  10.588  1.1546  1.2646 -0.5533
 8278TIP3    H246250   0.659   2.633  10.617 -0.3855 -1.1647  1.5112
 8279TIP3   OH246251   6.324   1.156   0.169 -0.1014 -0.5282 -0.7241
 8279TIP3    H146252   6.369   1.219   0.225 -1.7123 -0.3037  0.3728
 8279TIP3    H246253   6.234   1.187   0.166 -0.8579 -2.5553 -0.4609
 8280TIP3   OH246254   4.586   4.880   6.579 -0.0664  0.4076 -0.2522
 8280TIP3    H146255   4.538   4.924   6.510  0.0312  0.5769 -0.2126
 8280TIP3    H246256   4.591   4.943   6.650 -0.4902  0.1014  0.0553
 8281TIP3   OH246257   4.614   0.813  15.326  0.0546  0.0693 -0.1563
 8281TIP3    H146258   4.534   0.769  15.298  0.1472  0.5735 -1.2394
 8281TIP3    H246259   4.681   0.745  15.322 -0.0654 -0.0278 -0.5091
 8282TIP3   OH246260   0.175   1.850   1.031  0.2841 -0.5236  0.2341
 8282TIP3    H146261   0.120   1.926   1.049 -1.5852 -2.0420  1.3799
 8282TIP3    H246262   0.198   1.817   1.118 -0.3609 -2.2166 -0.2081
 8283TIP3   OH246263   6.571   1.734  16.003 -0.2473  0.3092  0.2312
 8283TIP3    H146264   6.655   1.748  16.046  0.4566 -0.8364 -0.7015
 8283TIP3    H246265   6.516   1.694  16.070  0.3565 -0.0701  0.5085
 8284TIP3   OH246266   0.878   6.493   2.704  0.1688 -0.2931  0.4372
 8284TIP3    H146267   0.818   6.425   2.674  0.9379 -0.6753 -0.3040
 8284TIP3    H246268   0.937   6.447   2.765 -0.4893  0.1584  1.4503
 8285TIP3   OH246269   4.271   3.604  14.999  0.1570  0.0158 -0.1930
 8285TIP3    H146270   4.197   3.544  15.008 -0.3900  0.4980 -1.3624
 8285TIP3    H246271   4.233   3.691  15.006  0.6203  0.2692 -0.7281
 8286TIP3   OH246272   5.619   0.895  14.249  0.2390  0.1657 -0.0232
 8286TIP3    H146273   5.603   0.801  14.244  2.5816 -0.2540 -0.7401
 8286TIP3    H246274   5.577   0.930  14.171  2.9439 -0.9597 -2.1541
 8287TIP3   OH246275   4.066   1.408   4.992  0.3589  0.6214 -0.1975
 8287TIP3    H146276   4.012   1.428   4.915 -0.0967  1.0948  0.2316
 8287TIP3    H246277   4.118   1.487   5.004 -0.7717  1.2248  0.9561
 8288TIP3   OH246278   0.254   5.648  13.493 -0.0628 -0.4027 -0.0847
 8288TIP3    H146279   0.186   5.715  13.497  0.1462 -0.2426  1.2162
 8288TIP3    H246280   0.217   5.579  13.438 -1.5394 -0.5908  1.0818
 8289TIP3   OH246281   3.946   4.129   4.814 -0.2415  0.5714 -0.1590
 8289TIP3    H146282   3.939   4.126   4.719  0.6219  0.0005 -0.2109
 8289TIP3    H246283   4.033   4.164   4.831  1.6225 -3.7375  0.3600
 8290TIP3   OH246284   6.285   1.504   0.918  0.0608 -0.4591 -0.4563
 8290TIP3    H146285   6.378   1.505   0.897  0.5013 -0.9534  1.2745
 8290TIP3    H246286   6.241   1.489   0.834  1.4374  1.0304 -1.5109
 8291TIP3   OH246287   0.491   1.914   1.427  0.9234  0.0550  0.4303
 8291TIP3    H146288   0.479   1.831   1.474  1.7231 -1.1250 -1.3524
 8291TIP3    H246289   0.582   1.911   1.398  0.2852  0.4295 -1.7190
 8292TIP3   OH246290   2.627   5.589  16.784  0.0729  0.5446  0.4321
 8292TIP3    H146291   2.543   5.609  16.825  0.8103  0.7244  1.9680
 8292TIP3    H246292   2.681   5.665  16.802 -0.0533  1.4302 -2.5310
 8293TIP3   OH246293   6.243   2.400  13.753  0.0049 -0.0881 -0.1316
 8293TIP3    H146294   6.249   2.392  13.658 -0.0701  0.2956 -0.1709
 8293TIP3    H246295   6.219   2.312  13.783  0.7592 -0.3915 -0.3970
 8294TIP3   OH246296   2.287   3.439   4.505 -0.1789 -0.0698 -0.1393
 8294TIP3    H146297   2.312   3.350   4.530  1.2062  0.5886  0.9879
 8294TIP3    H246298   2.366   3.490   4.521 -0.7503  1.2555 -1.4060
 8295TIP3   OH246299   4.356   3.979  13.683 -0.2740  0.2969  0.2882
 8295TIP3    H146300   4.307   3.918  13.628  1.3526 -0.0830 -0.8267
 8295TIP3    H246301   4.377   4.052  13.625 -0.2402  0.8387  0.9706
 8296TIP3   OH246302   5.052   2.733  11.149  0.2618 -0.3865  0.0679
 8296TIP3    H146303   5.001   2.665  11.104  0.2839  0.4638 -1.3005
 8296TIP3    H246304   5.114   2.684  11.203 -0.7603 -1.4434  0.3413
 8297TIP3   OH246305   1.489   5.349   6.885  0.0770  0.0946 -0.2644
 8297TIP3    H146306   1.561   5.321   6.829  1.3029  1.5113  0.5200
 8297TIP3    H246307   1.412   5.350   6.827  0.9222 -0.2999 -1.4255
 8298TIP3   OH246308   3.210   2.296  16.469 -0.5113  0.0365  0.7358
 8298TIP3    H146309   3.193   2.346  16.549  1.2593  0.4083  0.9290
 8298TIP3    H246310   3.301   2.318  16.447  0.1002 -2.5457  0.4332
 8299TIP3   OH246311   3.780   4.181  10.939  0.1807 -0.6227  0.5154
 8299TIP3    H146312   3.763   4.121  10.866 -0.2382  0.6075 -0.4273
 8299TIP3    H246313   3.860   4.227  10.915 -0.6923  0.7658  0.1451
 8300TIP3   OH246314   6.168   5.755   1.980  0.0759 -0.4088  0.1729
 8300TIP3    H146315   6.207   5.784   1.897 -0.2967 -0.2391  0.0532
 8300TIP3    H246316   6.080   5.726   1.955  0.2557 -1.1441  0.3774
 8301TIP3   OH246317   0.542   5.552  16.350  0.3781  0.1196  0.2660
 8301TIP3    H146318   0.453   5.531  16.377  1.0045 -1.2379  1.3843
 8301TIP3    H246319   0.555   5.499  16.271  0.1816  0.3422  0.0848
 8302TIP3   OH246320   4.496   2.822   5.410  0.0641  0.1298  0.6108
 8302TIP3    H146321   4.535   2.821   5.322  0.4684  1.9383  0.7263
 8302TIP3    H246322   4.402   2.825   5.395 -0.0138 -2.0580  0.3071
 8303TIP3   OH246323   0.877   2.733   5.933 -0.6816  0.0808 -0.0122
 8303TIP3    H146324   0.971   2.739   5.951 -0.3515 -2.6279 -0.3845
 8303TIP3    H246325   0.850   2.650   5.971 -2.7783  0.3933 -0.6607
 8304TIP3   OH246326   1.274   6.697   3.302 -0.7661 -0.1510 -0.3910
 8304TIP3    H146327   1.257   6.790   3.287 -2.0624 -0.1179  1.0663
 8304TIP3    H246328   1.199   6.666   3.352  0.4114 -1.6043  0.5745
 8305TIP3   OH246329   1.888   3.860  13.009  0.2304  0.2184 -0.5538
 8305TIP3    H146330   1.929   3.897  12.931 -1.1340  1.2323 -0.8209
 8305TIP3    H246331   1.888   3.765  12.993  0.8640  0.3377 -1.3247
 8306TIP3   OH246332   6.260   3.645  11.476 -0.8801 -0.4363 -0.1971
 8306TIP3    H146333   6.260   3.740  11.458 -0.4464 -0.3877  0.0335
 8306TIP3    H246334   6.169   3.619  11.466 -1.1027  0.1170  0.3155
 8307TIP3   OH246335   2.902   6.592   3.567  0.6145  0.2064 -0.3521
 8307TIP3    H146336   2.904   6.687   3.573 -1.5883  0.2508  0.8718
 8307TIP3    H246337   2.984   6.568   3.523  1.0040  2.6697 -1.0946
 8308TIP3   OH246338   6.139   2.871  15.400  0.0613  0.0825 -0.4436
 8308TIP3    H146339   6.123   2.828  15.315  0.4837  0.1508 -0.5604
 8308TIP3    H246340   6.229   2.902  15.394  0.2369 -0.2962  0.2014
 8309TIP3   OH246341   4.701   0.460   3.050  0.4247 -0.1652 -0.2628
 8309TIP3    H146342   4.680   0.383   3.104 -0.6722  0.4200  0.1662
 8309TIP3    H246343   4.616   0.494   3.023  0.9408  0.2264 -1.4249
 8310TIP3   OH246344   6.523   3.790  13.006  0.7772 -0.4584 -0.1418
 8310TIP3    H146345   6.579   3.809  12.931  1.2293 -1.2141 -0.0026
 8310TIP3    H246346   6.583   3.756  13.072  0.6399  1.5114  1.0962
 8311TIP3   OH246347   4.997   5.682  17.049 -0.1011 -0.4784  0.1957
 8311TIP3    H146348   5.029   5.592  17.043  0.5138 -0.2391 -0.2809
 8311TIP3    H246349   5.064   5.728  17.101 -0.8765 -0.4942  1.2530
 8312TIP3   OH246350   1.290   6.182   1.430 -0.3705 -0.8520 -0.0058
 8312TIP3    H146351   1.371   6.136   1.452  0.1983 -0.2223 -0.7096
 8312TIP3    H246352   1.224   6.144   1.487  0.9598  0.5479  2.6628
 8313TIP3   OH246353   5.356   2.744  11.697  0.1604  0.0679  0.1534
 8313TIP3    H146354   5.396   2.738  11.611 -0.4909 -2.7141 -0.0462
 8313TIP3    H246355   5.430   2.740  11.758  0.6025  1.7862 -0.2181
 8314TIP3   OH246356   0.217   1.041  13.784 -0.6178 -0.0771  0.3957
 8314TIP3    H146357   0.245   0.951  13.765  1.7403  0.1095  2.5113
 8314TIP3    H246358   0.205   1.043  13.879 -1.8799  1.5705  0.2454
 8315TIP3   OH246359   6.560   3.268   3.891 -0.7116  0.5276  0.2716
 8315TIP3    H146360   6.485   3.227   3.848 -0.6161  1.6083 -0.9835
 8315TIP3    H246361   6.608   3.312   3.821  1.3425 -0.4493  0.9869
 8316TIP3   OH246362   0.202   1.679   2.581 -0.2546  0.3602  0.0050
 8316TIP3    H146363   0.144   1.603   2.585 -0.4650  0.5511  0.8564
 8316TIP3    H246364   0.190   1.715   2.493 -0.5180 -0.3013 -0.2344
 8317TIP3   OH246365   2.307   0.270   6.158  0.1761 -0.3810 -0.0047
 8317TIP3    H146366   2.216   0.255   6.132  0.3041  0.2649 -0.8601
 8317TIP3    H246367   2.313   0.365   6.171  0.8591 -0.3545 -0.4764
 8318TIP3   OH246368   3.889   4.068   3.614 -0.7032  0.4463 -0.3753
 8318TIP3    H146369   3.923   4.086   3.702  1.7330 -0.2608 -1.0860
 8318TIP3    H246370   3.915   4.144   3.563  0.1104 -0.2365 -1.0040
 8319TIP3   OH246371   0.960   3.716  13.020 -0.2211 -0.1524 -0.3320
 8319TIP3    H146372   0.901   3.790  13.037 -0.2894  0.3739 -2.5775
 8319TIP3    H246373   1.038   3.756  12.980 -0.3383 -1.2779 -1.7626
 8320TIP3   OH246374   2.902   6.232  14.825  0.4610 -0.0446 -0.0622
 8320TIP3    H146375   2.939   6.190  14.747  0.6086 -1.3380  0.6913
 8320TIP3    H246376   2.975   6.281  14.863  1.4649 -2.4533  1.3284
 8321TIP3   OH246377   3.866   6.513   0.060  0.6972  0.1248  0.1920
 8321TIP3    H146378   3.793   6.558   0.017  1.6394  0.9220 -0.6214
 8321TIP3    H246379   3.916   6.475  -0.012  1.9072  0.8614  0.6281
 8322TIP3   OH246380   5.993   1.460   5.855  0.8577 -0.4894  0.0445
 8322TIP3    H146381   5.993   1.523   5.783  0.1222  1.1024  1.3748
 8322TIP3    H246382   6.083   1.461   5.888  0.8256 -0.0704  0.1166
 8323TIP3   OH246383   5.659   6.591  15.108 -0.1103 -0.1079  0.1917
 8323TIP3    H146384   5.611   6.567  15.188 -0.5025  3.3629  1.1512
 8323TIP3    H246385   5.635   6.682  15.093  1.9147  0.0727 -2.5325
 8324TIP3   OH246386   5.791   4.072   3.637  0.4902  0.8196 -0.3820
 8324TIP3    H146387   5.759   4.143   3.692  0.5657 -0.1614  0.9592
 8324TIP3    H246388   5.769   3.992   3.684  0.6364 -0.0595 -1.7367
 8325TIP3   OH246389   4.563   3.776   2.910  0.2420  0.0911 -0.3906
 8325TIP3    H146390   4.618   3.827   2.969  1.2714 -1.8172  0.4130
 8325TIP3    H246391   4.500   3.732   2.967  1.2580 -1.7929 -0.6246
 8326TIP3   OH246392   3.734   6.457  11.157 -0.2579  0.1877  0.1541
 8326TIP3    H146393   3.809   6.460  11.216  0.7135  1.7290 -1.0513
 8326TIP3    H246394   3.672   6.521  11.194  0.9613  2.2490 -1.1581
 8327TIP3   OH246395   0.923   5.115   5.806  0.0031  0.3516 -0.6547
 8327TIP3    H146396   0.859   5.069   5.860 -2.7111  1.7749 -2.4239
 8327TIP3    H246397   0.957   5.185   5.862 -1.3924  0.7027 -0.2209
 8328TIP3   OH246398   4.468   6.131  15.335  0.2226 -0.4976 -0.1088
 8328TIP3    H146399   4.465   6.037  15.352 -3.0288 -0.2690  1.2603
 8328TIP3    H246400   4.387   6.150  15.288  1.0967  1.5618 -0.9200
 8329TIP3   OH246401   2.320   0.875  14.910  0.3650 -0.3168  0.5632
 8329TIP3    H146402   2.266   0.849  14.836  1.7360  1.3251 -1.1007
 8329TIP3    H246403   2.392   0.812  14.911  1.0665  0.4590 -0.3700
 8330TIP3   OH246404   6.293   6.673   0.182 -0.0563  0.2048  0.1679
 8330TIP3    H146405   6.327   6.755   0.145 -1.1364 -0.5137 -2.6935
 8330TIP3    H246406   6.207   6.697   0.216 -0.3545  0.2774 -0.6252
 8331TIP3   OH246407   1.205   4.291   1.107  0.0457 -0.0645  0.2200
 8331TIP3    H146408   1.270   4.268   1.040  0.8437 -0.1125  0.9813
 8331TIP3    H246409   1.229   4.236   1.182 -0.4748  0.4031  0.7326
 8332TIP3   OH246410   4.887   2.830  15.566  0.1226  0.3412  0.3196
 8332TIP3    H146411   4.840   2.842  15.649  0.2673  3.1264  0.1095
 8332TIP3    H246412   4.963   2.887  15.574 -0.6376  1.8768 -2.2592
 8333TIP3   OH246413   4.646   1.969  16.711 -0.4046 -0.1204 -0.0852
 8333TIP3    H146414   4.721   1.924  16.673 -0.6869 -0.2204 -0.5371
 8333TIP3    H246415   4.604   2.013  16.637 -1.0763 -0.4727  0.0757
 8334TIP3   OH246416   2.386   5.352  17.206  0.2783  0.1574  0.2750
 8334TIP3    H146417   2.419   5.322  17.291  0.8078  1.0991  0.4166
 8334TIP3    H246418   2.465   5.359  17.151  0.1047  0.7718  0.0944
 8335TIP3   OH246419   5.662   5.380  15.665 -0.0012 -0.0472  0.0969
 8335TIP3    H146420   5.742   5.353  15.709 -0.3273 -0.5016  0.4223
 8335TIP3    H246421   5.680   5.366  15.572 -0.5765 -2.6047  0.3090
 8336TIP3   OH246422   4.694   0.082  12.198 -0.4218  0.2765 -0.5673
 8336TIP3    H146423   4.727   0.168  12.170 -0.4162  0.6702  0.6079
 8336TIP3    H246424   4.670   0.094  12.290 -0.6343 -0.9274 -0.4518
 8337TIP3   OH246425   6.570   4.579  12.316  0.0004 -0.0377  0.2085
 8337TIP3    H146426   6.535   4.600  12.230 -0.0157  1.3539  0.5337
 8337TIP3    H246427   6.515   4.628  12.377  0.3909 -0.5346  0.9789
 8338TIP3   OH246428   6.533   6.078   5.536  0.0488 -0.0941  0.1408
 8338TIP3    H146429   6.554   6.048   5.447  1.7154  0.5377  0.2945
 8338TIP3    H246430   6.586   6.157   5.548 -2.2697  1.5041  0.6841
 8339TIP3   OH246431   5.545   6.760   3.992  0.3544  0.2331 -0.5218
 8339TIP3    H146432   5.641   6.752   3.994  0.2780 -0.9041  1.7742
 8339TIP3    H246433   5.514   6.670   3.985 -0.5883  0.6317 -1.8828
 8340TIP3   OH246434   6.348   1.706  12.633 -0.4213  0.2386  0.1405
 8340TIP3    H146435   6.368   1.799  12.623 -0.6877  0.2217 -0.6246
 8340TIP3    H246436   6.358   1.689  12.727  0.8322  0.7519  0.1194
 8341TIP3   OH246437   0.042   1.406  13.308 -0.2152  0.3727 -0.4092
 8341TIP3    H146438   0.038   1.399  13.404  1.7727  2.4438 -0.0707
 8341TIP3    H246439  -0.009   1.485  13.288 -0.2600  0.1909 -1.0226
 8342TIP3   OH246440   6.782   1.196  12.712  0.1991 -0.0504  0.0686
 8342TIP3    H146441   6.868   1.216  12.748 -0.6849  1.1593  1.6751
 8342TIP3    H246442   6.744   1.282  12.692  0.1183 -0.6328 -2.6207
 8343TIP3   OH246443   5.263   0.434  15.939  0.3618 -0.0500 -0.7057
 8343TIP3    H146444   5.249   0.528  15.926  0.9498  0.1028 -0.2741
 8343TIP3    H246445   5.258   0.422  16.034 -1.4966 -0.7550 -0.8551
 8344TIP3   OH246446   4.121   5.756   5.801 -0.2381 -0.6050  0.1137
 8344TIP3    H146447   4.199   5.704   5.781 -0.8021 -2.1651  1.6846
 8344TIP3    H246448   4.048   5.696   5.783 -0.9678  0.1105  0.6483
 8345TIP3   OH246449   6.582   4.127   4.579 -0.4188  0.0216  0.0428
 8345TIP3    H146450   6.641   4.200   4.563 -0.7807 -0.0203 -1.6378
 8345TIP3    H246451   6.495   4.164   4.571 -0.6373 -0.8457 -2.5135
 8346TIP3   OH246452   1.937   0.800  11.280  0.2811  0.3637  0.0655
 8346TIP3    H146453   1.922   0.728  11.342 -2.5564  0.1213 -0.7852
 8346TIP3    H246454   1.873   0.866  11.304 -2.0663 -0.3881 -3.4674
 8347TIP3   OH246455   2.202   4.979   1.832  0.1636 -0.7120  0.1710
 8347TIP3    H146456   2.192   4.946   1.742  0.9812  1.8139 -0.9404
 8347TIP3    H246457   2.130   5.042   1.841  1.9683  1.4739  0.0284
 8348TIP3   OH246458   5.933   2.948   2.721  0.3392 -0.0325  0.2556
 8348TIP3    H146459   6.001   2.931   2.656 -0.9655  0.1538 -1.2177
 8348TIP3    H246460   5.976   3.004   2.786  1.6708 -0.1657 -0.4701
 8349TIP3   OH246461   5.762   2.456   5.964 -0.1391  1.0020  0.0019
 8349TIP3    H146462   5.681   2.498   5.992 -0.2982  1.1775 -0.7170
 8349TIP3    H246463   5.832   2.515   5.994 -0.1877  0.2703  1.6852
 8350TIP3   OH246464   0.086   4.700  17.243  0.0501 -0.0798 -0.2278
 8350TIP3    H146465   0.128   4.757  17.306 -1.0051 -0.5119  0.9224
 8350TIP3    H246466   0.131   4.616  17.252 -0.7242 -0.4208  0.6970
 8351TIP3   OH246467   3.963   1.028   2.537  0.3591  0.2070  0.0490
 8351TIP3    H146468   4.004   0.949   2.501  0.5203 -0.0913  0.8858
 8351TIP3    H246469   4.021   1.099   2.508  0.3660 -0.0022 -0.4684
 8352TIP3   OH246470   3.593   0.090   5.130  0.0330  0.7646  0.1575
 8352TIP3    H146471   3.687   0.085   5.109  0.2814  3.0423  0.3968
 8352TIP3    H246472   3.591   0.111   5.223 -0.8408 -1.6088  0.7366
 8353TIP3   OH246473   5.408   0.579   1.067  0.1122 -0.1504 -0.0144
 8353TIP3    H146474   5.456   0.593   0.986 -0.7366  0.1435 -0.4715
 8353TIP3    H246475   5.364   0.494   1.055 -1.2378  0.5926 -0.4907
 8354TIP3   OH246476   5.495   4.751  17.117 -0.9576  0.0349 -0.4623
 8354TIP3    H146477   5.579   4.709  17.098 -1.0315  0.0858 -0.9015
 8354TIP3    H246478   5.437   4.720  17.048 -0.8873  1.2444 -1.0787
 8355TIP3   OH246479   6.043   3.497  12.360 -0.5864 -0.0524  0.2314
 8355TIP3    H146480   6.070   3.570  12.415 -0.0517  0.3911 -0.6042
 8355TIP3    H246481   5.979   3.535  12.299 -0.5453 -0.3530 -0.0035
 8356TIP3   OH246482   2.847   3.718  13.718  0.5191 -0.6133 -0.3462
 8356TIP3    H146483   2.870   3.808  13.742  0.9154 -0.4851 -1.1584
 8356TIP3    H246484   2.910   3.695  13.649  0.4165 -1.5110 -0.1511
 8357TIP3   OH246485   5.029   6.654   5.881  0.0715 -0.5259 -0.6978
 8357TIP3    H146486   4.999   6.725   5.938 -0.3029 -1.5054  0.3486
 8357TIP3    H246487   5.120   6.677   5.861  0.4068 -0.4400  0.7745
 8358TIP3   OH246488   0.903   0.655  15.888  0.0968 -0.0376 -0.6931
 8358TIP3    H146489   0.872   0.745  15.890  3.1638  1.1543 -1.8754
 8358TIP3    H246490   0.876   0.622  15.802 -1.3956 -0.4533 -0.0969
 8359TIP3   OH246491   3.082   4.285   0.397 -0.2710  0.0776  0.0607
 8359TIP3    H146492   3.091   4.190   0.404  1.1290 -0.0107 -1.9804
 8359TIP3    H246493   3.170   4.316   0.374 -1.0544  1.6564 -1.0069
 8360TIP3   OH246494   4.636   5.382  16.100  0.6722  0.2261  0.2663
 8360TIP3    H146495   4.666   5.322  16.032 -2.3064  0.2142 -1.2065
 8360TIP3    H246496   4.609   5.461  16.052 -1.4987  0.2194  1.3375
 8361TIP3   OH246497   0.882   2.756   3.755  0.6407  0.0015  0.1450
 8361TIP3    H146498   0.838   2.840   3.741 -0.5451 -0.8978 -2.1327
 8361TIP3    H246499   0.975   2.778   3.757  0.4060  1.3337 -1.2368
 8362TIP3   OH246500   4.976   0.045  16.618  0.1684 -0.1795  0.0255
 8362TIP3    H146501   5.020   0.130  16.609  0.1482  0.0359  1.5693
 8362TIP3    H246502   4.894   0.065  16.664 -0.6577 -0.8298 -1.1335
 8363TIP3   OH246503   0.482   2.549   4.747 -0.7777  0.3434  0.0401
 8363TIP3    H146504   0.566   2.505   4.738 -1.5267 -1.6538  1.8504
 8363TIP3    H246505   0.447   2.552   4.658  0.0201 -1.3525 -0.3779
 8364TIP3   OH246506   3.858   4.537  11.181 -0.0131  0.6217 -0.2273
 8364TIP3    H146507   3.895   4.613  11.226 -2.4584  0.7750  1.7845
 8364TIP3    H246508   3.766   4.561  11.165 -0.7241 -1.6887 -0.0260
 8365TIP3   OH246509   5.605   1.412  15.032 -0.0236 -0.2393 -0.3793
 8365TIP3    H146510   5.514   1.440  15.023 -0.7843 -1.9782  1.2911
 8365TIP3    H246511   5.652   1.492  15.057 -1.2351  0.4971 -0.3719
 8366TIP3   OH246512   0.831   1.538   5.749  0.1213  0.2843 -0.8600
 8366TIP3    H146513   0.794   1.587   5.675 -3.6858  1.8184  1.7891
 8366TIP3    H246514   0.883   1.602   5.796  0.7972 -0.1317 -1.0250
 8367TIP3   OH246515   2.775   1.546   3.100  0.0296  0.1878  0.2151
 8367TIP3    H146516   2.718   1.581   3.167  1.2912  1.3155  0.7454
 8367TIP3    H246517   2.816   1.469   3.141  0.3958  0.5587  0.5486
 8368TIP3   OH246518   4.577   3.412  13.448  0.5618 -0.1379  0.2246
 8368TIP3    H146519   4.523   3.481  13.488 -1.3095 -1.0098 -0.6613
 8368TIP3    H246520   4.662   3.453  13.434  0.4841  1.0109  2.5908
 8369TIP3   OH246521   1.785   1.967  16.541  0.2316  0.4480  0.2467
 8369TIP3    H146522   1.714   2.011  16.588 -1.4466 -1.7410 -0.0725
 8369TIP3    H246523   1.837   1.925  16.609  0.9665  1.6342  0.4455
 8370TIP3   OH246524   3.068   0.448  16.187  0.1102 -0.2839 -0.1873
 8370TIP3    H146525   3.154   0.417  16.161  1.8851  3.3105  0.7363
 8370TIP3    H246526   3.018   0.452  16.105  1.5722 -0.3203 -1.1137
 8371TIP3   OH246527   5.436   1.812   4.987  0.2298 -0.1851 -0.6774
 8371TIP3    H146528   5.479   1.787   4.906 -1.0926  0.2756 -1.5545
 8371TIP3    H246529   5.343   1.804   4.968 -0.1071 -0.2573  0.8641
 8372TIP3   OH246530   0.873   4.616   4.062  0.3145 -0.0059 -0.1248
 8372TIP3    H146531   0.908   4.565   3.988  0.3065 -0.1910 -0.0012
 8372TIP3    H246532   0.944   4.616   4.126  0.2204 -0.0715 -0.0222
 8373TIP3   OH246533   3.330   0.426  16.135  0.3151  0.3313 -0.4048
 8373TIP3    H146534   3.360   0.409  16.224 -0.4253 -0.2501 -0.2572
 8373TIP3    H246535   3.341   0.520  16.123 -2.3023  0.9601  1.3390
 8374TIP3   OH246536   5.625   1.635   0.622  0.1653  0.3375 -0.6217
 8374TIP3    H146537   5.586   1.707   0.672  0.2167  0.2477 -0.4529
 8374TIP3    H246538   5.657   1.575   0.688  2.5045  1.4107 -0.6890
 8375TIP3   OH246539   2.703   3.754   1.353 -0.0118 -0.5242  0.3152
 8375TIP3    H146540   2.738   3.692   1.418 -2.1319 -0.2452  1.8100
 8375TIP3    H246541   2.728   3.840   1.386 -1.6722 -0.3439  1.1894
 8376TIP3   OH246542   4.268   5.878  11.259  0.2147  0.3061 -0.0814
 8376TIP3    H146543   4.284   5.816  11.187  0.5002 -0.3380  0.5182
 8376TIP3    H246544   4.307   5.960  11.229  0.2607  0.0660 -0.6964
 8377TIP3   OH246545   2.895   1.976   0.167  0.5000  0.5201 -0.6955
 8377TIP3    H146546   2.929   1.887   0.157  1.1362  0.6797  0.0053
 8377TIP3    H246547   2.864   1.980   0.258  1.0376  1.2039 -0.5359
 8378TIP3   OH246548   3.605   0.968  15.750  0.2873 -0.1642 -0.6880
 8378TIP3    H146549   3.668   1.007  15.811 -1.5920  0.8436  0.7391
 8378TIP3    H246550   3.577   0.887  15.794 -1.1215  0.5970 -0.1054
 8379TIP3   OH246551   0.429   5.551   0.692 -0.0271  0.1382 -0.9823
 8379TIP3    H146552   0.485   5.583   0.621  0.6721  0.4072 -0.3361
 8379TIP3    H246553   0.461   5.597   0.770  0.4475 -1.4998 -0.1571
 8380TIP3   OH246554   5.878   6.178  11.761  0.3061 -0.4160 -0.4174
 8380TIP3    H146555   5.799   6.124  11.753  0.4331 -0.6463 -0.1255
 8380TIP3    H246556   5.848   6.257  11.806  0.4316 -0.9123  0.5419
 8381TIP3   OH246557   1.332   2.954  14.213 -0.4886  0.4992  0.5803
 8381TIP3    H146558   1.244   2.944  14.176  0.6732  0.1210 -2.4501
 8381TIP3    H246559   1.365   3.035  14.174  1.1776 -0.4063  0.0010
 8382TIP3   OH246560   6.644   1.039  13.112 -0.0219  0.2347 -0.4954
 8382TIP3    H146561   6.604   0.962  13.070  1.9460 -1.5475  0.6691
 8382TIP3    H246562   6.726   1.051  13.065  1.0738 -0.2834  1.1753
 8383TIP3   OH246563   6.525   5.644   6.205  0.2844 -0.1015  0.4631
 8383TIP3    H146564   6.447   5.594   6.229  0.1991 -0.5740 -0.7226
 8383TIP3    H246565   6.597   5.582   6.214  0.6012  0.4468  1.9494
 8384TIP3   OH246566   0.754   6.051   5.959 -0.0762 -0.0951 -0.0899
 8384TIP3    H146567   0.748   5.961   5.991 -0.6511  0.2330  0.7944
 8384TIP3    H246568   0.819   6.092   6.016 -0.1455  0.1625 -0.1970
 8385TIP3   OH246569   5.885   1.911  13.305  0.0744 -0.2991 -0.0956
 8385TIP3    H146570   5.915   1.858  13.231 -1.7348 -0.8888 -0.4586
 8385TIP3    H246571   5.959   1.968  13.326  0.8842 -0.6292 -1.8905
 8386TIP3   OH246572   2.073   1.597   1.187 -0.2333  0.5885 -0.6204
 8386TIP3    H146573   2.060   1.674   1.242  0.2138  0.8045 -0.8098
 8386TIP3    H246574   2.164   1.571   1.203 -0.7898 -0.7640  0.5263
 8387TIP3   OH246575   6.259   4.644   3.829  0.2720 -0.3678  0.2701
 8387TIP3    H146576   6.188   4.699   3.798 -0.2546 -0.4052  1.3689
 8387TIP3    H246577   6.308   4.699   3.890  0.9052 -0.5061 -0.0944
 8388TIP3   OH246578   0.670   0.797  12.532 -0.6438 -0.6589  0.4902
 8388TIP3    H146579   0.577   0.777  12.539 -0.9876  0.0186 -1.5894
 8388TIP3    H246580   0.707   0.720  12.489 -1.1058  0.8281 -2.8818
 8389TIP3   OH246581   3.781   6.505  15.065  0.0430  0.0063  0.3349
 8389TIP3    H146582   3.741   6.419  15.047  1.8783 -1.3051  2.1075
 8389TIP3    H246583   3.775   6.515  15.160  3.3017 -0.0443  0.6601
 8390TIP3   OH246584   5.815   2.400  13.694 -0.1353 -0.6540 -0.1173
 8390TIP3    H146585   5.850   2.487  13.715 -0.1049 -0.7743  0.3427
 8390TIP3    H246586   5.726   2.417  13.662  0.1262 -0.3960 -0.7192
 8391TIP3   OH246587   3.051   6.247  15.809 -0.5554 -0.1695 -0.1698
 8391TIP3    H146588   3.021   6.182  15.745  0.8517 -0.3546 -0.6807
 8391TIP3    H246589   3.063   6.327  15.758  3.0228 -0.9335 -0.8167
 8392TIP3   OH246590   3.169   5.873  12.101 -0.1211 -0.3425 -0.1891
 8392TIP3    H146591   3.137   5.790  12.136 -1.9763  0.9956  1.4401
 8392TIP3    H246592   3.174   5.858  12.006 -0.3321 -2.3035  0.0577
 8393TIP3   OH246593   2.020   6.661   1.761  0.1460 -0.5033  0.4280
 8393TIP3    H146594   2.039   6.623   1.675  0.2195 -0.1233  0.2759
 8393TIP3    H246595   1.976   6.743   1.742 -2.4601 -1.7269  0.7570
 8394TIP3   OH246596   4.597   3.251   0.183  0.0461 -0.1268 -0.1973
 8394TIP3    H146597   4.562   3.337   0.158  1.2319  0.2632 -0.5448
 8394TIP3    H246598   4.682   3.269   0.221 -0.1792 -1.0668  0.7977
 8395TIP3   OH246599   1.130   4.282  15.929  0.3621  0.2665  0.3528
 8395TIP3    H146600   1.216   4.291  15.970  0.1323  2.1026  0.5108
 8395TIP3    H246601   1.149   4.258  15.839  1.1255  1.6410  0.1183
 8396TIP3   OH246602   6.427   1.300  17.053  0.2750 -0.1807  0.0423
 8396TIP3    H146603   6.488   1.338  17.116  0.9187 -1.5923  0.3199
 8396TIP3    H246604   6.465   1.214  17.031 -1.8376 -1.3291  0.5925
 8397TIP3   OH246605   5.147   2.691   1.084 -0.2579 -0.3611 -0.6493
 8397TIP3    H146606   5.209   2.732   1.144 -0.4172  0.0177 -0.7398
 8397TIP3    H246607   5.196   2.679   1.003 -0.4374  0.3893 -0.8790
 8398TIP3   OH246608   3.113   0.749  13.842  0.3309 -0.1273 -0.5115
 8398TIP3    H146609   3.023   0.747  13.874 -0.3803  0.7596 -2.3078
 8398TIP3    H246610   3.131   0.659  13.816  0.6904 -0.7243  1.5822
 8399TIP3   OH246611   3.756   2.587   3.789 -0.3042  0.3392 -0.0944
 8399TIP3    H146612   3.847   2.577   3.761 -0.2917 -0.4823  0.2284
 8399TIP3    H246613   3.733   2.676   3.763  0.5163  0.4713 -0.3934
 8400TIP3   OH246614   1.878   5.278   1.623 -0.1483 -0.2439  0.1080
 8400TIP3    H146615   1.879   5.362   1.578 -0.2583  1.7169  3.4368
 8400TIP3    H246616   1.800   5.233   1.588  1.2098 -0.1620 -3.4583
 8401TIP3   OH246617   1.118   2.941   4.180  0.4792  0.0695 -0.0913
 8401TIP3    H146618   1.139   2.859   4.136  0.1100 -0.1251  0.0858
 8401TIP3    H246619   1.095   2.915   4.269 -0.2073  0.3055 -0.1980
 8402TIP3   OH246620   1.505   5.484   1.803  0.1220 -0.3426 -0.0357
 8402TIP3    H146621   1.420   5.460   1.839  0.3721 -1.2428 -0.0287
 8402TIP3    H246622   1.547   5.400   1.782  0.3489  0.1176 -1.5557
 8403TIP3   OH246623   1.202   4.775  13.686  0.6832  0.2300 -0.3048
 8403TIP3    H146624   1.283   4.745  13.643  0.2294 -1.1366 -0.2508
 8403TIP3    H246625   1.205   4.736  13.773 -0.4511 -0.5730 -0.6110
 8404TIP3   OH246626   4.505   3.181  15.010  0.0088  0.3497  0.3953
 8404TIP3    H146627   4.466   3.164  14.925 -2.3005  1.2637  1.1739
 8404TIP3    H246628   4.481   3.272  15.029 -0.3834 -0.1207  2.3901
 8405TIP3   OH246629   5.195   6.420   2.239  0.5310  0.0175  0.6411
 8405TIP3    H146630   5.197   6.342   2.295  1.3251 -1.3375 -1.2048
 8405TIP3    H246631   5.110   6.416   2.195  1.5324 -1.2581 -1.3290
 8406TIP3   OH246632   0.650   3.180   1.659 -0.4229 -0.2492  0.2584
 8406TIP3    H146633   0.704   3.102   1.666 -2.0416 -1.7104 -1.9207
 8406TIP3    H246634   0.692   3.232   1.591 -1.4125 -1.1925 -1.1430
 8407TIP3   OH246635   1.770   0.236   1.503  0.1837 -0.7534  0.9643
 8407TIP3    H146636   1.735   0.156   1.463  0.9182 -0.2866 -0.7184
 8407TIP3    H246637   1.692   0.288   1.524 -0.2415 -0.9523 -0.0485
 8408TIP3   OH246638   3.617   2.502  14.359  0.1132 -0.3999  0.2490
 8408TIP3    H146639   3.698   2.551  14.346  0.2370 -0.2421  1.5309
 8408TIP3    H246640   3.568   2.553  14.423 -0.7308 -0.8262 -0.0445
 8409TIP3   OH246641   0.085   0.433  16.311 -0.6027 -0.0015 -0.1596
 8409TIP3    H146642   0.178   0.457  16.310 -0.7123  0.8838  2.2371
 8409TIP3    H246643   0.041   0.511  16.345 -1.9568 -1.1181  0.7695
 8410TIP3   OH246644   3.508   3.355  14.825  0.0681  0.0161  0.0131
 8410TIP3    H146645   3.499   3.450  14.833 -2.2722 -0.0384 -1.1976
 8410TIP3    H246646   3.595   3.342  14.786  0.3861  1.6454  0.1246
 8411TIP3   OH246647   0.790   4.167   5.492 -0.7082 -0.0222  0.3375
 8411TIP3    H146648   0.849   4.143   5.420 -0.2306 -0.9760  1.0382
 8411TIP3    H246649   0.712   4.200   5.448 -0.1832  0.0024 -0.6157
 8412TIP3   OH246650   2.374   5.606   0.918  0.0959  0.0109 -0.0298
 8412TIP3    H146651   2.325   5.637   0.841 -0.4752 -1.8928 -0.4936
 8412TIP3    H246652   2.449   5.559   0.881  1.2916  1.3024  0.6600
 8413TIP3   OH246653   2.619   1.391   5.841  0.1581  0.4221  0.0180
 8413TIP3    H146654   2.555   1.461   5.828 -0.4489 -0.0170  0.5608
 8413TIP3    H246655   2.630   1.385   5.936 -0.0284 -0.4172 -0.0019
 8414TIP3   OH246656   6.062   2.262   3.026 -0.0344 -0.2371 -0.3482
 8414TIP3    H146657   6.107   2.276   3.109 -0.1582 -0.6018 -0.2176
 8414TIP3    H246658   6.131   2.234   2.965  0.6601  2.9447 -1.2186
 8415TIP3   OH246659   3.922   2.465  14.043  0.0670  0.1828  0.6108
 8415TIP3    H146660   3.950   2.380  14.074  1.0833  0.2921  0.0242
 8415TIP3    H246661   3.966   2.528  14.100  0.1055  0.3392  0.4099
 8416TIP3   OH246662   2.855   1.846  10.514  0.2051  0.8096  0.8109
 8416TIP3    H146663   2.889   1.936  10.517  1.8304  0.2177  2.7955
 8416TIP3    H246664   2.762   1.855  10.536  0.4797  1.9871  1.6227
 8417TIP3   OH246665   4.911   2.249  15.959  0.1141 -0.1041 -0.1217
 8417TIP3    H146666   4.886   2.312  16.027 -1.8371  0.0596 -0.9405
 8417TIP3    H246667   4.959   2.301  15.895  1.5402 -0.1659  0.8534
 8418TIP3   OH246668   6.089   1.143  11.962 -0.0905  0.0916 -0.2712
 8418TIP3    H146669   6.069   1.181  11.877  0.6033  0.7040 -0.1796
 8418TIP3    H246670   6.054   1.054  11.959  0.3521 -0.0519 -1.3725
 8419TIP3   OH246671   1.396   3.142  14.043 -0.0505 -0.1097 -0.3047
 8419TIP3    H146672   1.471   3.194  14.073 -1.3127  1.3560  0.4853
 8419TIP3    H246673   1.319   3.195  14.068 -1.4342 -2.4583  0.7125
 8420TIP3   OH246674   6.466   2.611  16.808 -0.5285  0.2702 -0.5089
 8420TIP3    H146675   6.518   2.683  16.842  1.4347 -1.6310  0.7578
 8420TIP3    H246676   6.519   2.575  16.736 -0.3977 -1.2119  0.2917
 8421TIP3   OH246677   3.155   0.484   1.044 -0.1928 -0.1832  0.2808
 8421TIP3    H146678   3.221   0.549   1.021 -2.4246  1.5908 -1.5842
 8421TIP3    H246679   3.149   0.428   0.967 -0.7805 -0.4028  0.4827
 8422TIP3   OH246680   4.593   3.429   3.588 -0.1807  0.1656  0.1726
 8422TIP3    H146681   4.575   3.345   3.547 -0.7936  0.7716 -0.8403
 8422TIP3    H246682   4.515   3.448   3.640  0.1240 -0.0672  0.7263
 8423TIP3   OH246683   3.284   0.373   5.755  0.5068  0.5979  0.5995
 8423TIP3    H146684   3.361   0.418   5.720  1.5005 -1.7611 -0.5024
 8423TIP3    H246685   3.210   0.410   5.707  1.3603  0.5552 -0.8135
 8424TIP3   OH246686   2.325   6.333   0.888  0.4568  0.3130  0.3970
 8424TIP3    H146687   2.232   6.343   0.910 -0.0650 -2.7378  0.0741
 8424TIP3    H246688   2.371   6.366   0.965 -0.9610  0.2952  1.2945
 8425TIP3   OH246689   4.326   3.169   4.780  0.1309 -0.4779  0.2268
 8425TIP3    H146690   4.301   3.192   4.869 -1.2900 -0.1850 -0.2160
 8425TIP3    H246691   4.265   3.218   4.725  0.5841 -1.1354 -0.8865
 8426TIP3   OH246692   2.979   2.854   1.862 -0.6779  0.6437 -0.2323
 8426TIP3    H146693   2.897   2.807   1.844  0.4809 -1.5449 -0.1254
 8426TIP3    H246694   3.003   2.828   1.951  1.6816 -1.3541 -1.3233
 8427TIP3   OH246695   1.786   5.770   3.452  0.3897 -0.1980 -0.3178
 8427TIP3    H146696   1.840   5.839   3.491 -1.7617  0.5315  1.6035
 8427TIP3    H246697   1.807   5.692   3.503  0.2889 -0.1331 -0.1778
 8428TIP3   OH246698   4.934   2.312  13.367  0.1302  0.1240 -0.4710
 8428TIP3    H146699   4.856   2.343  13.413  0.1785 -2.0144  1.2560
 8428TIP3    H246700   5.002   2.309  13.435  0.5543 -1.9485 -0.9054
 8429TIP3   OH246701   2.271   2.201   0.137  0.1434  0.3608 -0.3411
 8429TIP3    H146702   2.233   2.168   0.056 -0.8108  0.7181 -0.0567
 8429TIP3    H246703   2.359   2.229   0.113 -0.7232  2.1102 -1.6711
 8430TIP3   OH246704   4.526   0.012   4.769 -0.2402 -0.2905  0.0727
 8430TIP3    H146705   4.470  -0.052   4.726  2.7741 -2.5473 -0.7836
 8430TIP3    H246706   4.615  -0.015   4.747  1.3763  1.0317  4.1592
 8431TIP3   OH246707   4.313   5.304  14.512  0.1698  0.2270 -0.3328
 8431TIP3    H146708   4.322   5.217  14.552 -1.4660  0.9282  1.7069
 8431TIP3    H246709   4.278   5.287  14.425  1.4798 -1.2303 -0.6182
 8432TIP3   OH246710   2.160   5.975  11.436 -0.0683 -0.5799  0.2635
 8432TIP3    H146711   2.086   5.974  11.375  1.0497 -1.6111 -1.1743
 8432TIP3    H246712   2.141   6.045  11.497 -1.0427  0.8436 -1.5797
 8433TIP3   OH246713   3.371   3.223  10.591 -0.0294  0.1443  0.0391
 8433TIP3    H146714   3.281   3.254  10.602 -0.1002 -0.8032  2.9436
 8433TIP3    H246715   3.422   3.303  10.577 -1.1919  0.7523 -0.9244
 8434TIP3   OH246716   3.525   1.749  13.364  0.0048  0.3683  0.3774
 8434TIP3    H146717   3.451   1.696  13.393  0.9095 -0.7247  0.7797
 8434TIP3    H246718   3.486   1.818  13.309 -1.1870 -0.8605 -0.3716
 8435TIP3   OH246719   1.734   2.616  17.172  0.0771  0.1366  0.3242
 8435TIP3    H146720   1.770   2.555  17.236  0.4584 -0.1743 -0.1772
 8435TIP3    H246721   1.719   2.563  17.094 -0.9468  0.3863  0.3367
 8436TIP3   OH246722   0.436   4.966  14.635 -0.1367 -0.8005  0.3521
 8436TIP3    H146723   0.416   5.059  14.648 -1.5196 -0.5657 -2.7086
 8436TIP3    H246724   0.524   4.964  14.598 -1.3112 -0.2976 -2.7672
 8437TIP3   OH246725   3.331   2.591   1.910  0.5749  0.1341 -0.4443
 8437TIP3    H146726   3.354   2.572   1.819 -0.4965  1.1930 -0.9644
 8437TIP3    H246727   3.373   2.521   1.961 -0.4383 -1.6490 -1.9259
 8438TIP3   OH246728   5.061   0.828  12.220 -0.5813 -0.1990 -0.3282
 8438TIP3    H146729   5.072   0.765  12.149 -0.1221 -0.2731 -0.1903
 8438TIP3    H246730   5.036   0.909  12.176  0.2062 -0.1047 -0.6231
 8439TIP3   OH246731   3.269   6.665  11.018 -0.9870 -0.3264  0.4541
 8439TIP3    H146732   3.328   6.737  11.041 -0.8176  0.0747 -1.1585
 8439TIP3    H246733   3.314   6.586  11.051  0.2063  0.0243 -0.2765
 8440TIP3   OH246734   3.640   5.837   0.437  0.0219 -0.3420  0.7308
 8440TIP3    H146735   3.713   5.780   0.460  0.0341 -0.2158  1.0095
 8440TIP3    H246736   3.581   5.781   0.385  2.0773  0.5128 -2.8332
 8441TIP3   OH246737   0.781   3.045  13.993 -0.2967 -0.0993  0.2343
 8441TIP3    H146738   0.728   3.102  13.936  1.2918 -1.7454 -3.1537
 8441TIP3    H246739   0.871   3.075  13.979  0.2477 -1.3874  0.8707
 8442TIP3   OH246740   3.558   6.024  16.760 -0.1856 -0.2170 -0.1370
 8442TIP3    H146741   3.576   6.022  16.854 -0.2047 -0.8280 -0.1421
 8442TIP3    H246742   3.634   5.982  16.720 -1.2530 -2.1901 -0.2058
 8443TIP3   OH246743   2.032   3.606   3.914 -0.5251  0.8806 -0.2988
 8443TIP3    H146744   1.960   3.669   3.919 -0.7897  0.7034 -1.6241
 8443TIP3    H246745   2.098   3.641   3.975 -2.2872  0.2387  2.1279
 8444TIP3   OH246746   5.882   0.839   5.971 -0.1950  0.1537  0.1332
 8444TIP3    H146747   5.929   0.802   5.896  1.6366  0.0380  1.2771
 8444TIP3    H246748   5.931   0.809   6.048 -2.1501  0.0681  1.4175
 8445TIP3   OH246749   0.357   0.696   2.462  0.2007 -0.1717  0.0569
 8445TIP3    H146750   0.381   0.786   2.441 -2.2290  0.8495  1.2233
 8445TIP3    H246751   0.406   0.676   2.542 -2.2778  1.7821  2.2756
 8446TIP3   OH246752   5.616   3.391  14.405  0.8140 -0.4005  0.0509
 8446TIP3    H146753   5.571   3.476  14.406  0.5585 -0.5378  0.3781
 8446TIP3    H246754   5.619   3.364  14.497 -2.7600 -2.6546 -0.2812
 8447TIP3   OH246755   4.226   3.108   1.846 -0.0429 -0.0204 -0.4569
 8447TIP3    H146756   4.232   3.153   1.761  0.0725 -1.9443 -1.5435
 8447TIP3    H246757   4.291   3.037   1.839 -0.0636 -0.2298  1.2411
 8448TIP3   OH246758   3.954   2.977   3.056  0.7338 -0.2102 -0.6507
 8448TIP3    H146759   3.948   3.002   2.964 -2.0298  0.5228 -0.3535
 8448TIP3    H246760   3.938   3.058   3.104  0.4499 -0.8856  0.4456
 8449TIP3   OH246761   3.264   4.961  16.011 -0.6888  0.2532 -0.1762
 8449TIP3    H146762   3.206   4.949  16.087  0.7133  0.6137  0.9992
 8449TIP3    H246763   3.290   5.053  16.016 -0.0257  0.0934 -0.6930
 8450TIP3   OH246764   5.849   5.266  13.429  0.0841 -0.3350  0.1509
 8450TIP3    H146765   5.888   5.353  13.425  0.0658 -0.2542  1.4764
 8450TIP3    H246766   5.868   5.228  13.343  0.1070  0.9572 -0.4450
 8451TIP3   OH246767   2.559   3.861  13.397  0.4926  0.3550 -0.3300
 8451TIP3    H146768   2.508   3.797  13.446 -1.2594  2.0132  0.1476
 8451TIP3    H246769   2.587   3.814  13.318 -0.7879 -0.9727 -0.0365
 8452TIP3   OH246770   5.153   6.136  14.969  0.4591 -0.3463  0.1227
 8452TIP3    H146771   5.085   6.086  15.014  0.2970 -3.6937 -3.3425
 8452TIP3    H246772   5.235   6.101  15.003  0.3340 -2.1996 -1.3134
 8453TIP3   OH246773   2.919   0.108  13.679 -1.0082  0.0429 -0.3117
 8453TIP3    H146774   2.938   0.031  13.733 -3.0066 -1.0164 -1.0271
 8453TIP3    H246775   2.986   0.107  13.611 -0.9873 -1.0538 -0.2865
 8454TIP3   OH246776   3.058   6.143  16.651  0.0583 -0.3527 -0.1768
 8454TIP3    H146777   2.970   6.125  16.683  0.3558 -0.0714  0.8424
 8454TIP3    H246778   3.045   6.201  16.576 -0.6150  0.0237  0.2210
 8455TIP3   OH246779   1.343   6.182   4.072 -0.2826  0.4487 -0.2309
 8455TIP3    H146780   1.331   6.267   4.115 -0.1930  0.9497 -1.1712
 8455TIP3    H246781   1.425   6.191   4.024  0.1775 -0.4764  0.3519
 8456TIP3   OH246782   3.660   4.798   0.015  0.1529  0.2065 -0.0376
 8456TIP3    H146783   3.636   4.889  -0.004  2.0073  0.3431 -2.1491
 8456TIP3    H246784   3.720   4.804   0.090  1.1557  0.8883 -0.8613
 8457TIP3   OH246785   3.059   6.552   5.934  0.0499 -0.0996 -0.3595
 8457TIP3    H146786   3.050   6.648   5.931  1.8878  0.1999  1.5963
 8457TIP3    H246787   2.971   6.520   5.952 -0.9186  1.0563 -2.6101
 8458TIP3   OH246788   2.811   1.373   0.921  0.0060  0.4100  0.4619
 8458TIP3    H146789   2.759   1.451   0.900  1.9610  1.4924 -0.5735
 8458TIP3    H246790   2.875   1.403   0.986  0.9075 -0.2695 -0.0941
 8459TIP3   OH246791   1.046   0.262   2.184  0.4933 -0.0806 -0.2734
 8459TIP3    H146792   1.069   0.270   2.276  1.5561  0.6112 -0.5764
 8459TIP3    H246793   1.032   0.169   2.170  1.9304 -0.3997  0.2417
 8460TIP3   OH246794   1.940   2.470  13.329  0.3378 -0.8525 -0.7516
 8460TIP3    H146795   1.918   2.563  13.326  0.9649 -0.6992 -3.3841
 8460TIP3    H246796   1.876   2.432  13.389 -1.2513  0.9492 -1.2062
 8461TIP3   OH246797   5.474   1.969  11.638 -0.0748  0.2501  0.0071
 8461TIP3    H146798   5.429   1.886  11.626 -1.0851  0.6482  0.7855
 8461TIP3    H246799   5.515   1.988  11.554 -0.5901 -0.5946 -0.4386
 8462TIP3   OH246800   0.125   6.663   1.740  0.1589 -0.0654 -0.1301
 8462TIP3    H146801   0.214   6.639   1.713  0.8932  1.6003  0.6625
 8462TIP3    H246802   0.138   6.715   1.819 -1.5317  0.2278 -0.0216
 8463TIP3   OH246803   5.499   0.418   5.334  0.2297  0.4146  0.3123
 8463TIP3    H146804   5.570   0.451   5.279 -0.3584  0.7787 -0.2430
 8463TIP3    H246805   5.450   0.359   5.277  0.6475 -0.6054  0.9861
 8464TIP3   OH246806   6.092   1.547   3.640  0.0591 -0.4195 -0.0703
 8464TIP3    H146807   6.008   1.503   3.656 -0.0990 -0.2420 -0.4153
 8464TIP3    H246808   6.141   1.533   3.721 -0.6754  0.3180  0.5287
 8465TIP3   OH246809   1.372   4.927  17.225  0.6330  0.3280 -0.0861
 8465TIP3    H146810   1.359   4.985  17.300  0.2869  3.2743 -2.2474
 8465TIP3    H246811   1.412   4.849  17.262  4.0456  3.0816  2.7180
 8466TIP3   OH246812   0.942   4.217  13.074  0.2194  0.1319  0.4369
 8466TIP3    H146813   0.897   4.223  12.990 -0.0462 -0.9826  0.4835
 8466TIP3    H246814   0.886   4.266  13.135  0.0389  0.3355  0.1083
 8467TIP3   OH246815   1.880   5.665   3.214 -0.1445  0.3434  0.9819
 8467TIP3    H146816   1.836   5.675   3.299  0.4476  2.7017  1.0682
 8467TIP3    H246817   1.960   5.716   3.223 -0.9007  2.1565 -1.5716
 8468TIP3   OH246818   2.454   3.820  12.639 -0.2545 -0.2492 -0.0376
 8468TIP3    H146819   2.377   3.776  12.602 -0.6819  0.3098  0.1712
 8468TIP3    H246820   2.439   3.913  12.621 -0.7281  0.1137  1.9500
 8469TIP3   OH246821   0.790   2.651  15.246 -0.0728 -0.6008 -0.1317
 8469TIP3    H146822   0.795   2.666  15.341  1.3784 -0.7621 -0.1654
 8469TIP3    H246823   0.702   2.682  15.222 -0.3850 -0.3525  1.2225
 8470TIP3   OH246824   3.463   0.013  14.252 -0.0793  0.0703 -0.0573
 8470TIP3    H146825   3.427  -0.063  14.207 -1.4707  0.3856  0.4779
 8470TIP3    H246826   3.430   0.088  14.201  1.0029  0.3432 -0.3852
 8471TIP3   OH246827   4.639   6.059  12.206  0.2241  0.0193  0.3883
 8471TIP3    H146828   4.658   6.152  12.205  0.5534  0.0266 -2.4918
 8471TIP3    H246829   4.702   6.022  12.268 -0.1310  1.7040  1.8281
 8472TIP3   OH246830   2.845   4.478   2.414 -0.1898 -0.2670 -0.1033
 8472TIP3    H146831   2.786   4.507   2.344 -0.5685 -1.6800 -0.3963
 8472TIP3    H246832   2.789   4.473   2.491  0.6387  3.3314  0.9183
 8473TIP3   OH246833   1.156   4.244  13.653 -0.0512  0.6341  0.2092
 8473TIP3    H146834   1.179   4.201  13.571  0.0535  1.6336 -0.3076
 8473TIP3    H246835   1.078   4.198  13.684 -0.7913  0.9866 -1.0517
 8474TIP3   OH246836   1.471   3.867   2.736  0.1350  0.1777 -0.7531
 8474TIP3    H146837   1.375   3.870   2.737  0.1467  2.0571  0.3263
 8474TIP3    H246838   1.495   3.917   2.658  0.2234  0.4058 -0.5822
 8475TIP3   OH246839   0.804   4.245  13.527  0.5383 -0.3256 -0.1448
 8475TIP3    H146840   0.845   4.201  13.601 -1.5592 -0.8305  0.7942
 8475TIP3    H246841   0.723   4.281  13.563 -0.7750 -0.9858 -2.2789
 8476TIP3   OH246842   6.447   6.189   0.795 -0.2756 -0.5063  0.3510
 8476TIP3    H146843   6.405   6.246   0.859 -1.4168 -0.2335 -0.6075
 8476TIP3    H246844   6.528   6.234   0.771  1.2103 -1.5622  3.0313
 8477TIP3   OH246845   1.195   5.936  15.722  0.6579 -0.7914  0.1460
 8477TIP3    H146846   1.264   5.873  15.744  0.3423 -1.8841 -1.6975
 8477TIP3    H246847   1.120   5.881  15.698  0.0193  0.3159 -0.4699
 8478TIP3   OH246848   6.453   4.428   1.030 -0.0314 -1.0892 -0.2912
 8478TIP3    H146849   6.497   4.357   1.077 -0.0855 -0.0952  1.3094
 8478TIP3    H246850   6.520   4.465   0.973  1.1335  0.0272  1.6819
 8479TIP3   OH246851   5.335   3.447   3.000 -0.4424 -1.0655 -0.3085
 8479TIP3    H146852   5.309   3.489   3.083  0.2503 -2.0749  0.4431
 8479TIP3    H246853   5.364   3.520   2.945 -0.1474 -0.4589  0.6276
 8480TIP3   OH246854   6.712   2.885  13.447 -0.0794 -0.3442 -0.2233
 8480TIP3    H146855   6.617   2.891  13.433 -0.0874  0.0381 -0.0335
 8480TIP3    H246856   6.748   2.958  13.396  0.0911 -0.3565 -0.1216
 8481TIP3   OH246857   6.521   6.509   3.024  0.3505  0.3056  0.0404
 8481TIP3    H146858   6.555   6.492   2.937  1.0679 -1.0804  0.5548
 8481TIP3    H246859   6.598   6.525   3.078  0.0670 -0.5600  0.7490
 8482TIP3   OH246860   0.131   5.863   4.488 -0.6177 -0.1989 -0.1096
 8482TIP3    H146861   0.224   5.845   4.479 -0.6414 -1.0366  1.1463
 8482TIP3    H246862   0.111   5.845   4.580 -2.4210 -2.0043 -0.7872
 8483TIP3   OH246863   2.261   4.674   4.094 -0.2928  0.1851  0.3359
 8483TIP3    H146864   2.272   4.649   4.186  1.1167  1.9233  0.7134
 8483TIP3    H246865   2.222   4.762   4.099 -0.0784  0.3436 -0.7200
 8484TIP3   OH246866   5.780   1.316  15.481 -0.3310 -0.1742 -0.1403
 8484TIP3    H146867   5.793   1.301  15.387  1.6472  1.2187 -0.1807
 8484TIP3    H246868   5.707   1.378  15.486  0.9440  1.4841 -0.9888
 8485TIP3   OH246869   2.759   4.743  13.511 -0.3481 -0.1795 -0.2909
 8485TIP3    H146870   2.826   4.701  13.455  0.6299 -0.8348  1.3081
 8485TIP3    H246871   2.784   4.835  13.513  0.2922 -0.3531 -0.0228
 8486TIP3   OH246872   4.400   0.079   1.921 -0.1047 -0.5076  0.6913
 8486TIP3    H146873   4.474   0.095   1.861  0.4707  1.1053  1.7702
 8486TIP3    H246874   4.326   0.064   1.863  0.7419 -0.5426 -0.4315
 8487TIP3   OH246875   2.120   3.539   5.812  0.1619  0.3974  0.4082
 8487TIP3    H146876   2.049   3.576   5.760  1.1596 -1.1044 -2.1853
 8487TIP3    H246877   2.077   3.480   5.873 -0.8375 -1.1918 -1.7252
 8488TIP3   OH246878   4.538   6.023   4.517 -0.2290 -0.1575  0.7813
 8488TIP3    H146879   4.621   5.987   4.549  0.0168  0.6460  1.0761
 8488TIP3    H246880   4.563   6.103   4.470 -0.6942 -0.7054 -0.4503
 8489TIP3   OH246881   5.649   0.294  15.480 -0.1603  0.2347 -0.7937
 8489TIP3    H146882   5.577   0.234  15.500  1.0697 -1.0886 -0.0756
 8489TIP3    H246883   5.691   0.256  15.403  0.6457  0.1185 -0.3163
 8490TIP3   OH246884   2.195   1.814   3.945 -0.5006  0.6119  0.2347
 8490TIP3    H146885   2.274   1.854   3.982 -0.4557 -0.1306  0.9757
 8490TIP3    H246886   2.140   1.794   4.021  0.8107 -3.6101  0.3474
 8491TIP3   OH246887   2.399   3.805  12.202 -0.0775 -0.0844 -0.0468
 8491TIP3    H146888   2.464   3.870  12.174 -2.7774  2.2134 -1.5606
 8491TIP3    H246889   2.354   3.847  12.275 -0.7059 -1.0843  0.1528
 8492TIP3   OH246890   3.067   0.747   4.395 -0.5591 -0.2218  0.3940
 8492TIP3    H146891   3.045   0.690   4.321  1.0851 -1.6801  0.9525
 8492TIP3    H246892   3.057   0.836   4.361 -0.0173 -0.8509 -1.5390
 8493TIP3   OH246893   5.408   2.591  13.820 -0.7353 -0.0280 -0.8201
 8493TIP3    H146894   5.377   2.671  13.778 -0.1904 -0.6268 -2.4399
 8493TIP3    H246895   5.328   2.545  13.845 -1.0882  0.2607 -1.3941
 8494TIP3   OH246896   4.581   6.611   4.056  0.1050 -0.2634  0.5060
 8494TIP3    H146897   4.640   6.575   4.123  0.8961  2.6297  1.5450
 8494TIP3    H246898   4.605   6.704   4.051 -0.7960 -0.0906 -2.9634
 8495TIP3   OH246899   2.584   3.683  11.501  0.5759 -0.3982  0.1667
 8495TIP3    H146900   2.517   3.728  11.449  0.9907  0.7318  0.5560
 8495TIP3    H246901   2.545   3.673  11.588  1.2466  1.2186  0.6968
 8496TIP3   OH246902   0.580   5.977  16.509  0.3845 -0.3188  0.5621
 8496TIP3    H146903   0.603   5.947  16.596 -1.2878 -0.4003  1.0021
 8496TIP3    H246904   0.633   6.056  16.496 -0.3295  0.4775  2.2117
 8497TIP3   OH246905   3.694   1.003  14.761 -0.2201 -0.9547 -0.0330
 8497TIP3    H146906   3.635   0.996  14.686  0.2391  0.1287 -0.5049
 8497TIP3    H246907   3.695   1.096  14.783 -0.3797 -1.2497  1.3615
 8498TIP3   OH246908   5.316   6.609   4.291 -0.0965 -0.7113  0.3662
 8498TIP3    H146909   5.327   6.551   4.367 -0.0255  0.3185  1.1692
 8498TIP3    H246910   5.246   6.669   4.316  1.1319  0.8038  0.3965
 8499TIP3   OH246911   1.237   3.080   5.601  0.6096 -0.7190  0.2918
 8499TIP3    H146912   1.320   3.060   5.559  1.1240 -0.1451  1.0201
 8499TIP3    H246913   1.260   3.135   5.676 -0.5089  0.2961 -0.0825
 8500TIP3   OH246914   3.423   6.436  10.546  0.1794 -0.0427  0.2581
 8500TIP3    H146915   3.363   6.486  10.601  0.6116  1.2289 -0.3953
 8500TIP3    H246916   3.372   6.413  10.468  1.0396  2.8527 -1.2811
 8501TIP3   OH246917   5.755   6.462  17.162 -0.7121  0.5762 -0.2867
 8501TIP3    H146918   5.700   6.388  17.135  0.7599 -1.3617  1.6211
 8501TIP3    H246919   5.844   6.426  17.165  0.2039  2.6930 -0.1606
 8502TIP3   OH246920   3.550   2.935  15.598 -0.4608 -0.3192  0.4883
 8502TIP3    H146921   3.553   2.853  15.549  0.9883 -0.5773  0.9672
 8502TIP3    H246922   3.584   2.914  15.684  3.6979  1.4197 -0.4527
 8503TIP3   OH246923   0.899   6.772  12.733 -0.6001  0.3022 -0.0753
 8503TIP3    H146924   0.825   6.786  12.674  0.0824  2.2108 -0.5422
 8503TIP3    H246925   0.974   6.811  12.688  0.4923 -0.6243  0.8639
 8504TIP3   OH246926   4.598   4.681   0.155  0.5248 -0.4694 -0.8758
 8504TIP3    H146927   4.555   4.616   0.100 -0.3472 -0.9350  0.3083
 8504TIP3    H246928   4.535   4.754   0.159  0.1232 -0.8578  0.2897
 8505TIP3   OH246929   1.949   5.147  14.983  0.5523 -0.2761 -0.6415
 8505TIP3    H146930   1.930   5.240  14.968 -0.3200 -0.5030 -1.0128
 8505TIP3    H246931   1.983   5.116  14.899  2.6635  0.1176  0.0034
 8506TIP3   OH246932   1.676   1.513   1.172 -0.5625  0.1641 -0.6568
 8506TIP3    H146933   1.766   1.520   1.204 -1.0738  0.6022  0.7490
 8506TIP3    H246934   1.684   1.462   1.091  0.9551  0.2881 -0.6226
 8507TIP3   OH246935   0.884   1.172   5.630 -0.4792 -0.1360 -0.3461
 8507TIP3    H146936   0.953   1.108   5.613 -0.8788 -0.4064 -0.9929
 8507TIP3    H246937   0.908   1.211   5.715  0.1479 -0.6328 -0.2834
 8508TIP3   OH246938   3.862   1.586  13.724  0.0058  0.5578 -0.1091
 8508TIP3    H146939   3.791   1.524  13.740 -0.5602  0.8342 -1.4870
 8508TIP3    H246940   3.853   1.651  13.794 -0.6200  0.1835  0.1673
 8509TIP3   OH246941   5.700   2.941  16.034  0.0572 -0.5761 -0.1671
 8509TIP3    H146942   5.679   2.865  16.089  0.9873 -2.9122 -2.8416
 8509TIP3    H246943   5.790   2.962  16.057  0.8679 -2.3234 -1.5176
 8510TIP3   OH246944   0.260   1.065   2.068  0.2071  0.1919 -0.3994
 8510TIP3    H146945   0.332   1.119   2.101  0.9372 -0.6677 -0.5556
 8510TIP3    H246946   0.260   1.081   1.974  1.4107 -1.2026 -0.6681
 8511TIP3   OH246947   5.973   0.500   0.668  0.2898 -0.4866 -0.7174
 8511TIP3    H146948   6.030   0.465   0.736 -0.1270 -0.9568 -0.5976
 8511TIP3    H246949   5.919   0.565   0.713 -0.9703 -1.7933 -0.2333
 8512TIP3   OH246950   3.330   2.396  14.597  0.0597  0.6491  0.3000
 8512TIP3    H146951   3.369   2.477  14.563 -0.7555  1.1178  0.4388
 8512TIP3    H246952   3.301   2.348  14.519  0.6823  0.4122  0.2091
 8513TIP3   OH246953   0.114   6.787   4.349 -0.2103  0.5614  0.3522
 8513TIP3    H146954   0.141   6.871   4.312 -0.8490 -0.1063 -1.7189
 8513TIP3    H246955   0.019   6.791   4.353 -0.3116 -0.3689 -0.6061
 8514TIP3   OH246956   2.035   6.343   5.961 -0.4038  0.0825  0.0081
 8514TIP3    H146957   1.968   6.389   6.013 -0.3279 -0.7110  0.8397
 8514TIP3    H246958   2.116   6.355   6.011 -0.2288 -0.2514 -0.1942
 8515TIP3   OH246959   2.740   1.575  16.840 -0.0096  0.2610 -0.0987
 8515TIP3    H146960   2.664   1.611  16.795 -0.0153  1.2515  0.6605
 8515TIP3    H246961   2.763   1.641  16.905 -0.8955 -1.6469  2.3564
 8516TIP3   OH246962   4.619   4.284  13.088 -0.0897  0.1873  0.1532
 8516TIP3    H146963   4.664   4.357  13.046  0.5747 -0.4310 -0.2161
 8516TIP3    H246964   4.685   4.215  13.096 -0.7218 -0.4031  0.4397
 8517TIP3   OH246965   3.914   3.882  11.623 -0.9518 -0.2607  0.3079
 8517TIP3    H146966   3.924   3.923  11.709  0.7585 -0.6632  0.3286
 8517TIP3    H246967   3.875   3.950  11.568 -0.3111  0.6234  0.9338
 8518TIP3   OH246968   2.118   0.811   1.088  0.0103 -0.4582 -0.1443
 8518TIP3    H146969   2.122   0.906   1.076 -0.7474 -0.0396  2.3884
 8518TIP3    H246970   2.073   0.779   1.009  1.7128  1.0223 -1.8255
 8519TIP3   OH246971   6.569   0.217  13.892  0.0518  0.0754 -0.4174
 8519TIP3    H146972   6.665   0.214  13.884  0.0989  1.0010 -0.3087
 8519TIP3    H246973   6.542   0.126  13.883  1.0701 -0.4301  1.2300
 8520TIP3   OH246974   4.499   4.525  11.919 -0.0757  0.4799 -1.1026
 8520TIP3    H146975   4.505   4.486  11.832  1.7040 -0.3491 -0.6548
 8520TIP3    H246976   4.426   4.479  11.961  0.9988 -1.3498 -1.1256
 8521TIP3   OH246977   1.716   5.823  12.140 -0.5815 -0.7825  0.1055
 8521TIP3    H146978   1.672   5.791  12.061 -0.7266 -0.3921  0.0240
 8521TIP3    H246979   1.729   5.746  12.194  1.0652 -1.3660 -1.0303
 8522TIP3   OH246980   2.111   4.210   1.371  0.2145  0.8753 -0.2230
 8522TIP3    H146981   2.068   4.242   1.291 -0.4558  1.4607  0.3635
 8522TIP3    H246982   2.199   4.248   1.367  0.9756 -0.8809 -1.7748
 8523TIP3   OH246983   5.105   1.575   6.528 -0.2585  0.4166 -0.2543
 8523TIP3    H146984   5.182   1.628   6.508 -0.6232  0.4025 -1.8239
 8523TIP3    H246985   5.044   1.636   6.570 -0.1618  0.9303 -0.8406
 8524TIP3   OH246986   1.738   2.384  16.111 -0.0359  0.1250 -0.0442
 8524TIP3    H146987   1.766   2.357  16.024 -2.3490 -0.2906 -0.7306
 8524TIP3    H246988   1.766   2.313  16.168  1.2116  0.2450 -0.4813
 8525TIP3   OH246989   0.168   2.420  13.966 -0.4044 -0.0399  0.3544
 8525TIP3    H146990   0.093   2.404  14.023 -0.0284  0.5353  1.0220
 8525TIP3    H246991   0.156   2.509  13.935 -0.3638 -0.1913 -0.1070
 8526TIP3   OH246992   1.702   1.631   4.076 -0.1981 -0.3298  1.0371
 8526TIP3    H146993   1.764   1.582   4.021 -0.0742 -0.4461  1.2786
 8526TIP3    H246994   1.673   1.703   4.020 -0.9964 -1.1209  0.3979
 8527TIP3   OH246995   5.775   0.089   6.059 -0.3554  0.7697  0.2326
 8527TIP3    H146996   5.819   0.004   6.053 -2.4478 -0.3366 -0.2702
 8527TIP3    H246997   5.718   0.093   5.982 -3.8087  0.4598  2.5266
 8528TIP3   OH246998   2.320   2.938  16.339  0.9734  0.2336 -0.0912
 8528TIP3    H146999   2.365   2.949  16.423 -1.4976  0.9061  1.2683
 8528TIP3    H247000   2.298   2.845  16.336  0.4359  0.3419  0.3730
 8529TIP3   OH247001   0.346   1.306  15.846 -0.4769  0.1657  0.0805
 8529TIP3    H147002   0.309   1.390  15.819 -0.6768  0.9099  2.4451
 8529TIP3    H247003   0.280   1.268  15.904  0.3544 -0.8027  0.4339
 8530TIP3   OH247004   0.083   2.700  16.614  0.4195  0.3483 -0.7277
 8530TIP3    H147005   0.174   2.680  16.637  0.4181  3.7305  3.6110
 8530TIP3    H247006   0.089   2.775  16.555  0.5183  0.8055 -0.1510
 8531TIP3   OH247007   1.529   3.555   5.258 -0.1127  0.4508  0.3746
 8531TIP3    H147008   1.570   3.590   5.337 -0.7348  2.0933 -0.0044
 8531TIP3    H247009   1.518   3.630   5.200 -0.7610 -0.5129 -0.8142
 8532TIP3   OH247010   3.685   6.510  15.328  0.4925  0.2997 -0.2607
 8532TIP3    H147011   3.621   6.444  15.354  0.8349  0.4601  1.0990
 8532TIP3    H247012   3.638   6.593  15.335  0.6951  0.3758  0.2501
 8533TIP3   OH247013   2.511   6.338   3.515 -0.0481 -0.0618 -0.1190
 8533TIP3    H147014   2.540   6.429   3.520  1.7253 -0.4975 -1.5051
 8533TIP3    H247015   2.456   6.334   3.437 -0.4814 -0.0969  0.1850
 8534TIP3   OH247016   3.728   6.353  12.874 -0.3833 -0.1789 -0.4500
 8534TIP3    H147017   3.754   6.322  12.787  2.1498  0.6553 -0.0764
 8534TIP3    H247018   3.707   6.273  12.922 -0.8722 -0.7238 -1.5346
 8535TIP3   OH247019   3.467   0.232  13.411  0.0250 -0.0568 -0.3927
 8535TIP3    H147020   3.450   0.249  13.503  1.8702  1.6179 -0.3077
 8535TIP3    H247021   3.429   0.307  13.365  0.9810  0.1973 -0.7888
 8536TIP3   OH247022   1.733   1.407  16.449 -0.1513  0.0136 -0.3851
 8536TIP3    H147023   1.753   1.459  16.527 -1.3448 -0.1631  0.0623
 8536TIP3    H247024   1.673   1.462  16.398  0.8141  0.2267 -1.3069
 8537TIP3   OH247025   5.000   4.496  12.690  0.4266  0.2035  0.0610
 8537TIP3    H147026   5.096   4.498  12.695  0.4898  1.0015 -0.9799
 8537TIP3    H247027   4.971   4.539  12.770  0.9298 -0.3888  0.5680
 8538TIP3   OH247028   1.114   3.116   5.305 -0.0598  0.4276  0.1526
 8538TIP3    H147029   1.203   3.080   5.300 -0.3097 -0.1204 -0.5084
 8538TIP3    H247030   1.100   3.156   5.219 -0.0073  1.5929  0.6734
 8539TIP3   OH247031   1.204   0.793   2.822  0.0267  0.0375 -0.3604
 8539TIP3    H147032   1.267   0.722   2.829 -1.1643 -0.9198  1.3337
 8539TIP3    H247033   1.126   0.761   2.866 -0.9720  1.9597 -0.5877
 8540TIP3   OH247034   6.016   1.443  14.921 -0.0376 -0.4526 -0.3221
 8540TIP3    H147035   5.953   1.447  14.993 -0.1129  3.1512 -0.3974
 8540TIP3    H247036   5.962   1.445  14.842  0.1198 -0.5656 -0.4325
 8541TIP3   OH247037   6.149   3.812   1.907  0.5457  0.2530 -0.0280
 8541TIP3    H147038   6.152   3.906   1.890  2.8038  0.1835 -0.3078
 8541TIP3    H247039   6.161   3.771   1.821  0.6593 -0.2722  0.2321
 8542TIP3   OH247040   6.348   0.055   4.590 -0.6019 -0.3206  0.2607
 8542TIP3    H147041   6.351   0.151   4.581  0.7300 -0.4203 -0.7098
 8542TIP3    H247042   6.404   0.023   4.519  0.7539 -1.7542  1.8809
 8543TIP3   OH247043   6.377   6.052  12.092 -0.0887 -0.2640  0.5247
 8543TIP3    H147044   6.408   6.079  12.006  0.0948  0.4012  0.7953
 8543TIP3    H247045   6.456   6.026  12.139  0.2722  2.5134  1.6037
 8544TIP3   OH247046   4.846   5.366  14.895 -0.0992  0.0892  0.2859
 8544TIP3    H147047   4.812   5.449  14.930  0.1879  0.4115 -0.1915
 8544TIP3    H247048   4.767   5.317  14.872 -0.3129 -0.3607  1.8825
 8545TIP3   OH247049   0.377   3.134   0.311 -0.4962 -0.1440  1.0942
 8545TIP3    H147050   0.344   3.138   0.401 -0.3955 -0.3363  1.1398
 8545TIP3    H247051   0.438   3.061   0.311 -0.3537 -0.0253  0.9150
 8546TIP3   OH247052   5.210   6.622  17.072  0.1860 -0.2947 -0.4586
 8546TIP3    H147053   5.134   6.668  17.036  1.0958 -0.7433 -3.1530
 8546TIP3    H247054   5.176   6.538  17.101 -0.4984 -0.1171 -0.7317
 8547TIP3   OH247055   6.463   4.935  12.066 -0.5633  0.0086  0.0297
 8547TIP3    H147056   6.493   4.962  12.153  1.3847  0.3287 -0.6763
 8547TIP3    H247057   6.369   4.925  12.075 -0.2544 -1.5193  2.5913
 8548TIP3   OH247058   3.420   4.633   6.453 -0.6007 -0.5778 -0.4759
 8548TIP3    H147059   3.344   4.611   6.507 -0.7662  0.7909 -0.1223
 8548TIP3    H247060   3.385   4.643   6.365 -0.7059 -0.6578 -0.4432
 8549TIP3   OH247061   2.388   4.449  13.430  0.8392 -0.1922  0.2941
 8549TIP3    H147062   2.384   4.397  13.510 -1.4050  0.2288  0.5456
 8549TIP3    H247063   2.324   4.407  13.372 -0.1150  1.4776  0.0492
 8550TIP3   OH247064   6.245   2.934  16.871  0.5262  0.1440  0.7743
 8550TIP3    H147065   6.175   2.992  16.901  0.8756  1.2823 -0.5420
 8550TIP3    H247066   6.273   2.887  16.950 -0.9737  0.4535  1.5192
 8551TIP3   OH247067   1.959   0.940  16.632  0.1632 -0.6115  0.5261
 8551TIP3    H147068   2.026   0.996  16.595 -0.8045 -0.2905 -0.8070
 8551TIP3    H247069   1.960   0.960  16.726  1.7094 -0.4182  0.4857
 8552TIP3   OH247070   0.918   4.232   4.818 -0.7220 -0.3613  0.4827
 8552TIP3    H147071   0.963   4.153   4.790  1.3847  1.5303 -2.0222
 8552TIP3    H247072   0.847   4.243   4.755  0.6584  1.0240 -0.9548
 8553TIP3   OH247073   5.525   6.606   3.383  0.5310 -0.0864 -0.4900
 8553TIP3    H147074   5.462   6.612   3.311  0.1517  0.6873 -0.1072
 8553TIP3    H247075   5.526   6.513   3.406  0.1560 -0.2366 -1.0490
 8554TIP3   OH247076   0.157   2.640   3.462  0.2870  0.0995 -0.1901
 8554TIP3    H147077   0.150   2.555   3.506 -0.4762 -0.4847 -1.3708
 8554TIP3    H247078   0.067   2.672   3.457  0.7641  2.1280  2.2887
 8555TIP3   OH247079   5.049   3.658  17.157  0.7014  0.2116 -0.1670
 8555TIP3    H147080   5.134   3.688  17.189  0.1117  2.2667 -0.3723
 8555TIP3    H247081   5.065   3.629  17.068  1.2129  0.5113 -0.1746
 8556TIP3   OH247082   5.088   1.852   1.462 -0.1903 -0.3625  0.0203
 8556TIP3    H147083   4.996   1.872   1.476  0.2781  0.2678  2.7749
 8556TIP3    H247084   5.107   1.782   1.524  0.9474 -1.3027 -1.3285
 8557TIP3   OH247085   5.942   5.090  14.726 -0.3201  0.2742  0.1756
 8557TIP3    H147086   5.981   5.140  14.653  1.3270  0.4684  1.1415
 8557TIP3    H247087   5.977   5.002  14.716  0.4464  0.4667  1.1040
 8558TIP3   OH247088   1.101   4.939   0.851 -0.9792  0.4429 -0.3001
 8558TIP3    H147089   1.147   4.869   0.897 -0.4666  0.4461 -0.7951
 8558TIP3    H247090   1.151   5.018   0.871 -0.4193  0.3586 -1.2965
 8559TIP3   OH247091   4.570   3.073  12.776 -1.0485  0.5458 -0.1109
 8559TIP3    H147092   4.625   2.995  12.786 -0.5303  0.9772  0.4414
 8559TIP3    H247093   4.542   3.094  12.865 -0.1723  1.7156 -0.0900
 8560TIP3   OH247094   5.089   3.709  15.822  0.4262 -0.5508 -0.0143
 8560TIP3    H147095   4.996   3.718  15.839  0.4615  1.1457 -0.4665
 8560TIP3    H247096   5.131   3.767  15.885  1.1418 -0.9172 -0.1377
 8561TIP3   OH247097   3.346   0.952  11.320  0.6158 -0.2853  0.0355
 8561TIP3    H147098   3.252   0.971  11.319  0.7327  0.2629 -0.5603
 8561TIP3    H247099   3.381   1.008  11.389  0.4053 -1.0296  0.7734
 8562TIP3   OH247100   4.737   4.821  17.113  0.3949 -0.1712 -0.7307
 8562TIP3    H147101   4.829   4.844  17.123  0.4648 -0.9428  0.6926
 8562TIP3    H247102   4.735   4.726  17.129 -0.5739 -0.2496 -1.2823
 8563TIP3   OH247103   2.818   6.011  10.664 -0.1861 -0.6929 -0.4317
 8563TIP3    H147104   2.772   5.936  10.626 -1.1969 -0.6391  0.6199
 8563TIP3    H247105   2.799   6.084  10.605 -1.9390 -0.5534  0.2606
 8564TIP3   OH247106   1.638   2.126   0.112 -0.5405  0.4611  0.2324
 8564TIP3    H147107   1.611   2.041   0.076  2.9345 -0.5339 -0.3520
 8564TIP3    H247108   1.564   2.153   0.168 -2.3358 -2.2295 -0.6432
 8565TIP3   OH247109   1.708   3.376   0.905 -0.4272 -0.2633  0.4355
 8565TIP3    H147110   1.746   3.295   0.937  0.2573 -0.2544 -0.3275
 8565TIP3    H247111   1.783   3.432   0.886 -0.7887 -0.3454 -1.3615
 8566TIP3   OH247112   0.767   4.542   4.388 -0.3507  0.2334  0.5034
 8566TIP3    H147113   0.850   4.580   4.361  0.4200 -1.4257  0.4115
 8566TIP3    H247114   0.729   4.507   4.307  0.0519 -1.1743  0.8882
 8567TIP3   OH247115   0.686   3.610   0.967  0.0642  0.1607 -0.3382
 8567TIP3    H147116   0.624   3.638   1.034  0.2919 -1.0796  0.4209
 8567TIP3    H247117   0.768   3.654   0.990 -0.3562  1.3526 -1.0170
 8568TIP3   OH247118   5.816   0.741  11.753 -0.3643  0.1650 -0.3007
 8568TIP3    H147119   5.805   0.726  11.847 -2.1837 -1.1684 -0.6772
 8568TIP3    H247120   5.910   0.758  11.743 -0.1842  0.6879  1.7820
 8569TIP3   OH247121   1.539   2.138   3.347  0.3037 -0.1328 -0.0145
 8569TIP3    H147122   1.450   2.109   3.370  0.7822 -0.1964  1.9175
 8569TIP3    H247123   1.583   2.058   3.319  0.6816 -0.7957  2.2460
 8570TIP3   OH247124   2.953   4.257   6.410 -0.5120  0.3987  0.5951
 8570TIP3    H147125   2.893   4.331   6.407 -1.8908 -0.6779 -0.5081
 8570TIP3    H247126   2.919   4.201   6.480  0.0665  0.4551  0.9225
 8571TIP3   OH247127   4.599   6.477  12.456 -0.2108 -0.2019 -0.0047
 8571TIP3    H147128   4.515   6.472  12.501 -0.5975 -0.2672 -0.7167
 8571TIP3    H247129   4.580   6.525  12.375  0.1628 -1.3070 -0.7747
 8572TIP3   OH247130   2.995   3.470  11.818  0.1234  0.3785 -0.6207
 8572TIP3    H147131   2.956   3.429  11.741 -0.4052  0.1865 -0.2589
 8572TIP3    H247132   2.954   3.556  11.823  0.6070  0.6292 -0.8955
 8573TIP3   OH247133   1.078   0.453   1.316 -0.1016  0.0725 -0.0963
 8573TIP3    H147134   1.154   0.397   1.297  3.9066  3.5149  3.6588
 8573TIP3    H247135   1.020   0.398   1.368  1.6296 -1.7686  0.0242
 8574TIP3   OH247136   5.559   3.074   4.994  0.1266 -0.0444 -0.2809
 8574TIP3    H147137   5.620   3.005   4.967 -0.2780 -0.2871 -0.5900
 8574TIP3    H247138   5.497   3.081   4.921 -1.3338 -1.1065  0.8015
 8575TIP3   OH247139   3.557   4.394   1.537  0.2095  0.0200 -0.3417
 8575TIP3    H147140   3.498   4.329   1.500  0.5669  0.6046 -2.0231
 8575TIP3    H247141   3.591   4.442   1.462  1.4746  0.8634  0.7102
 8576TIP3   OH247142   6.116   6.418   5.274 -0.1819  0.0632 -0.0084
 8576TIP3    H147143   6.134   6.512   5.263  0.2858  0.3127  2.3397
 8576TIP3    H247144   6.026   6.408   5.243 -0.9393  1.7178  1.4297
 8577TIP3   OH247145   2.315   5.584   4.127  0.1208  0.4652  0.1303
 8577TIP3    H147146   2.269   5.545   4.053  0.5687  1.0554 -0.4823
 8577TIP3    H247147   2.266   5.664   4.146 -0.2874  0.0653  0.8132
 8578TIP3   OH247148   3.543   6.745   0.750 -0.4999  0.3198 -0.5411
 8578TIP3    H147149   3.457   6.706   0.762  0.5865 -1.9155  0.7201
 8578TIP3    H247150   3.598   6.673   0.718  0.6409  2.0167 -2.7061
 8579TIP3   OH247151   1.110   2.123  11.362 -0.0588  0.0482 -0.1092
 8579TIP3    H147152   1.031   2.156  11.405 -0.7807 -0.0641 -1.2887
 8579TIP3    H247153   1.079   2.095  11.276  1.2432 -0.1821 -0.5119
 8580TIP3   OH247154   6.564   3.722  12.153 -0.6695  0.1569  0.1402
 8580TIP3    H147155   6.625   3.729  12.080 -2.0430 -0.7326 -1.1385
 8580TIP3    H247156   6.488   3.773  12.127 -1.3326 -0.4672  0.7889
 8581TIP3   OH247157   6.307   3.556  13.898 -0.2791  0.8675 -0.3755
 8581TIP3    H147158   6.278   3.631  13.950  1.3754  1.7096 -0.6142
 8581TIP3    H247159   6.397   3.540  13.926 -0.1872 -0.2340 -1.2292
 8582TIP3   OH247160   1.960   6.085  14.024 -0.3168 -0.3724  0.4831
 8582TIP3    H147161   1.982   6.067  13.932  0.4846  0.9017  0.4042
 8582TIP3    H247162   1.873   6.125  14.020  0.6795  1.8539  0.0214
 8583TIP3   OH247163   4.170   6.783  10.800  0.1065 -0.2176 -0.0593
 8583TIP3    H147164   4.089   6.751  10.760 -0.4804 -1.2833  1.8524
 8583TIP3    H247165   4.240   6.748  10.745 -0.6875  0.0994 -1.3109
 8584TIP3   OH247166   0.027   3.063  11.664 -0.4664  0.0380  0.0678
 8584TIP3    H147167   0.043   3.030  11.576  2.8024  2.3105 -0.3866
 8584TIP3    H247168  -0.056   3.110  11.658 -2.4289 -3.2185 -0.5886
 8585TIP3   OH247169   0.147   4.654  16.697  0.3844  0.0062  0.3474
 8585TIP3    H147170   0.184   4.659  16.609  1.9149 -0.8512  0.8905
 8585TIP3    H247171   0.055   4.676  16.686  0.8505  1.4271 -1.2324
 8586TIP3   OH247172   2.110   0.816  14.712 -0.3873  0.2372 -0.6588
 8586TIP3    H147173   2.121   0.866  14.631  1.6567 -1.1711 -1.3424
 8586TIP3    H247174   2.082   0.730  14.683 -0.6265  0.0116  0.2223
 8587TIP3   OH247175   4.277   3.122   1.570 -0.5095  0.2780 -0.6903
 8587TIP3    H147176   4.190   3.153   1.596 -0.7173 -0.1946 -0.8149
 8587TIP3    H247177   4.262   3.071   1.491 -0.3815 -1.3530  0.3044
 8588TIP3   OH247178   0.153   5.513   4.442  0.9977  0.3102  0.3530
 8588TIP3    H147179   0.109   5.595   4.420  1.5110  0.7549  0.9215
 8588TIP3    H247180   0.093   5.444   4.414  0.2068  0.8900  0.5915
 8589TIP3   OH247181   6.276   1.190  14.621 -0.4081 -0.0585  0.8370
 8589TIP3    H147182   6.314   1.230  14.543 -2.8996 -0.7455 -0.8490
 8589TIP3    H247183   6.240   1.264  14.670  0.2794  0.2771  0.8630
 8590TIP3   OH247184   1.433   3.972   6.450  0.0247 -0.2989  0.2744
 8590TIP3    H147185   1.374   3.996   6.521 -2.6211  0.2597 -1.9538
 8590TIP3    H247186   1.452   4.054   6.405  3.1657 -0.3453  1.2783
 8591TIP3   OH247187   6.213   1.402  15.527  0.1197 -0.3880  0.1295
 8591TIP3    H147188   6.182   1.393  15.437 -1.6791  0.6631  0.5822
 8591TIP3    H247189   6.175   1.327  15.573  0.3700 -0.4853  0.1772
 8592TIP3   OH247190   5.125   4.884   2.001  0.3302  0.1394  0.3873
 8592TIP3    H147191   5.181   4.910   2.075  0.9330  1.6561 -0.5570
 8592TIP3    H247192   5.160   4.932   1.926 -1.4254  0.0999 -0.5116
 8593TIP3   OH247193   6.686   1.095  14.674 -0.1094 -0.0177  0.3415
 8593TIP3    H147194   6.618   1.149  14.716  0.3982  1.2544 -0.4054
 8593TIP3    H247195   6.767   1.121  14.717  0.2379  0.3632 -0.5142
 8594TIP3   OH247196   5.041   4.672   6.441 -0.0729 -0.5513 -0.0461
 8594TIP3    H147197   5.086   4.744   6.485 -1.9011 -1.5934  4.0888
 8594TIP3    H247198   5.087   4.593   6.472 -0.3543 -1.3270 -1.5187
 8595TIP3   OH247199   4.368   5.690   1.322 -0.2807 -0.1872 -0.0098
 8595TIP3    H147200   4.352   5.756   1.254 -0.3453  1.0669  1.1856
 8595TIP3    H247201   4.440   5.638   1.287 -0.7400 -0.0004 -1.3256
 8596TIP3   OH247202   4.237   5.552   0.926  0.2531 -0.1089 -1.0176
 8596TIP3    H147203   4.309   5.614   0.932 -0.4922  0.8291 -1.4418
 8596TIP3    H247204   4.279   5.467   0.911  1.4592 -0.2471  2.2945
 8597TIP3   OH247205   3.782   3.638  11.131 -0.2048 -0.6636 -0.2198
 8597TIP3    H147206   3.856   3.591  11.093 -0.8879 -2.1481  0.1980
 8597TIP3    H247207   3.779   3.610  11.222 -0.5020  0.3878  0.1081
 8598TIP3   OH247208   2.206   0.577  13.643 -0.4047 -0.0708 -0.4260
 8598TIP3    H147209   2.282   0.628  13.615  0.1887 -0.0929  1.0635
 8598TIP3    H247210   2.183   0.612  13.729 -1.2250 -0.9823 -0.2559
 8599TIP3   OH247211   1.530   4.185   4.444 -0.0935 -0.3517 -0.4752
 8599TIP3    H147212   1.580   4.108   4.417 -0.7367 -0.2126 -2.2428
 8599TIP3    H247213   1.526   4.239   4.364 -0.4908  1.0454  0.4583
 8600TIP3   OH247214   6.211   6.782  11.446  0.1688  0.1765 -0.3424
 8600TIP3    H147215   6.182   6.851  11.506 -1.5636 -0.7239 -0.0966
 8600TIP3    H247216   6.275   6.732  11.497  0.0041  0.4496  0.1452
 8601TIP3   OH247217   2.932   6.648   3.155 -0.2786  0.4221 -0.2204
 8601TIP3    H147218   3.000   6.583   3.168 -0.6578  0.1554  0.4963
 8601TIP3    H247219   2.966   6.728   3.195 -1.5743 -0.4784  2.9706
 8602TIP3   OH247220   5.573   5.933  12.987 -0.5558  0.1522  0.1199
 8602TIP3    H147221   5.638   5.980  12.935  0.3680 -0.1832  0.9456
 8602TIP3    H247222   5.604   5.842  12.989 -0.9378  0.0257  0.6774
 8603TIP3   OH247223   2.433   3.221   1.116 -0.4272 -0.2124 -0.3073
 8603TIP3    H147224   2.453   3.245   1.026 -0.6554  0.2981 -0.2249
 8603TIP3    H247225   2.501   3.264   1.168 -0.6005 -0.0692 -0.1944
 8604TIP3   OH247226   0.305   1.748   0.615 -0.1186  0.0678  0.3165
 8604TIP3    H147227   0.244   1.703   0.674  1.4323  1.3470  3.0463
 8604TIP3    H247228   0.381   1.769   0.669  2.4629 -0.6548 -2.7213
 8605TIP3   OH247229   3.332   0.313  12.354 -0.0628  0.4651  0.2022
 8605TIP3    H147230   3.288   0.384  12.306 -1.1780 -0.1211  0.3058
 8605TIP3    H247231   3.323   0.237  12.297  1.5750  0.4925 -0.1361
 8606TIP3   OH247232   6.587   5.840   2.836 -0.1284 -0.1672  0.0190
 8606TIP3    H147233   6.617   5.786   2.909 -1.8375  1.1921  1.8270
 8606TIP3    H247234   6.663   5.893   2.812 -0.3343  1.6789  3.0370
 8607TIP3   OH247235   4.191   5.314  16.054 -0.0369 -0.4581  0.0249
 8607TIP3    H147236   4.210   5.254  16.126  1.4462 -1.4241 -1.1315
 8607TIP3    H247237   4.211   5.401  16.090 -1.0305 -0.7385  1.3202
 8608TIP3   OH247238   0.252   5.251   1.176 -0.1865  0.3546  0.3356
 8608TIP3    H147239   0.287   5.330   1.134 -0.3945  0.6511  0.7188
 8608TIP3    H247240   0.226   5.195   1.102 -0.9141  1.0390  0.0638
 8609TIP3   OH247241   4.453   2.408   1.598 -0.1131 -0.3369 -0.3901
 8609TIP3    H147242   4.391   2.337   1.616  0.4882 -1.3222 -1.9388
 8609TIP3    H247243   4.399   2.486   1.589 -0.7785 -0.5038  1.5325
 8610TIP3   OH247244   3.692   4.298   0.735  0.1081  0.9140 -0.1048
 8610TIP3    H147245   3.630   4.369   0.753  0.7176  1.4458 -0.0513
 8610TIP3    H247246   3.708   4.258   0.820 -0.9083  0.1431 -0.2711
 8611TIP3   OH247247   1.340   6.282  12.908  0.2641 -0.0064 -0.2051
 8611TIP3    H147248   1.408   6.347  12.929  0.4252 -0.0119 -0.7005
 8611TIP3    H247249   1.389   6.201  12.891  0.2365  0.2601 -1.6960
 8612TIP3   OH247250   3.380   0.107   4.939  0.1338 -0.0728 -0.1987
 8612TIP3    H147251   3.389   0.201   4.929 -0.3453 -0.2048 -2.4717
 8612TIP3    H247252   3.447   0.083   5.003  0.7952  1.6904 -0.1718
 8613TIP3   OH247253   1.223   5.500  16.340  0.3496  0.3536 -0.1438
 8613TIP3    H147254   1.289   5.445  16.382 -1.7077 -0.8311  1.7501
 8613TIP3    H247255   1.203   5.455  16.258  0.3517 -0.4830  0.3029
 8614TIP3   OH247256   2.319   2.589   5.181  0.2839  0.0550  0.3571
 8614TIP3    H147257   2.352   2.668   5.138  0.8937 -0.8563 -0.9267
 8614TIP3    H247258   2.247   2.559   5.126 -0.6825  0.2954  1.4390
 8615TIP3   OH247259   6.110   6.551  12.533  0.5755 -0.3648 -0.5165
 8615TIP3    H147260   6.087   6.545  12.626 -0.3129 -1.2025 -0.7680
 8615TIP3    H247261   6.026   6.544  12.487  1.1136 -1.3179 -1.4138
 8616TIP3   OH247262   0.167   3.734   1.058  0.0064  0.1394 -0.3402
 8616TIP3    H147263   0.076   3.753   1.084  0.2699  0.9032  0.0577
 8616TIP3    H247264   0.209   3.706   1.140 -0.0103 -0.7794 -0.6393
 8617TIP3   OH247265   0.110   6.266  10.990 -0.1529 -0.2543 -0.4123
 8617TIP3    H147266   0.026   6.295  10.956 -0.3109 -0.4928 -0.2288
 8617TIP3    H247267   0.092   6.181  11.029 -0.3089  0.6276  1.5952
 8618TIP3   OH247268   1.110   1.880   1.133 -0.5904 -0.1286 -0.1530
 8618TIP3    H147269   1.111   1.972   1.162  0.0947  0.3490 -1.6153
 8618TIP3    H247270   1.064   1.834   1.203 -0.9001  1.3193  0.6422
 8619TIP3   OH247271   4.463   2.814   6.422 -0.2171 -0.5335  0.4518
 8619TIP3    H147272   4.400   2.788   6.355 -0.3361 -0.6389  0.6031
 8619TIP3    H247273   4.451   2.750   6.492  0.4064 -0.8527  0.2756
 8620TIP3   OH247274   5.805   6.653   5.826 -0.0471 -0.2041 -0.1486
 8620TIP3    H147275   5.847   6.603   5.756  0.3146  0.3839 -0.3616
 8620TIP3    H247276   5.853   6.630   5.905  1.3265  1.1849 -0.5406
 8621TIP3   OH247277   2.931   6.377   0.382  0.7039  0.0090  0.1718
 8621TIP3    H147278   2.880   6.454   0.357  0.3791 -0.4849 -0.7189
 8621TIP3    H247279   3.016   6.389   0.340  0.1223 -0.8727 -1.3242
 8622TIP3   OH247280   1.406   6.475  12.315 -0.1152  0.5655 -0.8474
 8622TIP3    H147281   1.397   6.471  12.219  0.2068  1.1001 -0.9064
 8622TIP3    H247282   1.494   6.510  12.329 -0.2176  0.6366 -0.3583
 8623TIP3   OH247283   5.899   2.857  14.396  0.1012 -0.5433 -0.7930
 8623TIP3    H147284   5.952   2.935  14.408 -2.6640  1.1866  1.7594
 8623TIP3    H247285   5.839   2.879  14.324 -0.7849 -0.1715  0.0312
 8624TIP3   OH247286   1.312   0.878  15.787 -0.9503 -0.0678  0.0704
 8624TIP3    H147287   1.407   0.887  15.796 -1.1334  0.4833  1.6224
 8624TIP3    H247288   1.301   0.793  15.745  0.2978  1.0078 -2.7549
 8625TIP3   OH247289   0.661   3.246   3.459  0.0051  0.2529 -0.0896
 8625TIP3    H147290   0.684   3.177   3.397  1.2539 -0.9134  1.6040
 8625TIP3    H247291   0.579   3.216   3.499  0.3726 -0.0903  0.4089
 8626TIP3   OH247292   0.937   0.543  13.821 -0.1590 -0.1902  0.0142
 8626TIP3    H147293   0.857   0.567  13.868 -0.8380  0.9487 -1.6291
 8626TIP3    H247294   0.908   0.484  13.752 -0.1097  2.1891 -2.2219
 8627TIP3   OH247295   2.613   3.687  15.271 -0.2038  0.1298  0.1611
 8627TIP3    H147296   2.628   3.597  15.298 -0.2004  0.7146  2.2382
 8627TIP3    H247297   2.701   3.725  15.266 -0.3116  0.6521  1.7300
 8628TIP3   OH247298   1.968   0.689  13.546  0.4381 -0.1914  0.1751
 8628TIP3    H147299   1.932   0.602  13.532  0.0388  0.0293 -0.2144
 8628TIP3    H247300   2.057   0.674  13.577  1.0017 -0.7393 -1.5711
 8629TIP3   OH247301   6.609   1.176  11.975 -0.2066  0.0917  0.5551
 8629TIP3    H147302   6.522   1.138  11.964  0.0927 -1.6342  3.3951
 8629TIP3    H247303   6.668   1.116  11.929 -0.2211 -0.4807  1.2638
 8630TIP3   OH247304   0.484   5.444   4.639 -0.0760  0.4879  0.3038
 8630TIP3    H147305   0.502   5.381   4.569  0.7321  1.2433 -0.1795
 8630TIP3    H247306   0.406   5.409   4.683 -0.1658 -0.3735 -0.5128
 8631TIP3   OH247307   4.345   5.450  15.010 -0.0804 -0.0809  0.6554
 8631TIP3    H147308   4.328   5.368  14.964 -0.7641 -0.0930  0.9203
 8631TIP3    H247309   4.428   5.435  15.056  0.9387  0.1446 -1.0332
 8632TIP3   OH247310   4.968   5.520  12.569 -0.5368 -0.0157 -0.8279
 8632TIP3    H147311   4.895   5.566  12.610  0.8523  1.2765  0.3354
 8632TIP3    H247312   5.001   5.582  12.503  1.4344  0.8297  0.8467
 8633TIP3   OH247313   2.839   2.521  15.729 -0.4807 -0.1152  0.2830
 8633TIP3    H147314   2.867   2.523  15.638 -1.3141 -1.5296 -0.0236
 8633TIP3    H247315   2.920   2.511  15.779 -0.0599  0.2670 -0.3068
 8634TIP3   OH247316   0.709   2.364   2.480  0.5449  0.3462  0.2290
 8634TIP3    H147317   0.686   2.456   2.482 -0.0413  0.1985  0.5001
 8634TIP3    H247318   0.636   2.322   2.434 -0.7618 -0.4150  2.8353
 8635TIP3   OH247319   0.871   0.236   5.357 -0.1339  0.7001  0.4095
 8635TIP3    H147320   0.949   0.210   5.308  0.5594  3.4033 -0.0742
 8635TIP3    H247321   0.859   0.165   5.421  1.8784 -0.4682 -0.3949
 8636TIP3   OH247322   4.090   6.447  14.729  0.2100 -0.5651 -0.3704
 8636TIP3    H147323   4.122   6.384  14.665 -0.6269 -0.3235 -1.0442
 8636TIP3    H247324   4.167   6.468  14.782  0.8744 -0.9149 -1.1697
 8637TIP3   OH247325   4.451   5.289   3.785 -0.4860  0.8099 -0.4182
 8637TIP3    H147326   4.435   5.233   3.709  0.6149 -1.4513  0.8815
 8637TIP3    H247327   4.521   5.348   3.757 -0.2580  0.1693 -1.2530
 8638TIP3   OH247328   3.479   6.481   4.597 -0.0802  0.7024 -0.3588
 8638TIP3    H147329   3.440   6.485   4.684  0.1142 -0.2929 -0.2147
 8638TIP3    H247330   3.568   6.449   4.612 -0.3876 -0.5066 -1.0064
 8639TIP3   OH247331   5.981   2.665  16.146  0.2694  0.4353 -0.1226
 8639TIP3    H147332   6.040   2.618  16.206 -0.2638 -0.4417 -0.2804
 8639TIP3    H247333   6.022   2.656  16.060 -0.2194 -0.3998 -0.2739
 8640TIP3   OH247334   4.375   2.356   2.111  0.4982  0.0762  0.6999
 8640TIP3    H147335   4.411   2.278   2.070 -0.8167  0.6534 -1.7132
 8640TIP3    H247336   4.366   2.419   2.040  2.6590  2.9711  2.7063
 8641TIP3   OH247337   4.956   1.684  12.496 -0.5218 -0.4365 -0.0056
 8641TIP3    H147338   4.944   1.736  12.417  0.4379 -0.2433 -0.0287
 8641TIP3    H247339   5.043   1.708  12.528 -0.0718 -1.9979  0.0063
 8642TIP3   OH247340   0.033   0.631   0.140 -0.3521 -0.4141 -0.1190
 8642TIP3    H147341  -0.037   0.568   0.154 -1.1368  0.5624  0.5298
 8642TIP3    H247342   0.093   0.588   0.079 -2.0545 -0.8822 -1.5639
 8643TIP3   OH247343   2.764   1.676  12.705 -0.0390 -0.2137  0.2298
 8643TIP3    H147344   2.800   1.681  12.616  1.9834  0.7211  1.0442
 8643TIP3    H247345   2.671   1.697  12.693  0.2488  0.2566 -1.6193
 8644TIP3   OH247346   2.674   6.378   0.034  0.2640 -0.1971 -0.2221
 8644TIP3    H147347   2.770   6.373   0.033  0.2902  0.2729 -1.4240
 8644TIP3    H247348   2.654   6.446   0.099  0.7211 -0.4859  0.2326
 8645TIP3   OH247349   1.707   4.997  14.281 -0.0591  0.5333  0.3842
 8645TIP3    H147350   1.686   4.910  14.248 -0.1679  1.2512 -1.6232
 8645TIP3    H247351   1.622   5.035  14.305 -0.0496  0.2039  0.9311
 8646TIP3   OH247352   5.325   2.128   5.601  0.9158  0.0557 -0.6845
 8646TIP3    H147353   5.376   2.145   5.523  1.2582  1.0607 -0.2517
 8646TIP3    H247354   5.349   2.197   5.662 -0.0500 -0.1611 -0.0274
 8647TIP3   OH247355   4.291   5.056   4.410 -0.1231  0.6633 -0.7536
 8647TIP3    H147356   4.330   5.007   4.483 -3.4192 -0.6506  0.3143
 8647TIP3    H247357   4.310   5.002   4.333 -0.9829 -0.7252 -0.0451
 8648TIP3   OH247358   2.586   3.161  12.897 -0.2451  0.4659 -0.3068
 8648TIP3    H147359   2.565   3.116  12.815 -2.8840  2.2709 -0.7378
 8648TIP3    H247360   2.652   3.225  12.873  0.0298  0.0449 -0.6963
 8649TIP3   OH247361   4.032   0.993  16.873 -0.0284  0.0873  0.0894
 8649TIP3    H147362   4.083   1.073  16.882 -0.5118  0.4068  0.0036
 8649TIP3    H247363   3.980   0.988  16.954 -0.4921  0.2153 -0.1956
 8650TIP3   OH247364   6.556   1.880   4.120  0.0533 -0.0563  0.0519
 8650TIP3    H147365   6.474   1.898   4.074  0.3220  0.6506 -0.1610
 8650TIP3    H247366   6.592   1.803   4.077  0.2179  0.4928 -0.8209
 8651TIP3   OH247367   6.675   5.961  11.240  0.4795 -0.4930 -0.7882
 8651TIP3    H147368   6.638   6.044  11.271  1.3752 -0.0432 -0.8943
 8651TIP3    H247369   6.601   5.917  11.198 -0.3053 -0.3065  0.3547
 8652TIP3   OH247370   2.803   0.117  16.679  0.3078 -0.5310 -0.3839
 8652TIP3    H147371   2.832   0.050  16.616 -0.8213 -0.2899 -1.2099
 8652TIP3    H247372   2.741   0.071  16.735 -0.9383 -0.0730 -1.3365
 8653TIP3   OH247373   0.957   2.554  14.688  0.1511 -0.0920  0.4845
 8653TIP3    H147374   0.977   2.537  14.596  1.4428  0.0791  0.7226
 8653TIP3    H247375   0.865   2.581  14.688 -0.4390 -1.9642 -0.5100
 8654TIP3   OH247376   0.398   1.038  15.680 -0.1146 -0.0162 -0.3537
 8654TIP3    H147377   0.309   1.017  15.654 -0.4987  0.0763  0.8399
 8654TIP3    H247378   0.389   1.114  15.738  0.5912 -0.8112  0.8563
 8655TIP3   OH247379   4.119   0.971  12.924 -0.4349 -0.2849  0.0936
 8655TIP3    H147380   4.177   0.904  12.887  0.2997  1.0397 -1.2328
 8655TIP3    H247381   4.176   1.028  12.975 -0.6179  0.7499 -0.8191
 8656TIP3   OH247382   1.531   5.339   4.039  0.0657  0.4168 -0.8003
 8656TIP3    H147383   1.624   5.362   4.037 -0.3222  2.1415 -0.5108
 8656TIP3    H247384   1.488   5.413   4.082 -1.2557 -1.1154  0.6687
 8657TIP3   OH247385   2.717   6.656   4.257  0.3217  0.1825 -0.0570
 8657TIP3    H147386   2.721   6.637   4.164  0.3803 -1.2215  0.2153
 8657TIP3    H247387   2.675   6.579   4.296 -1.4154  1.5025  0.8636
 8658TIP3   OH247388   5.875   0.496  15.877  0.5472 -0.1250  0.7386
 8658TIP3    H147389   5.860   0.403  15.864 -0.9652  0.1891  0.0285
 8658TIP3    H247390   5.836   0.538  15.801 -0.1827  1.1801  1.7815
 8659TIP3   OH247391   4.491   4.550   0.373  0.1158  0.6074  0.4216
 8659TIP3    H147392   4.552   4.477   0.385  0.2380  0.6541  0.0971
 8659TIP3    H247393   4.537   4.609   0.313 -0.2964  0.5914  0.0896
 8660TIP3   OH247394   6.682   0.782   1.367 -0.3524 -0.4429  0.2399
 8660TIP3    H147395   6.628   0.705   1.383  1.6917 -2.2838 -1.0891
 8660TIP3    H247396   6.684   0.791   1.272 -0.4921  1.2466  0.3635
 8661TIP3   OH247397   1.170   1.161  15.182 -0.7551 -0.1566 -0.0979
 8661TIP3    H147398   1.201   1.198  15.099 -0.7109 -0.0483 -0.0334
 8661TIP3    H247399   1.165   1.067  15.166 -0.5598 -0.1553 -0.1617
 8662TIP3   OH247400   3.120   1.962  11.754 -0.0190  0.2064  0.1898
 8662TIP3    H147401   3.208   1.962  11.716 -0.4729 -0.7457 -0.9020
 8662TIP3    H247402   3.120   1.888  11.815 -0.2156 -0.1257 -0.2072
 8663TIP3   OH247403   3.868   1.079   6.157 -0.0172 -0.0887  0.1887
 8663TIP3    H147404   3.797   1.140   6.175  1.3302  1.5815  0.0529
 8663TIP3    H247405   3.892   1.044   6.243 -2.4245 -2.4761  0.0538
 8664TIP3   OH247406   1.499   0.042  10.742  0.8518 -0.1057 -0.5738
 8664TIP3    H147407   1.593   0.025  10.748  0.6865 -0.6242  0.9932
 8664TIP3    H247408   1.490   0.134  10.766  1.1288  0.5966 -2.8908
 8665TIP3   OH247409   6.596   4.320  11.991 -0.1529 -0.8426  0.2196
 8665TIP3    H147410   6.667   4.256  11.993  0.0369 -0.6926 -0.9255
 8665TIP3    H247411   6.592   4.348  11.899  0.0046  1.0419  0.7471
 8666TIP3   OH247412   6.650   1.394   3.508  0.7822 -0.4597 -0.1695
 8666TIP3    H147413   6.736   1.354   3.522  0.5750 -1.1539 -0.7978
 8666TIP3    H247414   6.618   1.412   3.596  1.4829 -0.3892  0.0785
 8667TIP3   OH247415   1.542   6.520  10.778  0.1031  0.2583  0.3251
 8667TIP3    H147416   1.565   6.429  10.763 -0.1827  0.3130 -0.4941
 8667TIP3    H247417   1.615   6.570  10.743 -1.4547  0.4626 -3.0599
 8668TIP3   OH247418   6.320   0.668   1.247 -0.5329  0.0966 -0.0806
 8668TIP3    H147419   6.357   0.623   1.171 -1.8255 -1.4256  0.1224
 8668TIP3    H247420   6.382   0.650   1.318 -1.2677 -1.9297  0.1252
 8669TIP3   OH247421   3.088   4.337   5.207 -0.0065 -0.4347 -0.2156
 8669TIP3    H147422   3.046   4.423   5.213  1.6646  0.3922  0.2831
 8669TIP3    H247423   3.182   4.356   5.201  0.4417 -2.2424  0.3157
 8670TIP3   OH247424   5.608   0.374   0.663 -0.1254 -0.5457  0.2383
 8670TIP3    H147425   5.662   0.301   0.695  1.7592  1.3766  1.7374
 8670TIP3    H247426   5.583   0.422   0.742 -2.5905 -0.3197 -0.5966
 8671TIP3   OH247427   3.548   2.224   4.996  0.0867 -0.4284  0.9706
 8671TIP3    H147428   3.596   2.290   4.946 -0.7440 -1.0182 -0.6785
 8671TIP3    H247429   3.614   2.180   5.048  0.9322  0.4770  0.6974
 8672TIP3   OH247430   0.843   4.027  14.321 -0.3779 -0.1687 -0.5034
 8672TIP3    H147431   0.822   3.978  14.241  0.4994 -0.8737 -0.3114
 8672TIP3    H247432   0.933   4.003  14.341 -1.4294 -2.1923  2.2702
 8673TIP3   OH247433   3.159   2.913  10.896 -0.5266  0.3402  0.4128
 8673TIP3    H147434   3.243   2.883  10.930 -0.6515 -1.6999 -0.9221
 8673TIP3    H247435   3.159   3.007  10.913  1.1648  0.0881  2.1956
 8674TIP3   OH247436   1.251   4.491  16.587  0.3663  0.6719 -0.4385
 8674TIP3    H147437   1.254   4.397  16.572  1.0404  0.8460 -1.4818
 8674TIP3    H247438   1.192   4.525  16.520  0.4732  1.0467 -0.3470
 8675TIP3   OH247439   2.606   5.836   5.632 -0.0645  0.3044 -0.8674
 8675TIP3    H147440   2.635   5.753   5.594  1.5304  0.5679 -0.2651
 8675TIP3    H247441   2.675   5.899   5.609 -0.2580  1.0092  0.4045
 8676TIP3   OH247442   4.333   5.589  11.417  0.2709  0.4814  0.4816
 8676TIP3    H147443   4.299   5.622  11.335  0.6157 -0.4853 -0.0686
 8676TIP3    H247444   4.428   5.601  11.411  0.3236  0.1504  0.6168
 8677TIP3   OH247445   2.706   2.267   0.605 -0.3980 -0.6613 -0.1622
 8677TIP3    H147446   2.773   2.304   0.662  0.8656 -2.7407 -0.2033
 8677TIP3    H247447   2.624   2.279   0.653 -0.0563  1.9192 -0.1141
 8678TIP3   OH247448   6.153   3.601   6.039  0.1526 -0.1481 -0.2755
 8678TIP3    H147449   6.091   3.649   5.985 -1.0227  0.1645  1.2784
 8678TIP3    H247450   6.153   3.648   6.123  1.4009 -1.0000  0.2327
 8679TIP3   OH247451   2.516   0.414  14.889 -0.5199 -0.3352  0.4146
 8679TIP3    H147452   2.600   0.425  14.933 -0.0375 -1.8477 -0.0580
 8679TIP3    H247453   2.462   0.366  14.952 -1.4452  1.5132  1.1355
 8680TIP3   OH247454   2.110   6.614   0.510 -0.0313 -0.3279 -0.5875
 8680TIP3    H147455   2.025   6.591   0.548 -0.2512  1.3965  0.0120
 8680TIP3    H247456   2.158   6.530   0.507 -1.4076 -1.1649 -0.1127
 8681TIP3   OH247457   0.621   6.539   3.451 -0.6390 -0.3549  0.4031
 8681TIP3    H147458   0.641   6.633   3.449  0.9295 -0.6656 -0.5026
 8681TIP3    H247459   0.608   6.520   3.543  0.8119  0.4379  0.8101
 8682TIP3   OH247460   5.464   5.505  16.626 -0.4373  0.2210 -0.1116
 8682TIP3    H147461   5.461   5.514  16.721  0.7466  0.1505 -0.0537
 8682TIP3    H247462   5.516   5.579  16.596 -0.1052 -0.2055 -0.6224
 8683TIP3   OH247463   4.227   6.356  15.684  0.5440  0.1826  0.2875
 8683TIP3    H147464   4.282   6.418  15.732 -0.6997 -0.0567  2.0751
 8683TIP3    H247465   4.289   6.291  15.651  1.5230  0.8149  0.8252
 8684TIP3   OH247466   5.416   2.934  17.026  0.4467 -0.4069 -0.1515
 8684TIP3    H147467   5.348   2.868  17.033  2.3653 -2.3808  0.8852
 8684TIP3    H247468   5.416   2.960  16.934 -0.9810 -1.1267 -0.3685
 8685TIP3   OH247469   5.376   0.376  10.578  0.5552  0.2772 -0.0515
 8685TIP3    H147470   5.460   0.420  10.562  0.8610 -0.8425 -1.7957
 8685TIP3    H247471   5.381   0.296  10.526 -2.3050  1.0309 -1.6579
 8686TIP3   OH247472   2.087   4.104   2.645  0.1252  0.4960  0.0455
 8686TIP3    H147473   2.123   4.181   2.689 -1.8145 -0.0278  2.7670
 8686TIP3    H247474   1.997   4.098   2.677 -0.4947 -1.6604 -1.8337
 8687TIP3   OH247475   0.568   2.212   3.560 -0.6447 -0.2283 -0.3681
 8687TIP3    H147476   0.635   2.257   3.611 -0.7483 -0.6269  0.1265
 8687TIP3    H247477   0.613   2.135   3.524 -0.4882  0.2146 -1.1461
 8688TIP3   OH247478   2.367   1.311  10.449 -0.5375 -0.0788  0.1599
 8688TIP3    H147479   2.446   1.365  10.442 -0.5127 -0.0529  0.6432
 8688TIP3    H247480   2.301   1.370  10.485 -0.3217 -0.5577  1.3656
 8689TIP3   OH247481   1.760   2.910   2.206 -0.2222 -0.2309 -0.1023
 8689TIP3    H147482   1.830   2.918   2.271  0.0935 -1.5347 -0.2592
 8689TIP3    H247483   1.806   2.909   2.122 -0.6182  1.3147 -0.3680
 8690TIP3   OH247484   5.950   0.286  15.519 -0.2720 -0.8640  0.2295
 8690TIP3    H147485   5.919   0.335  15.443 -1.3766  0.1225  1.2752
 8690TIP3    H247486   5.884   0.301  15.586  0.8015 -1.4925  1.4837
 8691TIP3   OH247487   4.927   5.904  14.428 -0.6438  0.1997 -0.6868
 8691TIP3    H147488   5.018   5.885  14.451 -0.4314  1.9348  0.0191
 8691TIP3    H247489   4.876   5.864  14.498 -0.4262 -0.4992 -0.9136
 8692TIP3   OH247490   4.543   2.026  11.567 -0.1172  0.0954 -0.1183
 8692TIP3    H147491   4.622   2.079  11.575  1.8812 -2.5001 -1.0155
 8692TIP3    H247492   4.557   1.953  11.627 -1.0261 -1.2997 -1.5225
 8693TIP3   OH247493   5.371   0.098  10.491  0.3615 -0.2052 -0.2047
 8693TIP3    H147494   5.296   0.091  10.551 -1.8901  1.2494 -2.6436
 8693TIP3    H247495   5.392   0.008  10.469 -1.1929 -0.6392 -0.0336
 8694TIP3   OH247496   0.038   0.214  15.438  0.4120 -0.4339  0.2830
 8694TIP3    H147497   0.057   0.285  15.499  1.7046 -1.6725  1.4154
 8694TIP3    H247498   0.117   0.204  15.386 -0.0202 -0.5873 -0.3633
 8695TIP3   OH247499   4.046   0.119  12.095 -0.1511 -0.1246 -0.5107
 8695TIP3    H147500   4.109   0.048  12.104 -0.5295 -0.3081  0.9990
 8695TIP3    H247501   4.082   0.175  12.026  1.6569 -0.2441  0.2617
 8696TIP3   OH247502   2.274   2.310  16.060 -0.4626  0.2373  0.5094
 8696TIP3    H147503   2.327   2.252  16.114 -1.2185  0.4686  1.5255
 8696TIP3    H247504   2.199   2.333  16.115 -0.1036  2.3084  0.2217
 8697TIP3   OH247505   2.152   5.898  12.494 -0.4980  0.2212  0.2126
 8697TIP3    H147506   2.237   5.918  12.533 -1.3606  0.8204  1.8727
 8697TIP3    H247507   2.107   5.983  12.488 -0.3843  0.1835 -2.2497
 8698TIP3   OH247508   6.218   3.278   1.791 -0.0198  0.0130  0.5582
 8698TIP3    H147509   6.162   3.341   1.837 -0.5750 -0.2559  0.2735
 8698TIP3    H247510   6.202   3.295   1.698  0.9892  0.4617  0.4547
 8699TIP3   OH247511   4.045   0.665  15.523 -0.4403 -0.0823  0.4707
 8699TIP3    H147512   4.041   0.698  15.433 -0.7045 -0.8423  0.2045
 8699TIP3    H247513   3.964   0.697  15.564 -0.6514 -0.3219  0.2402
 8700TIP3   OH247514   4.859   4.544  13.759  0.5608 -0.3512  0.4239
 8700TIP3    H147515   4.773   4.522  13.723  0.4224 -0.5175  0.8494
 8700TIP3    H247516   4.856   4.511  13.849  0.7180  0.5032  0.7503
 8701TIP3   OH247517   2.680   1.763   1.739  0.5286  0.1863 -0.4924
 8701TIP3    H147518   2.714   1.708   1.810 -0.9298  1.1665  1.0219
 8701TIP3    H247519   2.653   1.844   1.782 -2.0830  0.1387 -1.8541
 8702TIP3   OH247520   5.770   4.107  15.372 -0.4801 -0.2622  0.1989
 8702TIP3    H147521   5.733   4.020  15.389  0.3912 -0.5248  0.8172
 8702TIP3    H247522   5.745   4.159  15.448 -3.3346  0.8702 -1.3487
 8703TIP3   OH247523   2.360   2.249  14.877 -0.0623  0.8372  0.2986
 8703TIP3    H147524   2.349   2.158  14.906 -3.8961  1.4044  1.1502
 8703TIP3    H247525   2.314   2.254  14.793  3.0153  1.3513 -1.5098
 8704TIP3   OH247526   0.481   1.847   2.161  0.1802 -0.1973 -0.6698
 8704TIP3    H147527   0.450   1.903   2.233  1.1814  1.2350 -1.2939
 8704TIP3    H247528   0.423   1.868   2.088 -0.6827 -1.4706 -0.3802
 8705TIP3   OH247529   3.370   4.800  15.461 -0.5019 -0.4542 -0.1666
 8705TIP3    H147530   3.316   4.871  15.427  0.4541  0.4743  0.1726
 8705TIP3    H247531   3.376   4.817  15.555 -2.7546 -2.7342  0.5102
 8706TIP3   OH247532   2.091   2.935   4.586 -0.8080 -0.5279 -0.0225
 8706TIP3    H147533   2.061   2.997   4.653 -1.6785 -0.7694 -0.1778
 8706TIP3    H247534   2.053   2.851   4.612 -0.0931 -0.8890 -0.1221
 8707TIP3   OH247535   0.684   0.211   2.495 -0.2745 -0.3638  0.5683
 8707TIP3    H147536   0.665   0.215   2.402 -1.1599  3.2689  0.7554
 8707TIP3    H247537   0.642   0.130   2.525 -2.7977  0.0012 -1.6470
 8708TIP3   OH247538   1.020   2.042  11.107  0.6033 -0.4649 -0.2229
 8708TIP3    H147539   1.092   1.998  11.061  2.0776  1.3297  0.2456
 8708TIP3    H247540   1.020   2.131  11.071 -1.9396 -0.6002 -0.7736
 8709TIP3   OH247541   5.661   2.611   2.763  0.3564 -0.7761 -0.1713
 8709TIP3    H147542   5.722   2.549   2.801  0.3678  0.1009  1.3327
 8709TIP3    H247543   5.583   2.559   2.741  1.1659 -1.6784 -0.9953
 8710TIP3   OH247544   2.694   6.328  16.806  0.2368 -0.1391 -0.2133
 8710TIP3    H147545   2.699   6.384  16.729  1.1035 -1.9992 -1.5971
 8710TIP3    H247546   2.748   6.373  16.872 -0.4971  1.4666 -0.6557
 8711TIP3   OH247547   1.761   4.065   4.093  0.1921 -0.1216  0.2303
 8711TIP3    H147548   1.813   4.043   4.016 -0.6291 -0.7657 -0.1546
 8711TIP3    H247549   1.795   4.150   4.121  1.4950 -0.5641  0.0481
 8712TIP3   OH247550   0.899   1.651  10.402  0.2041  0.1764 -0.4619
 8712TIP3    H147551   0.855   1.699  10.332  0.9183  0.5712 -0.6484
 8712TIP3    H247552   0.831   1.593  10.438 -0.2434  0.1771 -1.2835
 8713TIP3   OH247553   4.417   2.544   3.234  0.0058 -0.6989  0.2805
 8713TIP3    H147554   4.498   2.539   3.183 -0.8637  1.0268 -1.4244
 8713TIP3    H247555   4.367   2.616   3.193 -0.5986  1.1775  3.8713
 8714TIP3   OH247556   3.254   3.640  12.274 -0.2192 -0.4000 -0.2320
 8714TIP3    H147557   3.337   3.594  12.262 -0.2112 -0.1521 -1.2265
 8714TIP3    H247558   3.269   3.698  12.349  0.5366 -0.3005 -0.4554
 8715TIP3   OH247559   5.971   4.322  14.286 -0.3858  0.3641  0.2204
 8715TIP3    H147560   5.897   4.290  14.336 -0.9905 -0.0738 -0.9262
 8715TIP3    H247561   6.048   4.297  14.338 -0.8587 -2.2540 -0.1950
 8716TIP3   OH247562   1.444   0.068  13.992  0.0385  0.0287 -0.2924
 8716TIP3    H147563   1.396   0.144  13.960 -0.5624  0.1300  0.8422
 8716TIP3    H247564   1.411  -0.005  13.940  0.2870  0.4529 -1.0640
 8717TIP3   OH247565   5.484   1.963  14.417 -0.0119  0.1593 -0.1410
 8717TIP3    H147566   5.514   2.002  14.499  0.8624  0.2116 -0.4772
 8717TIP3    H247567   5.562   1.922  14.380 -0.4230  0.0361 -0.8942
 8718TIP3   OH247568   4.732   5.939   4.672 -0.3128 -0.0609  0.6811
 8718TIP3    H147569   4.788   6.014   4.693  0.5084 -0.2747 -0.6186
 8718TIP3    H247570   4.775   5.864   4.713  1.4759 -0.5352 -1.8184
 8719TIP3   OH247571   6.212   1.053  11.681 -0.4088  0.4256 -0.0937
 8719TIP3    H147572   6.128   1.099  11.682  0.3422  1.8652 -0.7723
 8719TIP3    H247573   6.206   0.993  11.607 -0.4665  1.2967 -0.8170
 8720TIP3   OH247574   5.348   2.654  12.890  0.2408 -0.3167 -0.3616
 8720TIP3    H147575   5.382   2.579  12.939  0.8974 -0.4552 -1.0058
 8720TIP3    H247576   5.400   2.656  12.810  2.5746  2.7648  0.9888
 8721TIP3   OH247577   2.566   2.742   5.565 -0.6373  0.4461 -0.1879
 8721TIP3    H147578   2.492   2.685   5.588 -0.4224 -0.1061 -0.8297
 8721TIP3    H247579   2.593   2.781   5.648 -0.4837 -0.7690  0.3599
 8722TIP3   OH247580   1.734   6.383   0.915 -0.4548 -0.0244 -0.7208
 8722TIP3    H147581   1.794   6.352   0.983 -0.0454 -0.5158 -1.2872
 8722TIP3    H247582   1.792   6.411   0.844 -0.8633 -2.5184 -2.1742
 8723TIP3   OH247583   4.611   5.358   4.287 -0.3483 -0.0669 -0.5149
 8723TIP3    H147584   4.633   5.270   4.255  1.2063 -0.5162  1.5257
 8723TIP3    H247585   4.533   5.344   4.341 -0.7174 -0.0154 -1.0403
 8724TIP3   OH247586   6.525   5.414   2.781 -0.3973 -0.3358 -0.0281
 8724TIP3    H147587   6.467   5.404   2.856 -0.8195 -0.1327 -0.3218
 8724TIP3    H247588   6.606   5.450   2.818 -0.4741 -0.5736  0.3778
 8725TIP3   OH247589   0.856   5.938  16.943 -0.1459  0.3015  0.0959
 8725TIP3    H147590   0.834   6.028  16.967  0.8205  0.4728  0.3717
 8725TIP3    H247591   0.784   5.910  16.886 -0.3368  1.3278 -0.1830
 8726TIP3   OH247592   2.237   4.073  11.255  0.2976 -0.2337 -0.0708
 8726TIP3    H147593   2.301   4.136  11.288 -0.0650  0.7848 -1.2374
 8726TIP3    H247594   2.270   4.049  11.168  0.0000 -1.0249  0.0331
 8727TIP3   OH247595   1.609   6.584   0.499 -0.7079  0.3905  0.0311
 8727TIP3    H147596   1.616   6.663   0.446  0.6774 -0.3150 -0.8905
 8727TIP3    H247597   1.589   6.617   0.587  0.0393  1.7958 -0.2788
 8728TIP3   OH247598   2.164   3.475  15.967  0.2281  0.5041  0.0789
 8728TIP3    H147599   2.174   3.468  16.062  0.6165 -0.6820 -0.0317
 8728TIP3    H247600   2.129   3.389  15.940  0.6661  0.6254 -0.9121
 8729TIP3   OH247601   5.785   2.366  16.372 -0.0959  0.1035  0.2042
 8729TIP3    H147602   5.720   2.404  16.313 -0.0876  0.8781  0.6779
 8729TIP3    H247603   5.794   2.431  16.442  0.5509 -0.3933  0.5889
 8730TIP3   OH247604   4.747   2.761  13.027  0.2066  0.1228  0.0746
 8730TIP3    H147605   4.739   2.769  12.932  0.1599  0.3870  0.1004
 8730TIP3    H247606   4.833   2.722  13.041 -0.8458 -2.4621 -0.1914
 8731TIP3   OH247607   4.837   4.062  12.429  0.6654  0.8880 -0.0875
 8731TIP3    H147608   4.772   4.052  12.499 -0.4423  0.6701 -1.1068
 8731TIP3    H247609   4.912   4.104  12.472  1.2051 -1.8316  1.8794
 8732TIP3   OH247610   3.240   1.853  15.936  0.4609  0.0820 -0.2858
 8732TIP3    H147611   3.230   1.941  15.973  0.4254  1.0545 -2.4280
 8732TIP3    H247612   3.325   1.856  15.892  2.6949 -2.5060  3.3036
 8733TIP3   OH247613   3.783   4.902  12.887  0.2625  0.1567  0.0433
 8733TIP3    H147614   3.706   4.898  12.943  0.2589  0.6942  0.0804
 8733TIP3    H247615   3.749   4.913  12.798  0.3225  2.8346  0.3003
 8734TIP3   OH247616   4.399   2.720   0.162  0.9169  0.8556 -0.2189
 8734TIP3    H147617   4.490   2.748   0.174  1.0585  0.0356  0.7546
 8734TIP3    H247618   4.355   2.746   0.243  0.6751 -0.2391  0.0172
 8735TIP3   OH247619   3.499   6.395  16.280  0.1770  0.1896  0.5138
 8735TIP3    H147620   3.587   6.431  16.293  0.0542  0.9468 -0.6166
 8735TIP3    H247621   3.511   6.326  16.214 -0.1082  0.4152  0.2280
 8736TIP3   OH247622   4.882   2.321  14.219 -0.2544 -0.0207  0.3468
 8736TIP3    H147623   4.948   2.266  14.261 -0.9715 -1.3366 -0.1719
 8736TIP3    H247624   4.843   2.371  14.291 -0.2422 -0.9017  0.9775
 8737TIP3   OH247625   0.174   3.849   5.728 -0.3316  0.2548 -0.0662
 8737TIP3    H147626   0.122   3.787   5.676  0.8293 -0.4107 -0.4672
 8737TIP3    H247627   0.204   3.913   5.664  1.4055 -0.7671 -0.3326
 8738TIP3   OH247628   4.207   0.416   2.570 -0.2642  0.1044  0.0825
 8738TIP3    H147629   4.261   0.453   2.500 -0.1046  0.2289  0.2679
 8738TIP3    H247630   4.118   0.445   2.550 -0.1562  0.4996  0.1670
 8739TIP3   OH247631   1.962   0.189  11.362 -0.1002 -0.1251  0.3122
 8739TIP3    H147632   2.034   0.126  11.371  1.3002  1.4159  0.4886
 8739TIP3    H247633   1.991   0.265  11.413 -2.0700  0.3902  0.7240
 8740TIP3   OH247634   2.190   0.320  15.727  0.0404 -0.8748  0.6446
 8740TIP3    H147635   2.111   0.372  15.739 -0.7747 -1.8229 -0.4842
 8740TIP3    H247636   2.248   0.349  15.798 -0.7556  0.8379  0.6370
 8741TIP3   OH247637   3.192   1.172  14.408 -0.2069  0.3842 -0.2516
 8741TIP3    H147638   3.162   1.085  14.435 -1.0691 -0.1367 -2.6510
 8741TIP3    H247639   3.159   1.231  14.475 -0.3763 -1.0249  0.9495
 8742TIP3   OH247640   5.235   4.652   1.010  0.1200  0.8224  0.0182
 8742TIP3    H147641   5.239   4.705   0.930  3.4819  1.5296  0.4845
 8742TIP3    H247642   5.216   4.716   1.079  0.7335  0.8592  0.1625
 8743TIP3   OH247643   5.641   2.222   6.281 -0.2433 -0.1155 -0.3605
 8743TIP3    H147644   5.713   2.277   6.251  0.5168 -1.2090 -0.5801
 8743TIP3    H247645   5.574   2.285   6.310  0.1864  0.9343 -1.5289
 8744TIP3   OH247646   3.746   5.622  12.205 -0.2506  0.1846 -0.5894
 8744TIP3    H147647   3.738   5.543  12.258 -3.5953  1.4542  1.0587
 8744TIP3    H247648   3.837   5.649  12.216  0.3819 -2.1672  0.6332
 8745TIP3   OH247649   0.702   1.581   5.194 -0.3308  0.2987  0.0447
 8745TIP3    H147650   0.788   1.608   5.161 -1.3943  1.2663 -2.1351
 8745TIP3    H247651   0.702   1.609   5.285  1.7154  0.1086  0.1529
 8746TIP3   OH247652   6.267   5.602  17.173 -0.6518  0.0741  0.1844
 8746TIP3    H147653   6.360   5.595  17.194 -0.3620 -0.2149 -1.1048
 8746TIP3    H247654   6.226   5.531  17.223 -0.4021  1.0122  1.7965
 8747TIP3   OH247655   0.221   2.953  13.534  0.3127 -0.5219  0.2406
 8747TIP3    H147656   0.305   2.944  13.488  0.5128  0.3703  0.4105
 8747TIP3    H247657   0.165   2.887  13.494  1.2305 -1.4437  0.4321
 8748TIP3   OH247658   0.756   1.416  16.934 -0.1907  0.1894 -0.1896
 8748TIP3    H147659   0.742   1.492  16.990  0.5633  0.3366 -0.1984
 8748TIP3    H247660   0.821   1.363  16.980 -1.8382 -1.2602  0.6047
 8749TIP3   OH247661   6.079   0.617   5.801 -0.0521 -0.5203  0.0035
 8749TIP3    H147662   6.071   0.523   5.817  1.0298 -0.4008  1.4300
 8749TIP3    H247663   6.172   0.636   5.814 -0.0413  0.5732 -1.3712
 8750TIP3   OH247664   4.213   2.535  16.884  0.0218 -0.2998  0.1097
 8750TIP3    H147665   4.305   2.534  16.909  0.2655  2.8669 -0.2612
 8750TIP3    H247666   4.213   2.514  16.790  0.4340  0.2201 -0.0094
 8751TIP3   OH247667   0.306   2.469  12.663  0.5316  0.1851 -0.1918
 8751TIP3    H147668   0.337   2.486  12.575  0.8394  0.4645 -0.0319
 8751TIP3    H247669   0.367   2.516  12.720  0.3629 -0.0276  0.1710
 8752TIP3   OH247670   2.595   5.820  16.961 -0.5395  0.3548 -0.0009
 8752TIP3    H147671   2.522   5.779  16.915 -0.9566  0.5803  0.4618
 8752TIP3    H247672   2.597   5.778  17.047  1.3277 -1.3301 -0.7846
 8753TIP3   OH247673   6.063   2.940  11.473  0.3018 -0.1333  0.3205
 8753TIP3    H147674   6.002   2.923  11.401  0.4459 -2.5163  0.6730
 8753TIP3    H247675   6.134   2.991  11.434  0.1456 -0.9770 -1.1208
 8754TIP3   OH247676   4.166   3.236  14.836 -0.0901 -0.3296 -0.4164
 8754TIP3    H147677   4.183   3.199  14.923  1.5513  0.3124 -0.4222
 8754TIP3    H247678   4.247   3.220  14.787 -0.8365 -0.3213 -1.7098
 8755TIP3   OH247679   0.819   4.079   3.178  0.1706  0.1331  0.2299
 8755TIP3    H147680   0.726   4.094   3.158  0.4523 -0.2002 -1.5093
 8755TIP3    H247681   0.824   3.986   3.199 -0.0378  0.3750  1.4539
 8756TIP3   OH247682   0.119   5.758   4.736 -0.3447 -0.0951  0.7404
 8756TIP3    H147683   0.205   5.715   4.737 -0.9910 -1.4935 -0.2234
 8756TIP3    H247684   0.057   5.687   4.722 -1.6204  0.9710  0.7799
 8757TIP3   OH247685   2.620   4.951  14.163 -0.7667  0.6493  0.7072
 8757TIP3    H147686   2.648   4.910  14.082 -2.2182  1.4426 -0.2424
 8757TIP3    H247687   2.701   4.966  14.212  0.0710 -0.3829 -0.3113
 8758TIP3   OH247688   6.251   0.205  14.600 -0.5978  0.3285 -0.6754
 8758TIP3    H147689   6.330   0.204  14.547  0.5147  2.4626  0.7976
 8758TIP3    H247690   6.216   0.116  14.593  1.3328 -0.3742 -2.2103
 8759TIP3   OH247691   0.676   1.867  13.548  0.6621  0.0060 -0.5130
 8759TIP3    H147692   0.720   1.891  13.466 -1.1398  0.6606 -1.3520
 8759TIP3    H247693   0.615   1.799  13.523 -0.0816  0.3810  0.2303
 8760TIP3   OH247694   6.026   6.523  16.245 -0.7188  0.1271 -0.4527
 8760TIP3    H147695   6.095   6.463  16.270 -0.8551 -0.1735 -0.7835
 8760TIP3    H247696   6.071   6.602  16.215 -0.4534 -0.5180 -1.8596
 8761TIP3   OH247697   1.794   3.198   2.023 -0.7326 -0.4086  0.0770
 8761TIP3    H147698   1.794   3.140   1.947 -0.3797  0.0791 -0.3005
 8761TIP3    H247699   1.736   3.155   2.086 -2.3791 -0.0014 -1.0952
 8762TIP3   OH247700   2.941   6.325   5.207  0.1647  0.0549 -0.2297
 8762TIP3    H147701   2.862   6.354   5.160  0.7160  0.1158 -1.1546
 8762TIP3    H247702   3.012   6.336   5.143  0.7670 -0.9983  0.2285
 8763TIP3   OH247703   0.345   3.074   0.826  0.1759  0.3731 -0.3428
 8763TIP3    H147704   0.346   3.143   0.892 -0.3069 -0.6973  0.8176
 8763TIP3    H247705   0.253   3.045   0.824  0.7709 -1.8503  0.9653
 8764TIP3   OH247706   6.429   5.780  11.388 -0.1627  0.1908  0.4374
 8764TIP3    H147707   6.401   5.869  11.409  0.6470  0.3888  0.7118
 8764TIP3    H247708   6.516   5.773  11.427  0.9846  0.2226 -1.9603
 8765TIP3   OH247709   5.689   3.449  17.015 -0.2048 -0.3172  0.1966
 8765TIP3    H147710   5.763   3.389  17.028  0.1171  0.1068  0.3161
 8765TIP3    H247711   5.636   3.439  17.095 -0.6660 -1.1529 -0.1937
 8766TIP3   OH247712   5.885   3.557   3.669 -0.4540  0.3361 -0.5407
 8766TIP3    H147713   5.852   3.494   3.733 -0.2399 -0.1983 -0.9571
 8766TIP3    H247714   5.810   3.575   3.613 -0.1630 -0.5631 -1.2329
 8767TIP3   OH247715   2.045   5.112   5.332 -0.1962 -0.1203 -0.1443
 8767TIP3    H147716   2.090   5.185   5.289  0.1403 -0.0654  0.2919
 8767TIP3    H247717   2.040   5.044   5.265 -0.1184  0.1438 -0.4201
 8768TIP3   OH247718   3.613   3.065  11.460  0.2791 -0.1338  0.8817
 8768TIP3    H147719   3.679   3.068  11.529  1.6103 -1.3696 -0.2722
 8768TIP3    H247720   3.652   3.114  11.388 -0.2290 -0.5415  0.3209
 8769TIP3   OH247721   0.192   5.051   2.603 -0.0790 -0.0872 -0.5649
 8769TIP3    H147722   0.271   5.058   2.549 -0.0902  0.7385 -0.4877
 8769TIP3    H247723   0.120   5.053   2.539 -0.0330 -1.1642 -0.6582
 8770TIP3   OH247724   1.894   3.308  13.918 -0.4461  0.2257  0.0275
 8770TIP3    H147725   1.967   3.334  13.974 -0.0408 -0.2907 -0.2561
 8770TIP3    H247726   1.901   3.366  13.842 -0.6533  0.5375  0.2435
 8771TIP3   OH247727   2.213   0.537   0.900 -0.1924 -0.3312  0.5041
 8771TIP3    H147728   2.185   0.449   0.927  1.9921 -0.5308  2.4155
 8771TIP3    H247729   2.246   0.577   0.980  0.8360  1.4545 -0.7479
 8772TIP3   OH247730   5.310   4.794   6.764  0.0261 -0.2221  0.5696
 8772TIP3    H147731   5.291   4.836   6.680  0.3954 -0.5337  0.3233
 8772TIP3    H247732   5.350   4.862   6.817 -0.7983  0.1561  0.7255
 8773TIP3   OH247733   3.442   3.530  13.416  0.4521 -0.2362 -0.0851
 8773TIP3    H147734   3.469   3.536  13.508 -0.0108 -0.8163  0.0974
 8773TIP3    H247735   3.429   3.437  13.401 -3.3913  0.0429  0.4526
 8774TIP3   OH247736   0.775   5.580  11.244 -0.2002 -0.3992 -0.0992
 8774TIP3    H147737   0.838   5.514  11.273 -0.8453 -0.2147  1.8344
 8774TIP3    H247738   0.696   5.563  11.296 -0.4533  1.7440  0.2937
 8775TIP3   OH247739   5.761   1.833  16.891  0.5188 -0.5324 -0.1547
 8775TIP3    H147740   5.745   1.882  16.810 -0.9889  0.8287  0.9025
 8775TIP3    H247741   5.796   1.898  16.951 -2.7394 -0.2916  1.6993
 8776TIP3   OH247742   0.578   1.247   6.014  0.6481 -0.4538  0.1824
 8776TIP3    H147743   0.510   1.180   6.021 -0.0218  0.3036  1.1922
 8776TIP3    H247744   0.592   1.277   6.104  1.0300  0.6653 -0.2351
 8777TIP3   OH247745   1.355   3.199   3.997 -0.5782  0.0513 -0.1594
 8777TIP3    H147746   1.389   3.185   4.086  0.0761  2.8560  0.1035
 8777TIP3    H247747   1.282   3.260   4.009 -1.4170 -0.6467 -1.4603
 8778TIP3   OH247748   2.704   3.383  12.727 -0.0042  0.1926 -0.4971
 8778TIP3    H147749   2.794   3.379  12.693  0.3243  0.8408  0.2621
 8778TIP3    H247750   2.712   3.433  12.808 -0.8572 -0.8431  0.2512
 8779TIP3   OH247751   0.619   6.222  10.299  0.2282  0.2823 -0.1980
 8779TIP3    H147752   0.541   6.217  10.356  0.5496  0.1920  0.2423
 8779TIP3    H247753   0.640   6.316  10.297  0.0977  0.3087 -0.3292
 8780TIP3   OH247754   4.960   5.697   3.248 -0.0667  0.2511  0.1596
 8780TIP3    H147755   4.989   5.756   3.179 -0.9622  0.7952  0.2236
 8780TIP3    H247756   5.034   5.639   3.263 -0.2686 -0.7105 -2.1244
 8781TIP3   OH247757   5.988   6.243   0.698 -0.6729  0.3632 -0.5663
 8781TIP3    H147758   5.951   6.167   0.653 -0.4211 -0.1213  0.0460
 8781TIP3    H247759   6.072   6.259   0.654  0.0422 -0.7235  0.3669
 8782TIP3   OH247760   3.797   4.271  12.559 -0.0531 -0.8761 -0.3652
 8782TIP3    H147761   3.849   4.248  12.481  0.9594  1.2664 -0.3915
 8782TIP3    H247762   3.854   4.250  12.633  0.1003 -0.3629 -0.3287
 8783TIP3   OH247763   6.314   1.152  15.381 -0.3388 -0.0720  0.1503
 8783TIP3    H147764   6.316   1.083  15.447  1.1789  0.0576  0.2625
 8783TIP3    H247765   6.257   1.117  15.312  0.5378 -1.5216  0.1222
 8784TIP3   OH247766   3.141   3.150   2.339  0.2409 -0.3345  0.3624
 8784TIP3    H147767   3.128   3.055   2.341  0.9422 -0.4265  2.3997
 8784TIP3    H247768   3.232   3.160   2.310 -0.0652 -0.2300 -0.5978
 8785TIP3   OH247769   5.056   4.408   3.997  0.1160  0.0001 -0.0532
 8785TIP3    H147770   5.066   4.481   3.937 -2.5389  0.4322 -0.0930
 8785TIP3    H247771   5.103   4.435   4.076 -1.0431  1.9242  0.0379
 8786TIP3   OH247772   2.577   4.001  12.091  0.1421 -0.1861  0.0174
 8786TIP3    H147773   2.598   4.077  12.145 -0.7760  0.1008 -0.0217
 8786TIP3    H247774   2.657   3.985  12.041  0.7209  0.0625  0.8382
 8787TIP3   OH247775   0.619   1.359  13.070  0.0228 -0.2867  0.0816
 8787TIP3    H147776   0.618   1.328  12.980 -0.4077 -4.1052  1.2212
 8787TIP3    H247777   0.712   1.360  13.093  0.1449  0.8436 -0.4040
 8788TIP3   OH247778   4.301   0.798  17.172 -0.8297  0.7999  0.1146
 8788TIP3    H147779   4.314   0.718  17.120  2.4765 -0.2610  2.2440
 8788TIP3    H247780   4.315   0.770  17.263 -3.4404  3.1273  1.3657
 8789TIP3   OH247781   0.003   2.514  14.637  0.1096 -0.5994  0.1264
 8789TIP3    H147782  -0.060   2.580  14.664  0.8087 -0.2696  1.0220
 8789TIP3    H247783  -0.021   2.435  14.686 -0.8527 -1.0917 -1.0995
 8790TIP3   OH247784   5.105   1.442   2.646  0.4739  0.5570  0.1113
 8790TIP3    H147785   5.045   1.388   2.595 -1.3110  1.5655  1.0570
 8790TIP3    H247786   5.150   1.379   2.703 -0.6037 -0.0945  0.2786
 8791TIP3   OH247787   1.106   0.204   3.576  0.2018 -0.1796  0.2381
 8791TIP3    H147788   1.038   0.137   3.582  0.0377 -0.2036 -1.4091
 8791TIP3    H247789   1.059   0.287   3.571  0.3604 -0.0449  0.9241
 8792TIP3   OH247790   3.628   1.732  14.115 -0.5428 -0.2113 -0.2529
 8792TIP3    H147791   3.637   1.643  14.080  0.3285 -0.7711  1.3042
 8792TIP3    H247792   3.716   1.769  14.111 -0.2151 -0.5849  1.9542
 8793TIP3   OH247793   0.196   1.546  16.000  0.4950  0.3831 -0.4119
 8793TIP3    H147794   0.146   1.616  16.042  0.1121  0.2857 -0.6937
 8793TIP3    H247795   0.278   1.587  15.974  0.4652  0.6080 -0.1483
 8794TIP3   OH247796   2.445   5.981  14.881 -0.1652 -0.1947 -0.1008
 8794TIP3    H147797   2.375   5.962  14.819  1.3321 -0.2016 -1.8576
 8794TIP3    H247798   2.520   5.932  14.848  0.8639  0.3278  1.3726
 8795TIP3   OH247799   0.849   1.069   0.811  0.2449 -0.1943  0.1828
 8795TIP3    H147800   0.804   1.152   0.827  0.4052 -0.2256  0.8154
 8795TIP3    H247801   0.783   1.015   0.768  0.5118  0.6701 -1.3801
 8796TIP3   OH247802   0.918   0.823   3.702 -0.3886 -0.4696  0.3612
 8796TIP3    H147803   0.990   0.797   3.759 -1.7655 -4.6202  0.5601
 8796TIP3    H247804   0.851   0.856   3.761 -0.2420 -0.7595  0.6914
 8797TIP3   OH247805   4.087   4.850  16.366 -0.6089 -0.0232  0.1781
 8797TIP3    H147806   4.025   4.903  16.417  0.0765  0.9817 -0.0036
 8797TIP3    H247807   4.173   4.876  16.398 -0.2002  0.0488 -0.9511
 8798TIP3   OH247808   4.771   4.909   6.339 -0.2953  0.1384 -0.7314
 8798TIP3    H147809   4.854   4.941   6.304  0.1567 -1.0581 -0.7975
 8798TIP3    H247810   4.731   4.986   6.380  0.8904  0.7083 -0.6031
 8799TIP3   OH247811   5.815   2.390   2.843 -0.3549  0.1911  0.1425
 8799TIP3    H147812   5.903   2.399   2.807 -0.3473  0.2377  0.1728
 8799TIP3    H247813   5.817   2.307   2.892 -0.4624 -0.0440 -0.2453
 8800TIP3   OH247814   0.987   1.840   1.386 -0.2599  0.5155  0.0883
 8800TIP3    H147815   1.076   1.825   1.418 -0.1412 -1.3135 -0.9854
 8800TIP3    H247816   0.949   1.901   1.450  2.5127  3.3990 -0.7126
 8801TIP3   OH247817   4.385   6.379   5.452 -0.4452  0.2139 -0.1331
 8801TIP3    H147818   4.298   6.343   5.467 -0.5087 -0.7139 -2.3960
 8801TIP3    H247819   4.442   6.328   5.509 -0.9613 -1.5279 -1.0972
 8802TIP3   OH247820   4.801   6.471  13.933  0.1161  0.2595 -0.1586
 8802TIP3    H147821   4.875   6.463  13.873 -0.6058 -1.0164 -0.9384
 8802TIP3    H247822   4.728   6.497  13.876 -0.7651 -1.7831 -0.0270
 8803TIP3   OH247823   2.692   1.490   0.187  0.1416  0.0172 -0.3836
 8803TIP3    H147824   2.697   1.493   0.092  1.3671 -1.7502 -0.4138
 8803TIP3    H247825   2.773   1.446   0.215 -1.3586 -1.9229  1.2777
 8804TIP3   OH247826   2.634   6.359  12.835  0.0646 -0.4132  0.4876
 8804TIP3    H147827   2.647   6.273  12.873 -0.6756 -0.8940 -0.3254
 8804TIP3    H247828   2.539   6.368  12.828  0.0204  1.2011  2.1885
 8805TIP3   OH247829   1.549   0.315   4.542 -0.4131 -0.4682 -0.1125
 8805TIP3    H147830   1.465   0.286   4.505  0.5538 -1.8412 -1.3529
 8805TIP3    H247831   1.599   0.345   4.467  0.3639 -0.0644  0.5530
 8806TIP3   OH247832   6.616   4.666   0.238 -0.1990  0.6238  0.0160
 8806TIP3    H147833   6.686   4.604   0.220  1.4158  2.6431 -1.0472
 8806TIP3    H247834   6.540   4.611   0.260  1.2464 -1.6627 -0.3987
 8807TIP3   OH247835   3.629   0.590  11.941 -0.0431  0.2103  0.4689
 8807TIP3    H147836   3.565   0.551  12.001  1.8075 -0.7628  1.9370
 8807TIP3    H247837   3.597   0.680  11.927 -0.6499  0.4491  2.8441
 8808TIP3   OH247838   6.250   3.115  11.398 -0.0782  0.0007 -0.0622
 8808TIP3    H147839   6.308   3.188  11.421  0.3814 -0.3479 -0.0950
 8808TIP3    H247840   6.193   3.150  11.330 -0.7386  0.7276  0.8372
 8809TIP3   OH247841   5.524   0.529  13.462 -0.7575 -0.1130 -0.1646
 8809TIP3    H147842   5.496   0.543  13.552 -0.9702  0.4721 -0.3171
 8809TIP3    H247843   5.591   0.595  13.446 -1.3799  0.3992 -0.7201
 8810TIP3   OH247844   1.985   0.155   2.706 -0.0674 -0.0977  0.2648
 8810TIP3    H147845   1.973   0.071   2.752 -0.1979 -0.5294 -0.5393
 8810TIP3    H247846   2.068   0.189   2.740  0.6995 -1.2199 -0.3977
 8811TIP3   OH247847   3.595   6.107  16.016 -0.4262 -0.8183 -0.1523
 8811TIP3    H147848   3.663   6.095  15.949  0.1608 -2.4696  0.7065
 8811TIP3    H247849   3.644   6.127  16.096 -0.9985 -1.0625  0.2615
 8812TIP3   OH247850   6.117   5.379   3.416 -0.2785 -0.2820  0.3981
 8812TIP3    H147851   6.141   5.397   3.325  0.9189  0.9648  0.9208
 8812TIP3    H247852   6.162   5.298   3.438  1.2254  0.5482  0.4996
 8813TIP3   OH247853   6.372   2.539   3.278  0.6946 -0.0251  0.1341
 8813TIP3    H147854   6.351   2.445   3.280  1.0185 -0.0992  0.2392
 8813TIP3    H247855   6.410   2.556   3.364 -0.5467  0.4920  0.5970
 8814TIP3   OH247856   2.819   2.680  11.747  0.6863  0.2190 -0.0107
 8814TIP3    H147857   2.766   2.605  11.721 -1.2919  1.5023  0.0830
 8814TIP3    H247858   2.783   2.707  11.832  2.5127  0.2666  0.8133
 8815TIP3   OH247859   2.350   4.506  15.442  0.0113  0.1037 -0.5652
 8815TIP3    H147860   2.259   4.490  15.420  0.1644 -0.9440 -0.4698
 8815TIP3    H247861   2.353   4.500  15.537 -0.0285  1.3237 -0.4685
 8816TIP3   OH247862   5.940   4.980  15.626 -0.7159 -0.1669 -0.4969
 8816TIP3    H147863   5.856   4.965  15.670 -1.4827 -0.9561 -2.1292
 8816TIP3    H247864   5.920   4.970  15.532  1.2023 -0.3766 -0.9287
 8817TIP3   OH247865   3.122   5.361   5.325 -0.8490  0.8721 -0.2459
 8817TIP3    H147866   3.080   5.278   5.346  0.7371  0.4981  1.8322
 8817TIP3    H247867   3.063   5.428   5.359 -1.3568  0.5327 -0.4498
 8818TIP3   OH247868   3.877   4.268  11.761  0.1751  0.4379 -0.5248
 8818TIP3    H147869   3.862   4.290  11.669 -0.4025  1.8506 -0.1291
 8818TIP3    H247870   3.854   4.348  11.808  1.3160  0.0301  0.7812
 8819TIP3   OH247871   4.512   1.726   3.218 -0.3334  0.2159  0.4873
 8819TIP3    H147872   4.536   1.757   3.131  0.9992  0.2667  0.8574
 8819TIP3    H247873   4.451   1.792   3.251 -1.1959 -0.0282 -0.5634
 8820TIP3   OH247874   5.554   1.505   5.364  0.4714  0.0260 -0.6106
 8820TIP3    H147875   5.527   1.436   5.304  0.9768 -0.5645 -0.1734
 8820TIP3    H247876   5.604   1.566   5.310 -0.3850  0.3136 -1.0984
 8821TIP3   OH247877   0.685   1.621   2.770 -0.3877  0.4558 -0.0601
 8821TIP3    H147878   0.747   1.570   2.718 -0.1272  0.3017  0.3980
 8821TIP3    H247879   0.603   1.615   2.721 -0.7254 -1.5429  0.6423
 8822TIP3   OH247880   5.049   5.156   1.724  0.0488 -0.5779 -0.4033
 8822TIP3    H147881   4.996   5.129   1.799  1.4675 -0.2316  0.7502
 8822TIP3    H247882   5.126   5.198   1.761 -0.1538  1.4912 -2.0850
 8823TIP3   OH247883   6.662   4.379   3.761 -0.2099  0.1291 -0.4013
 8823TIP3    H147884   6.569   4.404   3.761  0.1802  1.6804  0.3248
 8823TIP3    H247885   6.702   4.438   3.697  0.2416 -0.7425 -0.9390
 8824TIP3   OH247886   1.495   4.713  13.689  0.5538 -0.2733  0.3725
 8824TIP3    H147887   1.537   4.760  13.617  1.1226 -0.2288  0.7252
 8824TIP3    H247888   1.551   4.731  13.765 -0.0775 -0.2575  0.8401
 8825TIP3   OH247889   4.834   0.121  13.114 -0.3414  0.5569 -0.0455
 8825TIP3    H147890   4.924   0.151  13.125 -0.6549  1.8179 -0.7012
 8825TIP3    H247891   4.842   0.026  13.103  0.6699  0.2887  2.3952
 8826TIP3   OH247892   2.684   1.698   2.330  0.3340 -0.4289  0.0553
 8826TIP3    H147893   2.732   1.616   2.342  1.3335 -0.0174 -0.8972
 8826TIP3    H247894   2.745   1.766   2.359  0.6689  0.1541 -1.8600
 8827TIP3   OH247895   2.877   0.268   1.886  0.3777 -0.1296  0.4959
 8827TIP3    H147896   2.839   0.223   1.811  2.5878 -1.4353  0.0840
 8827TIP3    H247897   2.806   0.271   1.951 -1.1524 -0.1852 -1.0937
 8828TIP3   OH247898   3.600   4.130  15.874  0.1659 -0.0528  0.2438
 8828TIP3    H147899   3.651   4.086  15.806  1.1288 -0.9984  1.5232
 8828TIP3    H247900   3.521   4.159  15.830 -0.3501 -2.7475 -0.8001
 8829TIP3   OH247901   1.276   0.882  15.319 -0.2065  0.0226 -0.2846
 8829TIP3    H147902   1.235   0.889  15.233  0.0060  0.4040 -0.3556
 8829TIP3    H247903   1.235   0.951  15.371  1.3708  1.3629 -0.7730
 8830TIP3   OH247904   1.741   5.198   4.824 -0.1460 -0.1001 -0.5494
 8830TIP3    H147905   1.791   5.151   4.758 -0.4647 -2.3838  0.7412
 8830TIP3    H247906   1.650   5.187   4.796 -0.1730  0.6321 -0.7660
 8831TIP3   OH247907   6.606   6.652  16.158  0.5328 -0.9092 -0.0263
 8831TIP3    H147908   6.689   6.685  16.195  0.3511  1.5582 -1.5901
 8831TIP3    H247909   6.621   6.649  16.064 -1.4843  0.7481 -0.4709
 8832TIP3   OH247910   0.123   5.390   0.617  0.5035 -0.2141  0.3656
 8832TIP3    H147911   0.138   5.469   0.670  0.0008 -0.9161  1.5839
 8832TIP3    H247912   0.205   5.342   0.623  0.3366 -0.4516  0.7972
 8833TIP3   OH247913   3.950   6.738   0.544 -0.1523 -0.3443 -0.0858
 8833TIP3    H147914   3.935   6.645   0.526 -0.9064 -0.1767 -0.3907
 8833TIP3    H247915   3.930   6.748   0.637  1.1040 -0.7054  0.2358
 8834TIP3   OH247916   4.078   1.914  12.063 -0.4539  0.6865 -0.2410
 8834TIP3    H147917   4.094   1.919  12.157 -1.1491  2.6080 -0.1928
 8834TIP3    H247918   4.148   1.858  12.030 -0.2423 -0.0896  1.4159
 8835TIP3   OH247919   0.536   0.080   4.135 -0.5914 -0.2671  0.9218
 8835TIP3    H147920   0.469   0.012   4.151 -0.0936 -0.7100  1.1626
 8835TIP3    H247921   0.506   0.155   4.185 -1.8739  0.1763 -0.4360
 8836TIP3   OH247922   2.008   5.421   3.038  0.0340  0.3419  0.1380
 8836TIP3    H147923   2.010   5.348   3.100 -0.2524  0.7584  0.6525
 8836TIP3    H247924   1.915   5.436   3.023  0.1047  0.0717 -0.6145
 8837TIP3   OH247925   4.382   6.029  11.683  0.0376 -0.8652 -0.3685
 8837TIP3    H147926   4.361   6.122  11.696 -0.4168 -1.0884  0.6119
 8837TIP3    H247927   4.441   6.008  11.756 -1.6899 -1.9042  0.8286
 8838TIP3   OH247928   2.236   3.259  12.586 -0.7097 -0.2616  0.3499
 8838TIP3    H147929   2.310   3.286  12.532 -0.9824  1.1509  0.6672
 8838TIP3    H247930   2.203   3.180  12.542  0.1809 -0.1750 -0.5167
 8839TIP3   OH247931   6.252   6.191  12.338 -0.1513  0.5210  0.1842
 8839TIP3    H147932   6.265   6.119  12.276 -1.8740  0.0017  0.3769
 8839TIP3    H247933   6.160   6.184  12.364 -0.0286  2.0573  1.1483
 8840TIP3   OH247934   5.538   4.829   0.856  0.6439 -0.2350 -0.2353
 8840TIP3    H147935   5.606   4.782   0.904 -0.3439  0.6101  2.1329
 8840TIP3    H247936   5.540   4.917   0.893 -0.4204  0.3675 -1.5411
 8841TIP3   OH247937   5.380   4.361  12.649 -0.7466  0.2178  0.2395
 8841TIP3    H147938   5.357   4.284  12.597 -0.5855 -0.3626  1.0298
 8841TIP3    H247939   5.348   4.342  12.737 -0.7623  1.0805  0.4274
 8842TIP3   OH247940   3.500   2.642  12.205 -0.0782  0.1920  0.3765
 8842TIP3    H147941   3.536   2.649  12.116 -1.2547 -0.9166 -0.2083
 8842TIP3    H247942   3.492   2.548  12.221 -1.5856  0.3860  0.9395
 8843TIP3   OH247943   5.174   2.752  14.811  0.1632 -0.0683  0.4325
 8843TIP3    H147944   5.089   2.793  14.829  0.6851  0.7883  1.0775
 8843TIP3    H247945   5.235   2.803  14.864  1.0062 -1.0048  0.3718
 8844TIP3   OH247946   2.718   0.956  11.146  0.2755 -0.2002  1.2199
 8844TIP3    H147947   2.802   0.999  11.131  0.3089 -0.5566  0.3309
 8844TIP3    H247948   2.731   0.866  11.118 -0.2201 -0.4238  1.6847
 8845TIP3   OH247949   5.622   1.406   4.773 -0.0278 -0.1140  0.6161
 8845TIP3    H147950   5.711   1.423   4.743 -0.0188  2.3285  1.7802
 8845TIP3    H247951   5.566   1.444   4.706 -0.1424 -0.0392  0.7518
 8846TIP3   OH247952   2.884   1.567  15.361 -0.4988 -0.2195  0.3405
 8846TIP3    H147953   2.925   1.652  15.377  1.3934 -1.1233  0.5476
 8846TIP3    H247954   2.927   1.534  15.283 -1.4374 -0.8662  0.0906
 8847TIP3   OH247955   2.954   6.682  12.429 -0.1441 -0.4958 -0.2241
 8847TIP3    H147956   3.033   6.720  12.389 -0.1690 -1.9436 -1.7246
 8847TIP3    H247957   2.883   6.739  12.401  0.3637  1.0916  1.5140
 8848TIP3   OH247958   1.154   3.879   4.074  0.6596 -0.3402  0.0839
 8848TIP3    H147959   1.090   3.875   4.145 -1.0683  1.1169 -1.2983
 8848TIP3    H247960   1.102   3.869   3.994  2.4779 -1.4011 -1.0295
 8849TIP3   OH247961   0.634   1.099  12.596 -0.1383 -0.4251 -0.1813
 8849TIP3    H147962   0.650   1.085  12.502  2.1127 -2.6216  0.4432
 8849TIP3    H247963   0.721   1.114  12.633 -0.9803  0.2681  1.6157
 8850TIP3   OH247964   1.297   3.152  13.238  0.7613 -0.1538 -0.7790
 8850TIP3    H147965   1.232   3.200  13.187 -0.2572 -0.7275 -0.0529
 8850TIP3    H247966   1.376   3.206  13.234 -0.3257  1.5452 -0.0390
 8851TIP3   OH247967   6.044   4.299  15.168  0.2433  0.2327  0.2144
 8851TIP3    H147968   6.010   4.210  15.155  1.1150  0.0605 -1.0772
 8851TIP3    H247969   6.088   4.296  15.252 -1.3541 -0.0249  1.0844
 8852TIP3   OH247970   0.440   1.672  10.357 -0.2349  0.4061 -0.5743
 8852TIP3    H147971   0.506   1.603  10.363 -2.5519 -2.2610 -2.7612
 8852TIP3    H247972   0.364   1.637  10.403 -1.2378  1.9156 -0.9917
 8853TIP3   OH247973   3.131   4.017  12.957 -0.4821 -0.4851 -0.7172
 8853TIP3    H147974   3.135   3.928  12.992  0.4218 -0.4630 -0.7290
 8853TIP3    H247975   3.139   4.005  12.862 -1.0787 -0.4360 -0.7712
 8854TIP3   OH247976   1.589   5.138  15.995  0.0284  0.0023  0.2000
 8854TIP3    H147977   1.508   5.141  16.046  0.8129 -1.9258  1.6746
 8854TIP3    H247978   1.639   5.214  16.023 -0.8159  0.6166  0.0588
 8855TIP3   OH247979   3.117   2.506  16.696 -0.0595  0.0538 -0.7733
 8855TIP3    H147980   3.098   2.559  16.773 -2.8795  0.9205 -1.9123
 8855TIP3    H247981   3.034   2.461  16.677 -0.0265  1.1420 -4.2090
 8856TIP3   OH247982   5.530   3.146  10.501  0.2139 -0.1874 -0.1833
 8856TIP3    H147983   5.488   3.147  10.587 -0.2498 -0.3044 -0.4060
 8856TIP3    H247984   5.553   3.055  10.487  2.9596  0.2334  1.0852
 8857TIP3   OH247985   0.119   4.487  13.097 -0.1276  0.9041 -1.0193
 8857TIP3    H147986   0.162   4.470  13.181  1.6994  1.6897 -1.7377
 8857TIP3    H247987   0.065   4.409  13.082  1.0730 -0.1671 -0.0560
 8858TIP3   OH247988   3.866   4.758   3.076 -0.4912 -0.0430 -0.4818
 8858TIP3    H147989   3.814   4.691   3.031 -0.1131  0.1780 -1.2618
 8858TIP3    H247990   3.933   4.783   3.013 -1.5054  2.1553 -0.7682
 8859TIP3   OH247991   0.972   2.773  13.468  0.7529 -0.0572  0.4432
 8859TIP3    H147992   0.920   2.844  13.431 -0.9447 -0.1319  2.5349
 8859TIP3    H247993   1.009   2.728  13.392 -0.4349  1.3559 -1.0213
 8860TIP3   OH247994   0.114   4.849   2.119  0.5400 -0.3001 -0.0615
 8860TIP3    H147995   0.187   4.790   2.138 -1.0088 -2.0615  0.8765
 8860TIP3    H247996   0.131   4.883   2.032  3.3707  0.8151  0.8322
 8861TIP3   OH247997   3.687   0.422  15.713  0.8706  0.1788  0.0557
 8861TIP3    H147998   3.745   0.381  15.649 -0.0686 -1.6585  0.3285
 8861TIP3    H247999   3.670   0.354  15.778 -0.7109  1.0309  0.5845
 8862TIP3   OH248000   2.062   2.388  11.796  0.3269  0.0730  0.1134
 8862TIP3    H148001   2.036   2.313  11.849  0.7024 -0.4092 -0.3871
 8862TIP3    H248002   2.091   2.351  11.713 -2.5307  0.9418 -1.3992
 8863TIP3   OH248003   3.467   5.957  12.030 -0.0388 -0.1697  0.2320
 8863TIP3    H148004   3.450   5.864  12.016  1.1765 -0.0906 -2.2119
 8863TIP3    H248005   3.450   5.998  11.945 -0.7121  1.9020  1.2928
 8864TIP3   OH248006   4.283   0.794  12.828 -0.9405  0.1290  0.1484
 8864TIP3    H148007   4.233   0.732  12.774  0.1544  0.7138 -1.6418
 8864TIP3    H248008   4.372   0.761  12.825 -0.5762  1.0764  0.2474
 8865TIP3   OH248009   5.500   5.160  13.105  0.5693  0.1053  0.8126
 8865TIP3    H148010   5.479   5.148  13.012  0.1358 -0.0154  0.9244
 8865TIP3    H248011   5.461   5.084  13.148  1.6911 -0.3986  0.9689
 8866TIP3   OH248012   4.022   3.356  11.445 -0.4386 -0.3170  0.1733
 8866TIP3    H148013   3.983   3.282  11.397 -0.8903  1.2173 -1.9479
 8866TIP3    H248014   4.112   3.328  11.462 -0.8333 -1.6865  0.1478
 8867TIP3   OH248015   1.845   1.084   0.233 -0.0480 -0.2238  0.0943
 8867TIP3    H148016   1.754   1.071   0.207 -0.5442 -0.0130  1.6151
 8867TIP3    H248017   1.852   1.177   0.254  0.6014 -0.1773 -0.2884
 8868TIP3   OH248018   2.516   3.163  12.302  0.0963  0.0608  0.3767
 8868TIP3    H148019   2.549   3.252  12.321  0.5671  0.4347 -1.9475
 8868TIP3    H248020   2.460   3.174  12.226 -1.1079 -1.4449  1.0063
 8869TIP3   OH248021   6.660   4.320   4.230  0.1840  0.2078 -0.9056
 8869TIP3    H148022   6.723   4.344   4.297 -1.5218  0.0726  0.8160
 8869TIP3    H248023   6.669   4.389   4.163  1.2095  0.9097 -0.0696
 8870TIP3   OH248024   6.205   6.515   1.806 -0.7185 -0.0707  0.0087
 8870TIP3    H148025   6.248   6.461   1.740 -0.7624  0.1671 -0.2168
 8870TIP3    H248026   6.159   6.452   1.862  0.6267 -0.3974  0.7888
 8871TIP3   OH248027   0.581   6.056   2.444 -0.3026  0.3620  0.1996
 8871TIP3    H148028   0.515   6.118   2.413 -0.7416 -0.1834 -0.0017
 8871TIP3    H248029   0.571   6.055   2.539  0.0832  1.0014  0.2475
 8872TIP3   OH248030   6.645   2.106  13.927  0.0165 -0.0722 -0.0096
 8872TIP3    H148031   6.703   2.035  13.953 -1.8277 -1.7012 -0.1121
 8872TIP3    H248032   6.689   2.186  13.958  2.6344 -1.1155 -0.7926
 8873TIP3   OH248033   0.188   3.010   3.762  0.5136  0.3917 -0.2731
 8873TIP3    H148034   0.203   2.916   3.750  0.5327  0.3972 -0.2920
 8873TIP3    H248035   0.271   3.044   3.796  0.4358  0.3633 -0.0532
 8874TIP3   OH248036   1.220   6.452  10.821  0.3895  0.1914  0.4695
 8874TIP3    H148037   1.165   6.384  10.782  0.6087  0.6675 -0.7172
 8874TIP3    H248038   1.260   6.410  10.897 -1.4714 -0.2202  1.3004
 8875TIP3   OH248039   5.029   1.529   2.113 -0.3317  0.4016  0.1208
 8875TIP3    H148040   4.946   1.577   2.107 -0.0431  1.0041  0.7795
 8875TIP3    H248041   5.018   1.455   2.053 -1.1405  0.7705 -0.2053
 8876TIP3   OH248042   6.514   1.195  13.298  0.0466 -0.2711 -0.4946
 8876TIP3    H148043   6.568   1.128  13.255 -0.8358 -0.6424 -1.0426
 8876TIP3    H248044   6.547   1.278  13.263  1.1561 -0.3999  0.1998
 8877TIP3   OH248045   2.418   2.456  12.385  0.5033  0.2581 -0.1916
 8877TIP3    H148046   2.435   2.442  12.478  1.7561 -0.2174 -0.4725
 8877TIP3    H248047   2.332   2.498  12.382  0.6537  0.7097  1.2072
 8878TIP3   OH248048   3.483   3.510   4.201 -0.4767 -0.1278 -0.1578
 8878TIP3    H148049   3.566   3.551   4.177  1.0286 -1.7199  1.9484
 8878TIP3    H248050   3.419   3.550   4.142  1.7650  1.0829 -1.9564
 8879TIP3   OH248051   4.373   1.712  15.613  0.3964 -0.0693 -0.3825
 8879TIP3    H148052   4.381   1.734  15.705  0.7479 -0.5039 -0.3057
 8879TIP3    H248053   4.298   1.763  15.582 -0.0431 -0.3129  0.2637
 8880TIP3   OH248054   0.007   5.473   5.301 -0.4984 -0.3182 -0.0495
 8880TIP3    H148055  -0.050   5.544   5.330 -0.9266 -0.9055  0.5658
 8880TIP3    H248056  -0.004   5.471   5.206 -0.6834  0.2632 -0.0468
 8881TIP3   OH248057   4.937   5.537  11.507 -0.1682 -0.1368 -0.0386
 8881TIP3    H148058   5.010   5.589  11.540  0.6038 -1.1405 -0.1139
 8881TIP3    H248059   4.939   5.551  11.412  1.0869 -1.5695 -0.2560
 8882TIP3   OH248060   1.503   6.610  13.817  0.1999 -0.0250 -0.1745
 8882TIP3    H148061   1.582   6.589  13.868  1.0905 -1.3817 -2.0226
 8882TIP3    H248062   1.527   6.688  13.767 -0.1655  0.4417  0.3675
 8883TIP3   OH248063   2.366   4.168  15.518 -0.3476 -0.5490 -0.1627
 8883TIP3    H148064   2.414   4.172  15.601 -0.8005  0.6343  0.0727
 8883TIP3    H248065   2.372   4.257  15.483 -1.5845 -0.5981 -0.5663
 8884TIP3   OH248066   3.594   3.600   1.367 -0.2714 -0.0463  0.0238
 8884TIP3    H148067   3.519   3.634   1.416 -0.6071  0.0689 -0.5583
 8884TIP3    H248068   3.669   3.650   1.400 -0.7366  1.2191 -0.7350
 8885TIP3   OH248069   0.952   1.449  15.110  0.0199 -0.1861  0.5643
 8885TIP3    H148070   0.875   1.504  15.125 -1.6219 -1.9414 -0.8109
 8885TIP3    H248071   0.917   1.373  15.064  2.8029 -0.5025 -1.2231
 8886TIP3   OH248072   4.328   5.170   1.278  0.1608 -0.2235  0.1023
 8886TIP3    H148073   4.396   5.114   1.317 -1.1714 -2.2749 -0.3883
 8886TIP3    H248074   4.260   5.109   1.249 -1.1864  1.6432 -0.8649
 8887TIP3   OH248075   5.237   3.767  11.996 -0.6109 -0.5731  0.3443
 8887TIP3    H148076   5.284   3.723  12.067  1.3068 -0.9679 -1.0969
 8887TIP3    H248077   5.267   3.858  12.000  1.4069 -1.0791 -1.3496
 8888TIP3   OH248078   3.603   5.937  13.864 -0.1954  0.0243 -0.3120
 8888TIP3    H148079   3.618   5.893  13.780 -0.3410 -0.7987  0.0776
 8888TIP3    H248080   3.675   5.907  13.920 -1.0703 -0.8581  0.3858
 8889TIP3   OH248081   6.689   0.428   5.267  0.1128  0.1743 -0.6380
 8889TIP3    H148082   6.714   0.508   5.313 -0.1853 -0.0069 -0.1459
 8889TIP3    H248083   6.700   0.448   5.174 -0.9476  1.1337 -0.5702
 8890TIP3   OH248084   4.412   5.409   5.309 -0.1852  0.0461  0.0684
 8890TIP3    H148085   4.421   5.314   5.310  1.8950  0.1966  1.1648
 8890TIP3    H248086   4.346   5.428   5.376  1.0698 -0.5433  1.5211
 8891TIP3   OH248087   0.971   4.557  15.292  0.0354 -0.1430  0.0855
 8891TIP3    H148088   0.904   4.624  15.276  0.4778 -0.4040 -3.9573
 8891TIP3    H248089   1.052   4.607  15.305  0.1122  0.1860 -1.4904
 8892TIP3   OH248090   0.101   4.766  11.418 -0.7123 -0.5512 -0.0018
 8892TIP3    H148091   0.165   4.732  11.355 -1.9598  1.7009 -2.7080
 8892TIP3    H248092   0.154   4.812  11.483  0.5373  0.6518 -1.7779
 8893TIP3   OH248093   1.896   4.843  15.378  0.2600 -0.5124  0.0973
 8893TIP3    H148094   1.803   4.865  15.374  0.8269  2.0226 -0.7190
 8893TIP3    H248095   1.908   4.809  15.467 -1.1407  0.6374  0.7682
 8894TIP3   OH248096   6.037   5.818  10.657  0.2029  0.3060  0.0325
 8894TIP3    H148097   6.080   5.849  10.577  0.3339 -1.8750 -0.8282
 8894TIP3    H248098   5.950   5.860  10.655  0.0196 -0.0817 -1.5434
 8895TIP3   OH248099   4.267   2.749   1.275 -0.3284 -0.6171  0.0877
 8895TIP3    H148100   4.232   2.662   1.256  0.0146 -0.7172 -0.0910
 8895TIP3    H248101   4.328   2.767   1.203  0.1004 -0.5078  0.4742
 8896TIP3   OH248102   3.802   6.262  12.646  0.1297 -0.5340 -0.0621
 8896TIP3    H148103   3.760   6.181  12.616 -1.5468  0.8964 -1.8055
 8896TIP3    H248104   3.855   6.290  12.571 -0.9565  1.0233 -0.2922
 8897TIP3   OH248105   1.440   2.372  11.407  0.1492  0.6136  0.2908
 8897TIP3    H148106   1.438   2.343  11.498  0.1007  1.8844  0.7084
 8897TIP3    H248107   1.454   2.291  11.357  0.1880 -0.1013  1.4123
 8898TIP3   OH248108   5.510   2.144  16.600  0.4798 -0.4164 -0.0199
 8898TIP3    H148109   5.484   2.235  16.584 -1.3226 -0.8079  0.5037
 8898TIP3    H248110   5.438   2.092  16.565  0.4341 -1.5659  1.6631
 8899TIP3   OH248111   3.972   4.868   4.160  0.1765  0.1498  0.2649
 8899TIP3    H148112   3.968   4.915   4.243  1.1352 -0.9913  0.9745
 8899TIP3    H248113   4.048   4.904   4.114 -0.1541  0.5434  0.0202
 8900TIP3   OH248114   1.028   0.371   1.577 -0.1940  0.2342 -0.3557
 8900TIP3    H148115   1.060   0.461   1.578 -0.4764  0.3354  0.2891
 8900TIP3    H248116   1.107   0.317   1.586 -0.1362  0.4657  0.6925
 8901TIP3   OH248117   5.763   3.289  15.353 -0.1251  0.2006  0.0745
 8901TIP3    H148118   5.838   3.258  15.404 -0.6493 -1.4797 -0.1292
 8901TIP3    H248119   5.797   3.298  15.264 -0.6573 -2.8627 -0.5398
 8902TIP3   OH248120   2.531   0.545   6.108 -0.2991  0.5453 -0.0029
 8902TIP3    H148121   2.504   0.536   6.017  4.0564  3.4350 -1.9432
 8902TIP3    H248122   2.604   0.484   6.117 -0.1480  0.8817  1.2849
 8903TIP3   OH248123   6.243   5.064   4.134  0.3367 -0.3557 -0.4411
 8903TIP3    H148124   6.169   5.023   4.179 -0.6563 -0.3704 -1.9796
 8903TIP3    H248125   6.289   4.992   4.092  1.2435 -0.3414  0.4911
 8904TIP3   OH248126   5.276   3.758  12.346 -0.2103  0.0136  0.2039
 8904TIP3    H148127   5.320   3.737  12.429 -0.4038 -0.0827  0.2841
 8904TIP3    H248128   5.345   3.751  12.280 -0.4843 -1.9422  0.0728
 8905TIP3   OH248129   4.327   2.135  11.685 -0.3816  0.1383 -0.3727
 8905TIP3    H148130   4.322   2.070  11.755  0.1046  0.9466  0.4316
 8905TIP3    H248131   4.386   2.097  11.621 -1.4524 -0.9641 -0.7523
 8906TIP3   OH248132   0.913   3.938  15.102  0.2863 -0.1357 -0.0667
 8906TIP3    H148133   0.925   3.961  15.010 -0.0669  1.0648  0.1681
 8906TIP3    H248134   0.874   4.016  15.142 -0.9324 -1.1436  0.8096
 8907TIP3   OH248135   3.550   5.510  14.815  0.5423 -0.1416 -0.0765
 8907TIP3    H148136   3.499   5.499  14.735  0.1216  1.6248 -0.0993
 8907TIP3    H248137   3.493   5.560  14.874  0.4871 -2.1988  1.7287
 8908TIP3   OH248138   3.761   1.056  12.110 -0.3072  0.3320  0.2554
 8908TIP3    H148139   3.781   0.998  12.184 -0.8399  0.7432  0.7360
 8908TIP3    H248140   3.673   1.088  12.129 -1.7122 -1.7749 -1.9818
 8909TIP3   OH248141   3.429   0.350  14.657 -0.1711 -0.5334  0.0430
 8909TIP3    H148142   3.394   0.268  14.623 -0.7543  0.0407 -0.7663
 8909TIP3    H248143   3.404   0.350  14.750 -1.2548 -0.6938 -0.2422
 8910TIP3   OH248144   4.975   5.691   6.119 -0.4666  0.2250 -0.3622
 8910TIP3    H148145   4.956   5.725   6.206  0.2449 -0.6555  0.1528
 8910TIP3    H248146   4.897   5.640   6.096 -1.2007  1.4856 -0.8058
 8911TIP3   OH248147   4.634   4.051  13.663 -0.1336  0.1949  0.2994
 8911TIP3    H148148   4.574   4.120  13.634 -0.9861  0.2181  1.9895
 8911TIP3    H248149   4.719   4.094  13.668 -0.2606  0.5812 -0.5906
 8912TIP3   OH248150   4.499   1.649   4.554  0.5892 -0.2511  0.2986
 8912TIP3    H148151   4.564   1.578   4.553  0.9631  0.0904 -0.8017
 8912TIP3    H248152   4.498   1.682   4.464 -3.2248 -2.1833 -0.5975
 8913TIP3   OH248153   6.743   1.991   3.853 -0.6282  0.0704 -0.3361
 8913TIP3    H148154   6.717   2.026   3.939 -2.7608  0.5768 -1.1316
 8913TIP3    H248155   6.818   1.935   3.872 -0.1414  1.2870  1.6571
 8914TIP3   OH248156   1.034   3.522   4.185  0.2329 -0.5861  0.4720
 8914TIP3    H148157   1.012   3.429   4.179  0.6695 -0.7188  0.8591
 8914TIP3    H248158   0.953   3.567   4.160 -0.4153 -1.0647  1.6128
 8915TIP3   OH248159   4.313   6.493   1.640 -0.1319  0.1829 -0.0278
 8915TIP3    H148160   4.374   6.496   1.566  0.3371 -1.4127  0.2545
 8915TIP3    H248161   4.337   6.567   1.694  1.5891 -0.4079  0.0770
 8916TIP3   OH248162   6.084   6.119  17.017 -0.3391  0.6587  0.0877
 8916TIP3    H148163   6.035   6.038  17.029 -0.2300  0.7256  1.0553
 8916TIP3    H248164   6.160   6.093  16.964 -0.3455  0.1397  0.3261
 8917TIP3   OH248165   2.012   2.607  16.159  0.4079  0.1509  0.1949
 8917TIP3    H148166   1.969   2.576  16.079  0.5907 -0.5322  0.3599
 8917TIP3    H248167   1.940   2.614  16.223  0.2125  0.9804 -0.1013
 8918TIP3   OH248168   0.010   1.805  13.445  0.8148  0.4413  0.4297
 8918TIP3    H148169  -0.006   1.751  13.368  1.0348  1.2694 -0.2075
 8918TIP3    H248170  -0.024   1.753  13.518  0.6689 -0.3826 -0.2108
 8919TIP3   OH248171   6.144   4.930   5.795 -0.4168  0.1221  0.0778
 8919TIP3    H148172   6.057   4.966   5.775 -0.0523  0.6349 -0.6486
 8919TIP3    H248173   6.136   4.895   5.884 -1.1119  1.0175  0.3884
 8920TIP3   OH248174   6.152   6.182   5.906 -0.3165  0.2936 -0.3995
 8920TIP3    H148175   6.188   6.146   5.825  0.1458  3.3448 -1.6674
 8920TIP3    H248176   6.059   6.198   5.887 -0.3332  0.5292 -0.1332
 8921TIP3   OH248177   3.068   2.776   2.125 -0.4362 -0.1099 -0.2366
 8921TIP3    H148178   2.983   2.787   2.167 -0.2926  0.9126 -0.1925
 8921TIP3    H248179   3.100   2.692   2.158  0.6653  1.5671  3.6171
 8922TIP3   OH248180   2.901   0.740  13.277 -0.8137  0.4555  0.1121
 8922TIP3    H148181   2.976   0.684  13.295 -1.0104 -0.2417 -1.1041
 8922TIP3    H248182   2.863   0.759  13.363 -0.7145 -1.2502  0.5523
 8923TIP3   OH248183   6.654   3.543  13.956 -0.5481  0.2684 -0.0937
 8923TIP3    H148184   6.680   3.463  14.002 -2.7054 -0.4920 -0.1023
 8923TIP3    H248185   6.716   3.550  13.883  0.3407 -0.7798  0.5341
 8924TIP3   OH248186   3.047   3.510  13.579  0.4480  0.1911  0.2719
 8924TIP3    H148187   3.109   3.448  13.618 -0.6214  0.3198  2.3349
 8924TIP3    H248188   3.021   3.469  13.497  1.0829 -1.2669  0.7530
 8925TIP3   OH248189   2.992   2.691   1.619  0.5876 -0.2883 -0.0085
 8925TIP3    H148190   3.067   2.749   1.630 -1.3246  2.4729 -0.5824
 8925TIP3    H248191   2.968   2.700   1.526  0.6826 -2.6548 -0.3187
 8926TIP3   OH248192   1.053   2.250   0.197  0.0707 -0.1435 -0.1922
 8926TIP3    H148193   0.998   2.326   0.213 -0.1098  0.2011 -2.1387
 8926TIP3    H248194   1.033   2.190   0.268 -0.7012  1.1179  0.6996
 8927TIP3   OH248195   4.032   6.671  14.249 -0.2004 -0.1669  0.0285
 8927TIP3    H148196   4.117   6.649  14.289  1.5850  0.6706 -2.9590
 8927TIP3    H248197   3.984   6.588  14.250 -0.2628 -0.2231  3.5785
 8928TIP3   OH248198   3.260   3.669  11.305  0.2780 -0.0643  0.0470
 8928TIP3    H148199   3.237   3.645  11.215 -0.7831 -1.3421  0.6215
 8928TIP3    H248200   3.187   3.725  11.334  2.0636  2.9219 -0.8235
 8929TIP3   OH248201   0.428   0.578   0.661 -0.3793 -0.7964  0.1834
 8929TIP3    H148202   0.480   0.659   0.661 -0.8285 -0.5040  0.4163
 8929TIP3    H248203   0.487   0.511   0.693  0.5087 -0.8863 -1.5361
 8930TIP3   OH248204   2.430   3.723   0.739 -0.3957  0.3896  0.1055
 8930TIP3    H148205   2.470   3.810   0.741  2.0062 -0.6161  1.9681
 8930TIP3    H248206   2.336   3.739   0.738 -0.0393  2.9567 -1.7138
 8931TIP3   OH248207   1.645   0.515  16.034 -0.3734  0.0397  0.1707
 8931TIP3    H148208   1.693   0.434  16.019  1.4894  0.9648  0.8122
 8931TIP3    H248209   1.625   0.514  16.128 -0.1520  0.4260  0.2213
 8932TIP3   OH248210   6.335   1.209   5.441 -0.7185  0.1298 -0.0453
 8932TIP3    H148211   6.353   1.278   5.377 -0.0926  1.1775  1.2172
 8932TIP3    H248212   6.240   1.196   5.436 -0.6319 -0.1544 -1.4990
 8933TIP3   OH248213   1.161   5.561  12.075 -0.1075 -0.3213 -0.5407
 8933TIP3    H148214   1.075   5.588  12.108 -0.1483  0.4819 -1.2615
 8933TIP3    H248215   1.163   5.466  12.087  0.1572 -0.0159  2.3489
 8934TIP3   OH248216   4.168   2.924  11.787 -0.3137  0.5279  0.3482
 8934TIP3    H148217   4.121   2.957  11.711  0.0918  1.5015  0.4950
 8934TIP3    H248218   4.258   2.912  11.756 -0.2637  0.4131  0.5364
 8935TIP3   OH248219   5.633   3.433   1.802  0.2851 -0.5195  0.5222
 8935TIP3    H148220   5.617   3.339   1.795 -1.3134 -0.2198 -0.2544
 8935TIP3    H248221   5.546   3.472   1.812  1.0192  0.7477  2.8675
 8936TIP3   OH248222   0.130   6.414  15.731 -0.2818  0.2957 -0.4435
 8936TIP3    H148223   0.170   6.486  15.780 -0.7821 -0.2961  0.8732
 8936TIP3    H248224   0.203   6.375  15.682  0.5506 -0.0646  1.0357
 8937TIP3   OH248225   1.828   2.259  14.440 -0.2791  0.3243 -0.3479
 8937TIP3    H148226   1.757   2.196  14.451 -0.0617  0.0042 -0.7554
 8937TIP3    H248227   1.799   2.337  14.488 -2.2520  1.3359 -2.9807
 8938TIP3   OH248228   4.308   0.442  15.076 -0.3794 -0.3278  0.4918
 8938TIP3    H148229   4.310   0.347  15.092 -1.7607 -0.5318 -0.3508
 8938TIP3    H248230   4.352   0.453  14.992 -0.7536 -0.3102  0.2938
 8939TIP3   OH248231   1.094   3.850  13.609 -0.2713 -0.0839 -0.0622
 8939TIP3    H148232   1.014   3.866  13.559 -0.5603  0.4004  0.5482
 8939TIP3    H248233   1.122   3.762  13.582  0.6800  0.8733 -2.5871
 8940TIP3   OH248234   0.412   0.893   2.823  0.2874  0.6259  0.2369
 8940TIP3    H148235   0.477   0.857   2.883 -0.6319 -2.3165 -0.3428
 8940TIP3    H248236   0.462   0.923   2.747  1.1041 -0.1962  0.4356
 8941TIP3   OH248237   4.808   3.934  16.583 -0.2020  0.3637 -0.2924
 8941TIP3    H148238   4.782   3.842  16.576  0.1668  0.3021 -0.9642
 8941TIP3    H248239   4.839   3.956  16.495 -1.9800  1.6526 -0.6360
 8942TIP3   OH248240   0.962   4.448   1.695 -0.2553 -0.4776 -0.4789
 8942TIP3    H148241   0.931   4.468   1.607  1.6193 -1.5509 -1.4179
 8942TIP3    H248242   1.010   4.366   1.687  4.1960  1.7022  0.4590
 8943TIP3   OH248243   1.762   3.955   1.530  0.4386  0.3198  0.1130
 8943TIP3    H148244   1.739   3.862   1.529  0.8708  0.1978  0.8917
 8943TIP3    H248245   1.679   4.001   1.515 -0.8525 -0.0324  4.5937
 8944TIP3   OH248246   1.710   0.062  14.664  1.0311 -0.3648  1.0416
 8944TIP3    H148247   1.778   0.034  14.603 -1.0186 -0.5950 -1.2913
 8944TIP3    H248248   1.713  -0.002  14.735 -0.3398 -3.8962 -1.7644
 8945TIP3   OH248249   3.879   5.090   0.505 -0.0220  0.1993 -0.9569
 8945TIP3    H148250   3.969   5.081   0.538  0.3086  1.3218 -1.5310
 8945TIP3    H248251   3.889   5.130   0.419 -1.1493  1.6006 -0.4599
 8946TIP3   OH248252   0.059   3.149  12.285  0.1255  0.3416 -0.1391
 8946TIP3    H148253   0.004   3.174  12.359  1.6707  1.3664  0.7431
 8946TIP3    H248254   0.003   3.095  12.230 -1.6856  1.2177  0.7560
 8947TIP3   OH248255   6.415   5.950   2.074 -0.4187  0.4018  0.3797
 8947TIP3    H148256   6.382   5.867   2.107 -0.1113  0.4323  0.7594
 8947TIP3    H248257   6.345   5.981   2.016 -0.0893 -0.6347 -0.6215
 8948TIP3   OH248258   0.201   5.413  15.728  0.9537  0.2580 -0.0490
 8948TIP3    H148259   0.154   5.453  15.656  0.5357  1.0874  0.6596
 8948TIP3    H248260   0.149   5.336  15.752 -0.0543  1.1302  0.6866
 8949TIP3   OH248261   1.005   0.956  11.666  0.7002 -0.3163  0.2711
 8949TIP3    H148262   1.045   1.042  11.677 -0.2540  0.2200 -0.3762
 8949TIP3    H248263   0.973   0.956  11.576 -0.8771 -0.6847  0.8110
 8950TIP3   OH248264   5.527   1.677   0.364  0.2700 -0.0156 -0.2283
 8950TIP3    H148265   5.577   1.666   0.445 -0.0563 -0.3066 -0.0604
 8950TIP3    H248266   5.568   1.751   0.319  0.1025  0.5026  0.4674
 8951TIP3   OH248267   4.232   0.461  13.293 -0.3264  0.4631 -0.0414
 8951TIP3    H148268   4.170   0.435  13.361 -0.5464 -0.1950 -0.4817
 8951TIP3    H248269   4.213   0.402  13.220  1.3649 -0.3144  0.0993
 8952TIP3   OH248270   6.179   0.287  13.797  0.4899  0.4102  0.5758
 8952TIP3    H148271   6.230   0.273  13.717 -1.0977  0.5757 -0.5091
 8952TIP3    H248272   6.242   0.325  13.859  1.8636 -0.1191 -0.4371
 8953TIP3   OH248273   3.724   4.487   3.439  0.1893 -0.1786  0.4729
 8953TIP3    H148274   3.635   4.459   3.418  0.3646 -0.8588  0.6227
 8953TIP3    H248275   3.780   4.422   3.396  0.6109  0.1358  0.5442
 8954TIP3   OH248276   1.895   3.777   4.110 -0.1469  0.6191 -0.5768
 8954TIP3    H148277   1.814   3.822   4.087 -1.1924  0.2175  1.9632
 8954TIP3    H248278   1.868   3.689   4.134  1.4077 -0.2963 -1.9580
 8955TIP3   OH248279   0.159   0.121   5.739  0.5180  0.1556 -0.1708
 8955TIP3    H148280   0.247   0.121   5.776  0.0909 -0.0615  0.8625
 8955TIP3    H248281   0.131   0.029   5.744 -0.0194  0.3330  0.1202
 8956TIP3   OH248282   3.371   3.899   2.573  0.3367 -0.3004  0.1264
 8956TIP3    H148283   3.434   3.832   2.545 -0.1598 -0.7162 -0.0273
 8956TIP3    H248284   3.356   3.881   2.666  0.8166  0.1076  0.2822
 8957TIP3   OH248285   4.852   0.052  15.590  0.1029  0.3760 -0.4462
 8957TIP3    H148286   4.863  -0.018  15.526 -0.0415  1.2368 -1.4454
 8957TIP3    H248287   4.908   0.123  15.559  1.8437  0.0165  1.6506
 8958TIP3   OH248288   4.741   3.631   3.101 -0.2311  0.4636  0.5820
 8958TIP3    H148289   4.748   3.726   3.090  0.2299  0.3171 -0.6686
 8958TIP3    H248290   4.716   3.618   3.192 -1.3808  1.8273  0.4856
 8959TIP3   OH248291   6.133   0.704   3.535  0.4187 -0.4760 -0.4197
 8959TIP3    H148292   6.159   0.661   3.454  1.9276 -1.0487  0.3155
 8959TIP3    H248293   6.215   0.738   3.571 -0.4726  1.4246 -0.0463
 8960TIP3   OH248294   0.975   5.510   4.501  0.4599 -0.6466  0.3150
 8960TIP3    H148295   1.018   5.593   4.479  1.4888 -1.2659 -0.1151
 8960TIP3    H248296   0.905   5.534   4.560  0.9939  0.4960  0.5107
 8961TIP3   OH248297   5.005   5.096  16.319  0.4510 -0.4461 -0.0495
 8961TIP3    H148298   4.919   5.055  16.330  0.5095 -0.5831 -0.0961
 8961TIP3    H248299   4.989   5.169  16.259  0.2136  0.0294  0.5898
 8962TIP3   OH248300   5.148   1.198   4.936  0.3971  0.4787  0.0128
 8962TIP3    H148301   5.194   1.277   4.965 -2.3672  1.3012  2.6704
 8962TIP3    H248302   5.196   1.126   4.976  1.4655  0.9886 -0.3191
 8963TIP3   OH248303   4.293   5.268   4.025  0.3557  0.2406 -0.2772
 8963TIP3    H148304   4.327   5.343   4.073  1.1725  0.6435 -1.4311
 8963TIP3    H248305   4.348   5.262   3.947  0.1260 -1.3846 -0.3645
 8964TIP3   OH248306   0.976   2.309  13.488  0.5451  0.1954 -0.1863
 8964TIP3    H148307   0.999   2.215  13.492  1.1350  0.3551  0.5722
 8964TIP3    H248308   1.042   2.351  13.544 -1.8398  0.6503  2.4928
 8965TIP3   OH248309   1.741   6.672   1.820  0.4215  0.4222  0.2680
 8965TIP3    H148310   1.695   6.755   1.832  1.2955  0.6710  2.2555
 8965TIP3    H248311   1.801   6.687   1.747 -1.1041  0.7428 -0.9753
 8966TIP3   OH248312   2.852   3.533  11.371 -0.1979 -0.1663  0.3116
 8966TIP3    H148313   2.840   3.588  11.448  1.0733  2.5492 -1.2718
 8966TIP3    H248314   2.764   3.519  11.337 -0.6364 -0.0732  1.3737
 8967TIP3   OH248315   6.567   2.499   1.360 -0.0964  0.2386  0.6144
 8967TIP3    H148316   6.516   2.552   1.422  1.0957 -0.1425  1.9770
 8967TIP3    H248317   6.547   2.536   1.275 -3.7167 -0.7297  0.8805
 8968TIP3   OH248318   3.769   4.748   5.426 -0.3286  0.3373 -0.3729
 8968TIP3    H148319   3.777   4.695   5.505 -2.3037  0.0969 -0.2737
 8968TIP3    H248320   3.717   4.695   5.366 -1.7437  1.8223 -0.5349
 8969TIP3   OH248321   0.139   5.422  13.000 -0.3304  0.6571 -0.3545
 8969TIP3    H148322   0.137   5.327  12.996 -0.6270  0.6995 -1.7305
 8969TIP3    H248323   0.049   5.448  13.017 -0.8795  0.7423 -2.9567
 8970TIP3   OH248324   3.243   3.815   2.792  0.2546  0.1265  0.2229
 8970TIP3    H148325   3.179   3.754   2.755 -1.2619  1.2198  0.9292
 8970TIP3    H248326   3.264   3.778   2.878 -0.8924  0.7263  0.7772
 8971TIP3   OH248327   5.686   1.622   2.085  0.6814  0.0346 -0.1178
 8971TIP3    H148328   5.759   1.568   2.054  0.3856 -0.5052  0.1202
 8971TIP3    H248329   5.608   1.571   2.066  0.3356  0.7080 -0.5797
 8972TIP3   OH248330   4.678   4.025  12.718 -0.1570 -0.6689  0.4693
 8972TIP3    H148331   4.597   3.993  12.756 -0.0583 -2.1920 -0.5081
 8972TIP3    H248332   4.747   3.976  12.762  0.1229 -0.4828  0.2435
 8973TIP3   OH248333   2.466   3.608   3.461  0.3379 -0.2849 -0.2810
 8973TIP3    H148334   2.442   3.608   3.554  0.9313  0.7819 -0.1073
 8973TIP3    H248335   2.384   3.628   3.415  0.1936 -0.0332  0.0747
 8974TIP3   OH248336   5.419   4.885  14.872  0.5063  0.4185  0.2166
 8974TIP3    H148337   5.390   4.795  14.858 -1.7093  1.1066 -0.1212
 8974TIP3    H248338   5.434   4.919  14.784 -0.2166  0.8226  0.2418
 8975TIP3   OH248339   1.909   0.551   0.116  0.4268 -0.1263  0.2989
 8975TIP3    H148340   1.912   0.580   0.025  2.1319 -1.0648  0.0132
 8975TIP3    H248341   1.875   0.626   0.164 -0.4673  0.4005 -1.0913
 8976TIP3   OH248342   1.503   0.900  12.442 -0.4608 -0.6306  0.3652
 8976TIP3    H148343   1.498   0.927  12.534  0.1934  0.7904  0.0038
 8976TIP3    H248344   1.581   0.943  12.408 -1.0830 -0.5624 -1.0499
 8977TIP3   OH248345   4.975   4.955  16.613  0.0530 -0.1512 -0.4321
 8977TIP3    H148346   5.029   5.034  16.611  2.7116 -1.8319 -1.7341
 8977TIP3    H248347   5.012   4.902  16.684  1.3179 -1.9980 -2.3231
 8978TIP3   OH248348   3.169   2.496  10.406 -0.0659 -0.5278  0.6865
 8978TIP3    H148349   3.253   2.520  10.368 -0.6197  3.6723  1.6567
 8978TIP3    H248350   3.106   2.508  10.335 -0.1580 -1.1290  0.6616
 8979TIP3   OH248351   4.883   3.017  13.241 -0.3212  0.4071  0.3788
 8979TIP3    H148352   4.906   3.104  13.272  0.6956  0.2811  0.0211
 8979TIP3    H248353   4.889   3.023  13.145 -0.7452  0.0743  0.3266
 8980TIP3   OH248354   0.450   5.462   1.420 -0.5041 -0.0281  0.0510
 8980TIP3    H148355   0.385   5.394   1.435 -1.5806  0.7615 -0.8644
 8980TIP3    H248356   0.478   5.487   1.508 -1.6596 -0.1927  0.4846
 8981TIP3   OH248357   0.338   5.350  13.673 -0.0883  0.1465  0.9451
 8981TIP3    H148358   0.404   5.403  13.717 -1.5840  1.2357  2.0126
 8981TIP3    H248359   0.383   5.312  13.598  2.0900 -0.3489  2.4410
 8982TIP3   OH248360   2.968   4.296  12.576  0.5540 -0.2360  0.1806
 8982TIP3    H148361   3.028   4.278  12.504 -1.1261 -2.4782 -0.7809
 8982TIP3    H248362   2.952   4.210  12.615 -1.2834  0.4400  0.9872
 8983TIP3   OH248363   2.318   0.608   1.133 -0.5348  0.2962  0.1417
 8983TIP3    H148364   2.287   0.697   1.152 -1.9484 -0.5715  2.2559
 8983TIP3    H248365   2.304   0.560   1.215 -1.3589 -2.2901 -1.4104
 8984TIP3   OH248366   6.361   5.872  10.991 -0.9419  0.8420 -0.5094
 8984TIP3    H148367   6.374   5.894  10.898 -0.4205  1.3849 -0.3191
 8984TIP3    H248368   6.414   5.937  11.038  1.2424 -1.2057  0.0739
 8985TIP3   OH248369   2.441   3.793   1.015  0.3923 -0.2927 -0.2022
 8985TIP3    H148370   2.468   3.765   0.928 -0.4913 -0.2846 -0.4868
 8985TIP3    H248371   2.363   3.847   1.001 -0.1962 -0.8884  0.6325
 8986TIP3   OH248372   3.520   0.302   4.216 -0.2412  0.2080 -0.0766
 8986TIP3    H148373   3.473   0.371   4.262  0.2217  0.1821  0.4603
 8986TIP3    H248374   3.463   0.225   4.225 -0.1291  0.1850  0.5332
 8987TIP3   OH248375   0.594   0.221   4.407  0.6160 -0.5649  0.0000
 8987TIP3    H148376   0.500   0.207   4.398 -0.2173  3.1730  1.3072
 8987TIP3    H248377   0.604   0.268   4.490  3.5204  0.0831 -0.6004
 8988TIP3   OH248378   5.177   3.285   0.676 -0.0143  0.1492 -0.4501
 8988TIP3    H148379   5.106   3.225   0.698 -0.5423  0.5039 -1.1722
 8988TIP3    H248380   5.210   3.254   0.592  0.1627  0.4683 -0.5009
 8989TIP3   OH248381   6.355   3.114   2.709  0.1259 -0.0964  0.1719
 8989TIP3    H148382   6.284   3.148   2.655  0.4021 -0.8566 -0.7052
 8989TIP3    H248383   6.314   3.051   2.768 -0.4432  1.8983  2.0330
 8990TIP3   OH248384   1.557   1.709  11.377 -0.0727 -0.5861  0.6490
 8990TIP3    H148385   1.541   1.701  11.283 -3.0932  0.9830  0.9033
 8990TIP3    H248386   1.599   1.794  11.388 -1.3340  0.0468  0.7940
 8991TIP3   OH248387   2.996   5.277   6.478  0.1446  0.0431 -0.4798
 8991TIP3    H148388   3.025   5.192   6.508  2.2815  0.9660  0.2600
 8991TIP3    H248389   3.066   5.338   6.505  0.7172  1.4446 -4.4196
 8992TIP3   OH248390   4.616   4.731  11.641 -0.7606  0.0238  0.2329
 8992TIP3    H148391   4.590   4.813  11.682  0.0851  0.0816  0.6702
 8992TIP3    H248392   4.535   4.694  11.607 -1.1684  0.9790  0.1399
 8993TIP3   OH248393   2.188   2.732  11.501  0.5269  0.5758  0.4253
 8993TIP3    H148394   2.164   2.640  11.495  1.7102  0.1625  1.5776
 8993TIP3    H248395   2.284   2.732  11.505  0.5193  1.7892  1.2841
 8994TIP3   OH248396   5.801   5.745  16.857  0.0437  0.1049 -0.2484
 8994TIP3    H148397   5.721   5.798  16.856  1.7107  2.8005 -0.7002
 8994TIP3    H248398   5.822   5.736  16.950 -0.2221  0.3113 -0.1649
 8995TIP3   OH248399   3.575   3.929  12.849  0.4636  0.0697  0.4715
 8995TIP3    H148400   3.492   3.961  12.812  1.5066 -0.1901 -2.3452
 8995TIP3    H248401   3.548   3.872  12.921 -1.7395  0.8244  0.3508
 8996TIP3   OH248402   3.682   5.583  16.277  0.3706 -0.3200  0.3636
 8996TIP3    H148403   3.743   5.547  16.213 -0.9430  0.1619 -1.2271
 8996TIP3    H248404   3.603   5.603  16.226 -0.7857 -0.0736  2.1751
 8997TIP3   OH248405   2.678   1.951  16.427  0.5804  0.4550 -0.1414
 8997TIP3    H148406   2.617   1.948  16.353  2.6308  2.1860 -2.0572
 8997TIP3    H248407   2.639   2.014  16.487 -0.7249 -0.3637 -0.0961
 8998TIP3   OH248408   2.063   3.916  15.943 -0.5174 -0.2560 -0.1121
 8998TIP3    H148409   2.013   3.850  15.896 -0.7278 -0.8816  0.9539
 8998TIP3    H248410   2.036   3.999  15.903 -1.1126 -0.7175 -0.7006
 8999TIP3   OH248411   0.364   6.780   2.129 -0.0744 -0.2129  0.0000
 8999TIP3    H148412   0.396   6.754   2.043  1.2022  0.5707  0.2162
 8999TIP3    H248413   0.325   6.701   2.166 -2.3955 -0.1521 -2.0303
 9000TIP3   OH248414   0.992   3.038   5.923 -0.1052  0.3570  0.3409
 9000TIP3    H148415   0.952   3.053   6.009  0.0366 -0.5022  0.5753
 9000TIP3    H248416   1.082   3.010   5.944 -0.5846 -1.5981  0.0191
 9001TIP3   OH248417   3.423   2.705  14.851 -0.3314  0.3175 -0.3944
 9001TIP3    H148418   3.349   2.732  14.906  0.4426 -1.4911  1.7134
 9001TIP3    H248419   3.489   2.773  14.865 -1.2305  1.4891 -1.6106
 9002TIP3   OH248420   4.028   0.316   1.941  0.4298  0.9557 -0.9039
 9002TIP3    H148421   4.054   0.248   2.004  0.1855  3.0195  1.5919
 9002TIP3    H248422   3.951   0.357   1.981  0.8190  2.9560 -2.0894
 9003TIP3   OH248423   5.159   6.187  12.985 -0.1280  0.7321 -0.5622
 9003TIP3    H148424   5.070   6.173  12.954 -0.7049  3.6461 -0.4961
 9003TIP3    H248425   5.194   6.255  12.928  1.8804  0.0899 -0.1947
 9004TIP3   OH248426   4.813   2.123   4.819 -0.3257  0.2804 -0.2587
 9004TIP3    H148427   4.783   2.035   4.798 -2.0347  0.8263 -0.2394
 9004TIP3    H248428   4.863   2.113   4.901 -0.6819 -0.6376 -0.1481
 9005TIP3   OH248429   3.520   6.276   2.013 -0.2791 -0.8121  0.6799
 9005TIP3    H148430   3.514   6.197   1.959 -1.1949 -0.4881  0.2781
 9005TIP3    H248431   3.430   6.292   2.042 -0.3343  0.6920 -0.1560
 9006TIP3   OH248432   4.878   6.027  15.414  0.4428 -0.9568  0.5645
 9006TIP3    H148433   4.967   6.044  15.383 -0.2216 -0.5679 -1.2663
 9006TIP3    H248434   4.826   6.019  15.334 -1.5278  0.7439  1.5777
 9007TIP3   OH248435   6.218   0.828   0.222  0.0682  0.6247  0.1398
 9007TIP3    H148436   6.271   0.822   0.142  0.4314  2.9588  0.1355
 9007TIP3    H248437   6.129   0.847   0.190 -0.2258 -0.5405  0.2400
 9008TIP3   OH248438   0.436   3.241  12.247  0.4445 -0.3037 -0.5331
 9008TIP3    H148439   0.450   3.205  12.159  0.2090  0.6302 -0.9625
 9008TIP3    H248440   0.402   3.167  12.298  2.0100 -1.2623 -0.8155
 9009TIP3   OH248441   2.167   0.579   0.169 -0.2860 -0.0175  0.2424
 9009TIP3    H148442   2.204   0.541   0.089 -0.2202  1.9860 -0.7255
 9009TIP3    H248443   2.073   0.581   0.153 -0.1286  2.3479 -0.7598
 9010TIP3   OH248444   5.509   5.508   5.206 -0.0395 -0.3406  0.0605
 9010TIP3    H148445   5.545   5.504   5.117 -1.1971 -0.8042 -0.3959
 9010TIP3    H248446   5.548   5.588   5.243  1.2056 -0.6463 -0.5120
 9011TIP3   OH248447   0.259   6.579  17.198  0.6106  0.2434  0.1036
 9011TIP3    H148448   0.224   6.490  17.192  0.1390  0.4896 -1.0991
 9011TIP3    H248449   0.300   6.583  17.285  0.1774 -0.9701  0.3849
 9012TIP3   OH248450   3.606   6.427   1.364 -0.1747 -0.6443 -0.1714
 9012TIP3    H148451   3.638   6.487   1.431  1.6512 -2.4687  0.7223
 9012TIP3    H248452   3.660   6.447   1.287  2.3331 -2.6783  0.8812
 9013TIP3   OH248453   4.845   4.657   0.705 -0.3807  0.2413  0.2698
 9013TIP3    H148454   4.895   4.712   0.644  0.8386  0.8529  1.7430
 9013TIP3    H248455   4.756   4.657   0.671 -0.1781  2.2692 -0.3524
 9014TIP3   OH248456   2.811   0.358  16.539 -0.1799 -0.3117 -0.3141
 9014TIP3    H148457   2.799   0.278  16.590 -0.4669 -0.4821 -0.6439
 9014TIP3    H248458   2.882   0.337  16.479 -0.6342 -0.5156 -0.7872
 9015TIP3   OH248459   5.099   1.397   4.140  0.0279  0.3933 -0.2623
 9015TIP3    H148460   5.100   1.334   4.212 -0.5340 -0.9891 -1.4137
 9015TIP3    H248461   5.008   1.397   4.109  0.4131  0.3509 -1.4550
 9016TIP3   OH248462   0.283   3.680  10.759 -0.5650  0.0810 -0.0675
 9016TIP3    H148463   0.303   3.774  10.758  2.9458 -0.5157 -0.1653
 9016TIP3    H248464   0.236   3.664  10.678 -0.6672  1.6612 -0.3408
 9017TIP3   OH248465   3.666   6.151  13.035 -0.3819 -0.0061 -0.2027
 9017TIP3    H148466   3.626   6.075  12.993 -1.6769  0.0844  0.7936
 9017TIP3    H248467   3.594   6.191  13.085  0.6843  0.8816  0.6681
 9018TIP3   OH248468   1.092   5.900   4.242  0.1053 -0.3346  0.5505
 9018TIP3    H148469   1.021   5.948   4.198  0.1451  0.0350  0.8924
 9018TIP3    H248470   1.060   5.810   4.246 -0.5578 -0.0772  1.1490
 9019TIP3   OH248471   3.919   4.894   0.201  0.3349  0.2146 -0.0747
 9019TIP3    H148472   3.954   4.954   0.136 -0.1358 -0.5298 -1.0511
 9019TIP3    H248473   3.853   4.945   0.248  0.7678  0.7972 -0.0951
 9020TIP3   OH248474   5.985   6.395   1.559 -0.8929  0.3912  0.1999
 9020TIP3    H148475   5.915   6.330   1.551 -0.2413 -0.1390 -1.7755
 9020TIP3    H248476   5.939   6.479   1.570 -1.7402 -0.3266  3.0582
 9021TIP3   OH248477   5.120   1.032  16.968  0.3617 -0.4619  0.0846
 9021TIP3    H148478   5.053   0.977  16.927 -2.0004  1.7775  0.7209
 9021TIP3    H248479   5.157   0.977  17.037 -2.5223 -1.0797  1.2781
 9022TIP3   OH248480   6.437   3.704   4.260  0.2910 -0.1203  0.0482
 9022TIP3    H148481   6.410   3.771   4.323  1.0841 -1.9428  2.4804
 9022TIP3    H248482   6.356   3.659   4.236  0.1084 -0.0634  0.5627
 9023TIP3   OH248483   0.816   0.063  14.295 -0.1000 -0.3035  0.1875
 9023TIP3    H148484   0.801   0.126  14.225  1.2959 -0.0654  0.0783
 9023TIP3    H248485   0.791  -0.021  14.257 -2.0105  0.1358  0.3468
 9024TIP3   OH248486   3.940   2.209   0.111  0.0494  0.9106  0.0445
 9024TIP3    H148487   3.849   2.198   0.137  0.7172 -0.5999  1.9647
 9024TIP3    H248488   3.979   2.122   0.121  1.7797  1.5812 -0.4330
 9025TIP3   OH248489   1.544   2.787  13.255  0.5259  0.1549  0.2774
 9025TIP3    H148490   1.488   2.833  13.317  2.3379  0.9116  1.4389
 9025TIP3    H248491   1.509   2.811  13.169 -0.7548  0.7918  0.9413
 9026TIP3   OH248492   4.654   1.175   0.948  0.1647 -0.1249 -0.3371
 9026TIP3    H148493   4.602   1.102   0.981  3.1506 -2.1119  0.3968
 9026TIP3    H248494   4.690   1.216   1.027  1.0733  0.1003 -0.8561
 9027TIP3   OH248495   1.549   6.480  11.252 -0.1494  0.4178 -0.7110
 9027TIP3    H148496   1.626   6.524  11.215  2.4605 -2.3648  0.9759
 9027TIP3    H248497   1.536   6.403  11.196 -0.1630 -0.4326  0.4320
 9028TIP3   OH248498   6.647   6.266   3.509  0.4378 -0.4113 -0.3583
 9028TIP3    H148499   6.575   6.227   3.558  0.9069 -2.1169 -0.9386
 9028TIP3    H248500   6.606   6.309   3.434 -0.0938  0.1524  0.2518
 9029TIP3   OH248501   0.448   4.181  14.996  0.1101 -0.1371 -0.4084
 9029TIP3    H148502   0.497   4.221  15.068  0.3876 -0.6670 -0.3049
 9029TIP3    H248503   0.390   4.118  15.038  1.8945 -2.1245 -0.8113
 9030TIP3   OH248504   3.068   0.192   4.532 -0.1495 -0.0067  0.1536
 9030TIP3    H148505   3.081   0.220   4.441  4.7247 -0.4315  0.4679
 9030TIP3    H248506   3.054   0.273   4.580  0.4211  0.5591 -0.6079
 9031TIP3   OH248507   2.889   0.011  15.564  0.3423 -0.2951  0.5675
 9031TIP3    H148508   2.856  -0.024  15.646 -0.8039  2.2629  1.2792
 9031TIP3    H248509   2.982   0.022  15.578  0.2565 -0.4458  1.2785
 9032TIP3   OH248510   3.698   6.223  14.805  0.2758 -0.6678  0.2896
 9032TIP3    H148511   3.753   6.288  14.760 -0.7096 -0.5438 -0.7677
 9032TIP3    H248512   3.705   6.247  14.898  2.8128 -1.2932  0.3475
 9033TIP3   OH248513   6.639   2.852  14.253  0.2456 -0.1770  0.8599
 9033TIP3    H148514   6.594   2.768  14.254 -0.0973 -0.0427 -0.9337
 9033TIP3    H248515   6.727   2.832  14.286  0.2204 -1.2731  0.3045
 9034TIP3   OH248516   3.727   3.589  12.291 -0.5320 -0.5229  0.3883
 9034TIP3    H148517   3.817   3.595  12.323 -0.5408  0.1739  0.2856
 9034TIP3    H248518   3.736   3.581  12.196 -0.6239  1.5248  0.1748
 9035TIP3   OH248519   0.940   3.498   0.079 -0.2255  0.2136  0.1017
 9035TIP3    H148520   0.993   3.492   0.158  1.2427  0.4078 -0.8155
 9035TIP3    H248521   0.973   3.428   0.023  0.2026  1.3343 -1.1111
 9036TIP3   OH248522   3.548   4.745  12.966  0.1101 -0.4218 -0.8601
 9036TIP3    H148523   3.485   4.727  13.036  1.5395 -1.5089  0.2115
 9036TIP3    H248524   3.511   4.819  12.918  0.2593  2.1121  2.5911
 9037TIP3   OH248525   2.427   2.802   4.978 -0.5361  0.2852  0.2560
 9037TIP3    H148526   2.432   2.776   4.885 -2.6676 -0.4431  0.2960
 9037TIP3    H248527   2.418   2.897   4.976 -0.7074  0.2606 -0.2897
 9038TIP3   OH248528   1.758   0.961  12.298  0.4112 -0.1361  0.2467
 9038TIP3    H148529   1.753   0.896  12.228 -1.9056 -1.2750  1.3328
 9038TIP3    H248530   1.746   1.045  12.255 -2.1404 -0.8882 -0.7100
 9039TIP3   OH248531   2.671   6.288  13.219 -0.6634  0.2921  0.5331
 9039TIP3    H148532   2.688   6.206  13.174 -0.5579 -0.1267  1.3270
 9039TIP3    H248533   2.747   6.342  13.199 -0.2867 -0.1433  0.7898
 9040TIP3   OH248534   4.199   6.773   5.472 -0.1300  0.1739  0.0108
 9040TIP3    H148535   4.280   6.736   5.507  1.1355  2.5274 -0.2038
 9040TIP3    H248536   4.129   6.727   5.519  1.3696 -0.6228  1.5916
 9041TIP3   OH248537   6.445   5.452   4.594  0.1020  0.5161  0.0207
 9041TIP3    H148538   6.452   5.533   4.646  2.5191  0.4828 -0.1512
 9041TIP3    H248539   6.482   5.384   4.651  0.2956 -0.0176 -0.7297
 9042TIP3   OH248540   4.465   3.625  13.947 -0.0349  0.4250 -0.2327
 9042TIP3    H148541   4.383   3.655  13.985  0.4170  0.8868  0.3930
 9042TIP3    H248542   4.520   3.704  13.943  0.9167 -0.1596  0.7820
 9043TIP3   OH248543   4.207   6.152   5.178 -0.4231 -0.1562  0.2803
 9043TIP3    H148544   4.172   6.112   5.098  0.1204 -0.3484  0.1348
 9043TIP3    H248545   4.147   6.225   5.197  0.0346  0.5430 -0.8918
 9044TIP3   OH248546   6.437   4.236   6.590  0.0410  1.1964 -0.2190
 9044TIP3    H148547   6.492   4.310   6.617  1.7030 -0.1858  0.3602
 9044TIP3    H248548   6.368   4.232   6.657  2.0894 -0.0058  1.9954
 9045TIP3   OH248549   0.223   0.426   4.785 -0.5328  0.0320  0.4147
 9045TIP3    H148550   0.216   0.333   4.763 -2.3135  0.6144 -1.8431
 9045TIP3    H248551   0.152   0.441   4.847  0.1196 -0.1848  1.2404
 9046TIP3   OH248552   2.206   2.894  14.627  0.7392  0.3159  0.1510
 9046TIP3    H148553   2.170   2.808  14.651 -0.4993  1.0554  1.1033
 9046TIP3    H248554   2.279   2.874  14.569  1.2585 -1.4327  1.2999
 9047TIP3   OH248555   5.462   2.534   1.771  0.0550 -0.4677  0.2888
 9047TIP3    H148556   5.424   2.592   1.836 -1.1930 -0.4310 -0.4416
 9047TIP3    H248557   5.541   2.579   1.740  1.0022 -0.7543  2.1523
 9048TIP3   OH248558   2.219   6.193   4.385  0.7533  0.0107 -0.0734
 9048TIP3    H148559   2.258   6.149   4.460  0.1863  1.8159  1.3476
 9048TIP3    H248560   2.292   6.207   4.325  0.8844 -3.2085 -0.8680
 9049TIP3   OH248561   4.450   3.394   1.875 -0.1889 -0.3897 -0.0013
 9049TIP3    H148562   4.475   3.302   1.879 -1.3768 -0.7035  0.7684
 9049TIP3    H248563   4.378   3.402   1.938  1.2801  1.5263  1.5618
 9050TIP3   OH248564   3.509   3.498  15.126  0.5091 -0.5211 -0.0026
 9050TIP3    H148565   3.443   3.498  15.056 -0.6280  1.5350  0.9915
 9050TIP3    H248566   3.470   3.446  15.196 -0.2075  0.8864  0.6748
 9051TIP3   OH248567   0.296   4.123   3.229  0.5658 -0.3569 -0.4341
 9051TIP3    H148568   0.294   4.117   3.325 -0.1499  1.4519 -0.2908
 9051TIP3    H248569   0.209   4.095   3.201  0.4441  0.0255 -0.4571
 9052TIP3   OH248570   4.116   6.360   2.870 -0.4205  0.4305 -0.0356
 9052TIP3    H148571   4.028   6.367   2.908  0.1853  0.8580  1.3684
 9052TIP3    H248572   4.132   6.265   2.865 -0.6546  0.3603  0.4699
 9053TIP3   OH248573   6.171   0.033   0.812 -0.0939 -0.8393  0.0237
 9053TIP3    H148574   6.094   0.069   0.856 -0.2772  0.1076 -1.0346
 9053TIP3    H248575   6.152  -0.061   0.804 -1.1121 -0.6280 -0.1667
 9054TIP3   OH248576   2.102   3.475   2.617  0.3779 -0.2996 -0.2025
 9054TIP3    H148577   2.024   3.527   2.633  0.7399  0.1201  0.2275
 9054TIP3    H248578   2.085   3.432   2.533 -0.2959 -0.1893 -0.1321
 9055TIP3   OH248579   6.722   4.150   3.883  0.4003 -0.0270  0.4847
 9055TIP3    H148580   6.712   4.244   3.866  1.0627 -0.1018 -0.3887
 9055TIP3    H248581   6.640   4.111   3.854  0.3487  0.2194  0.2977
 9056TIP3   OH248582   1.340   6.544   0.526  0.2741 -0.1062  0.2348
 9056TIP3    H148583   1.433   6.530   0.509 -0.0171 -0.2848 -1.3759
 9056TIP3    H248584   1.301   6.457   0.517 -0.1755  0.1230 -0.0814
 9057TIP3   OH248585   1.453   5.902   1.515  0.8030 -0.2866  0.2827
 9057TIP3    H148586   1.512   5.826   1.515 -0.2110 -1.1447  2.4629
 9057TIP3    H248587   1.415   5.903   1.428 -0.9617 -3.8007  0.8541
 9058TIP3   OH248588   2.069   0.276  16.519 -0.0145  0.4097  0.3869
 9058TIP3    H148589   2.155   0.288  16.559  0.8032  0.5828 -1.3308
 9058TIP3    H248590   2.073   0.325  16.437 -1.9317  0.8256  0.4921
 9059TIP3   OH248591   5.168   3.724   1.483  0.3323  0.0261 -0.3781
 9059TIP3    H148592   5.124   3.705   1.566 -0.1278  2.4860  0.0167
 9059TIP3    H248593   5.213   3.642   1.461  2.5653 -0.1042  3.5897
 9060TIP3   OH248594   5.142   0.715  12.503  0.0868 -0.9486 -0.0500
 9060TIP3    H148595   5.113   0.777  12.436 -1.3759 -0.8215  0.6663
 9060TIP3    H248596   5.103   0.748  12.584  3.3298  0.0008  1.2864
 9061TIP3   OH248597   5.408   3.068   2.631  0.3859 -0.0801  0.3374
 9061TIP3    H148598   5.493   3.047   2.671  0.3699  0.2020  0.5188
 9061TIP3    H248599   5.393   2.997   2.569  1.9950  1.1836 -1.6386
 9062TIP3   OH248600   6.466   5.366  15.730  0.0681  0.4942  0.0044
 9062TIP3    H148601   6.531   5.322  15.785  0.4872  0.4197 -0.5471
 9062TIP3    H248602   6.383   5.322  15.751  0.2819  0.2419  0.3239
 9063TIP3   OH248603   4.496   3.075   0.700 -0.0360  0.5609 -0.6709
 9063TIP3    H148604   4.525   2.985   0.714  2.2746  1.4863  1.2045
 9063TIP3    H248605   4.505   3.088   0.605  0.4141 -0.9268 -0.8660
 9064TIP3   OH248606   6.081   1.617  12.312 -0.0593 -0.3179 -0.6173
 9064TIP3    H148607   6.110   1.614  12.221  1.1851 -1.0526 -0.2168
 9064TIP3    H248608   6.066   1.525  12.335  1.0792 -0.2893  0.3470
 9065TIP3   OH248609   4.320   2.912  14.926 -0.1219  0.1095 -0.1597
 9065TIP3    H148610   4.321   2.818  14.938 -0.5067 -0.2299 -2.3942
 9065TIP3    H248611   4.390   2.929  14.862  0.9627  1.5427  1.3164
 9066TIP3   OH248612   1.956   1.983  12.661  0.2155 -0.1557  0.2809
 9066TIP3    H148613   1.960   2.072  12.695  0.6456 -0.1279  0.1636
 9066TIP3    H248614   2.008   1.931  12.722 -0.6726 -0.4700  0.7814
 9067TIP3   OH248615   0.269   0.473  17.240  0.4666 -0.4205 -0.3405
 9067TIP3    H148616   0.344   0.510  17.286  0.2835 -1.7042  1.0672
 9067TIP3    H248617   0.308   0.430  17.164  1.3404 -1.9120  0.8767
 9068TIP3   OH248618   2.185   2.185  12.559  0.1939 -0.0546 -0.3503
 9068TIP3    H148619   2.090   2.199  12.554  0.2799  0.6698 -0.1121
 9068TIP3    H248620   2.217   2.257  12.614  0.9725  0.1261 -1.0199
 9069TIP3   OH248621   0.863   3.502   4.883  0.8987 -0.7441  0.2509
 9069TIP3    H148622   0.951   3.519   4.847 -0.2745  0.7322 -2.2213
 9069TIP3    H248623   0.840   3.415   4.850  0.3580  0.0610 -1.6275
 9070TIP3   OH248624   6.492   4.143  16.688  0.7412  0.3082 -0.1701
 9070TIP3    H148625   6.576   4.125  16.646  0.9609  0.6151  0.1324
 9070TIP3    H248626   6.429   4.147  16.616  1.0675  0.5476 -0.4412
 9071TIP3   OH248627   0.601   2.761   3.345 -0.0220 -0.1474  0.0898
 9071TIP3    H148628   0.585   2.667   3.355  1.3916 -0.1805  2.9921
 9071TIP3    H248629   0.513   2.799   3.335 -0.7309 -1.6433  0.3527
 9072TIP3   OH248630   6.557   4.497   4.654  0.3649  0.6943  0.1391
 9072TIP3    H148631   6.529   4.478   4.744 -0.1512 -0.4314 -0.2324
 9072TIP3    H248632   6.651   4.512   4.660  0.4169  0.1433  0.8083
 9073TIP3   OH248633   1.264   1.777   4.495  0.2670 -1.0811  0.1776
 9073TIP3    H148634   1.244   1.714   4.564 -0.4346 -0.0443  0.9457
 9073TIP3    H248635   1.183   1.827   4.485  1.6432  1.6414  1.6495
 9074TIP3   OH248636   4.648   2.243  12.149 -0.0115  0.0246  0.7235
 9074TIP3    H148637   4.562   2.220  12.116  0.6191 -0.6071 -0.5481
 9074TIP3    H248638   4.655   2.338  12.135  0.6067 -0.3317 -2.0202
 9075TIP3   OH248639   6.319   4.917   3.325 -0.6659 -0.3688 -0.1725
 9075TIP3    H148640   6.318   4.878   3.238 -1.5018  0.5722 -0.6038
 9075TIP3    H248641   6.283   4.848   3.382 -1.7974 -0.3822 -0.8645
 9076TIP3   OH248642   6.430   3.264  17.213 -0.1539 -0.1487  0.6239
 9076TIP3    H148643   6.340   3.231  17.208  0.2062 -0.9443 -2.4508
 9076TIP3    H248644   6.480   3.193  17.252 -0.1702 -1.5884 -1.7831
 9077TIP3   OH248645   5.135   5.780  11.682 -0.2274  0.2139  0.2700
 9077TIP3    H148646   5.199   5.824  11.738  0.2506  0.3569 -0.3793
 9077TIP3    H248647   5.050   5.805  11.719  0.0557  1.1234  0.3297
 9078TIP3   OH248648   5.374   0.263  10.285  0.4532 -1.0405 -0.4365
 9078TIP3    H148649   5.465   0.234  10.279  0.6025 -0.7441  0.2836
 9078TIP3    H248650   5.334   0.206  10.350  0.4320 -0.4428  0.0885
 9079TIP3   OH248651   4.802   6.406  11.256 -0.3396 -0.1993  0.3441
 9079TIP3    H148652   4.775   6.412  11.347 -1.6929  1.0175 -0.0959
 9079TIP3    H248653   4.886   6.360  11.258 -0.8222 -1.0782  2.0987
 9080TIP3   OH248654   6.638   0.382   2.762 -0.6250 -0.2217 -0.4846
 9080TIP3    H148655   6.640   0.465   2.716 -2.1143  0.5233  0.6946
 9080TIP3    H248656   6.597   0.321   2.700  0.4398 -0.0881 -1.3410
 9081TIP3   OH248657   4.044   3.881  14.133 -0.5938 -0.4133  0.0294
 9081TIP3    H148658   4.016   3.960  14.180  0.4715 -0.4783  0.8258
 9081TIP3    H248659   4.067   3.819  14.203 -3.0304 -2.0927 -0.5231
 9082TIP3   OH248660   4.247   1.297   5.530  0.0846  0.1337  0.8909
 9082TIP3    H148661   4.321   1.319   5.586 -0.7430  0.8710  1.7328
 9082TIP3    H248662   4.277   1.318   5.441  0.7943  0.6497  1.2472
 9083TIP3   OH248663   3.534   5.431  11.758 -0.0355 -0.3660 -0.5458
 9083TIP3    H148664   3.492   5.509  11.797 -1.2813 -2.1479  1.9527
 9083TIP3    H248665   3.465   5.392  11.704 -0.5651 -1.4496  0.8453
 9084TIP3   OH248666   4.230   0.601   5.964  0.5241 -0.3323  0.7296
 9084TIP3    H148667   4.205   0.517   6.002  1.1409 -0.7195  0.2994
 9084TIP3    H248668   4.225   0.663   6.037  0.5424 -0.8315  1.1609
 9085TIP3   OH248669   3.719   4.377   6.140 -0.4200 -0.3732 -0.7012
 9085TIP3    H148670   3.624   4.388   6.142 -0.2550  1.2254  0.4719
 9085TIP3    H248671   3.744   4.399   6.050 -1.2844 -2.5926 -1.5586
 9086TIP3   OH248672   1.729   4.685   1.447  0.2282  0.1113 -0.1398
 9086TIP3    H148673   1.743   4.690   1.542  1.2534  0.6988 -0.3050
 9086TIP3    H248674   1.804   4.634   1.415  0.1802  0.3808 -0.6874
 9087TIP3   OH248675   2.772   2.874   6.319 -0.6102  0.8775 -0.0296
 9087TIP3    H148676   2.717   2.840   6.249 -0.9637 -0.0839  0.6945
 9087TIP3    H248677   2.830   2.938   6.276  0.2313 -0.7830 -1.4839
 9088TIP3   OH248678   0.206   3.069   1.990 -0.0490  0.2931 -0.0001
 9088TIP3    H148679   0.194   3.125   1.914 -1.8366 -0.4093 -0.2821
 9088TIP3    H248680   0.204   3.130   2.065  0.2867  0.8266 -0.4148
 9089TIP3   OH248681   3.366   2.307   5.549 -0.0242 -0.2416 -0.0188
 9089TIP3    H148682   3.448   2.259   5.541 -0.1616 -0.4556 -0.1492
 9089TIP3    H248683   3.339   2.294   5.640  0.3876  0.3222  0.1899
 9090TIP3   OH248684   4.108   4.097  17.241  0.2931  0.0107 -0.3278
 9090TIP3    H148685   4.092   4.137  17.156 -0.0213  0.2359 -0.1631
 9090TIP3    H248686   4.070   4.009  17.234 -1.6764  0.7547  0.2737
 9091TIP3   OH248687   1.146   3.925  14.085 -0.2831  0.7875  0.0290
 9091TIP3    H148688   1.188   3.902  14.002  0.5412  1.8031  0.1473
 9091TIP3    H248689   1.178   4.013  14.104 -2.7904  1.8148 -0.0872
 9092TIP3   OH248690   2.940   2.538   4.093  0.2806  0.1151 -0.1125
 9092TIP3    H148691   2.952   2.456   4.046  0.4238 -0.5152  0.9890
 9092TIP3    H248692   3.009   2.538   4.160  2.0908  2.4239 -1.7814
 9093TIP3   OH248693   0.428   0.498   0.268  0.2827 -0.0545 -0.0184
 9093TIP3    H148694   0.463   0.433   0.328 -0.8929  0.8277  1.6992
 9093TIP3    H248695   0.349   0.532   0.311  0.7127  2.3412 -0.9429
 9094TIP3   OH248696   4.596   1.884  12.225 -0.4722 -0.0470 -0.5398
 9094TIP3    H148697   4.557   1.928  12.149 -3.4826  1.1681  1.5004
 9094TIP3    H248698   4.643   1.953  12.271  1.2800 -0.7639 -1.1933
 9095TIP3   OH248699   6.222   0.830  16.467  0.0164 -0.1262  0.1475
 9095TIP3    H148700   6.152   0.826  16.403  0.1279 -0.7607  0.0613
 9095TIP3    H248701   6.274   0.751  16.452  0.4790  0.1007  0.5160
 9096TIP3   OH248702   1.678   5.385  15.319  0.1558  0.0069  0.1293
 9096TIP3    H148703   1.757   5.387  15.374 -1.1829 -1.0145  2.2483
 9096TIP3    H248704   1.698   5.321  15.251  1.7884  1.1111 -0.4822
 9097TIP3   OH248705   6.280   3.262  11.865  0.0114 -0.2528 -0.7142
 9097TIP3    H148706   6.328   3.317  11.803  1.6820  0.0497  0.7497
 9097TIP3    H248707   6.290   3.173  11.832  1.7003 -0.2006 -0.4346
 9098TIP3   OH248708   0.071   0.288  11.070  0.3188  0.3277  0.3431
 9098TIP3    H148709   0.104   0.201  11.047  2.3706  0.5996  1.8852
 9098TIP3    H248710   0.116   0.347  11.009 -0.3604  0.3911 -0.1000
 9099TIP3   OH248711   4.677   4.471  16.027 -0.0505 -0.2658  0.2017
 9099TIP3    H148712   4.625   4.477  15.947 -0.5228  0.3720  0.5525
 9099TIP3    H248713   4.664   4.555  16.071 -1.1678 -1.2199  1.7841
 9100TIP3   OH248714   3.313   1.939  16.402  0.3237  0.3911 -0.8501
 9100TIP3    H148715   3.227   1.949  16.442 -0.2774  0.0513 -2.0125
 9100TIP3    H248716   3.366   1.899  16.471 -0.6556 -0.1298 -0.3688
 9101TIP3   OH248717   5.112   4.314  11.488 -0.2538 -0.4037 -0.7145
 9101TIP3    H148718   5.076   4.400  11.462  0.7672  0.3169  0.1719
 9101TIP3    H248719   5.045   4.251  11.460 -0.5679  0.5728 -2.3238
 9102TIP3   OH248720   0.442   1.433  12.645  0.6091 -0.1219 -0.2132
 9102TIP3    H148721   0.405   1.510  12.688  1.8654 -0.0731  0.8308
 9102TIP3    H248722   0.499   1.394  12.710 -2.0077 -3.5439  0.3496
 9103TIP3   OH248723   4.604   6.075   5.520  0.9895  0.5166  0.0413
 9103TIP3    H148724   4.626   5.986   5.545  1.1604  0.5352 -0.0433
 9103TIP3    H248725   4.518   6.068   5.477  0.5103  0.5365  0.9815
 9104TIP3   OH248726   3.718   3.448   1.131 -0.7023 -0.1484  0.4597
 9104TIP3    H148727   3.801   3.433   1.177 -0.7544 -1.9440  0.0373
 9104TIP3    H248728   3.670   3.509   1.188  0.7901  0.7678  0.8144
 9105TIP3   OH248729   0.520   6.515   2.150 -0.1721 -0.2400 -0.1538
 9105TIP3    H148730   0.518   6.494   2.243 -1.1865 -0.8700 -0.3002
 9105TIP3    H248731   0.613   6.517   2.128  0.0581 -1.4350  0.5926
 9106TIP3   OH248732   1.185   4.214  15.668 -0.2546 -0.4113  0.0338
 9106TIP3    H148733   1.227   4.247  15.588  0.5527  0.2248  0.7111
 9106TIP3    H248734   1.106   4.171  15.636  0.3521 -0.6830 -1.1687
 9107TIP3   OH248735   6.756   5.555  15.942  0.7654  0.6915 -0.3637
 9107TIP3    H148736   6.822   5.503  15.989 -1.7670 -2.2527  0.2961
 9107TIP3    H248737   6.685   5.566  16.005 -1.2809 -0.3135 -2.3636
 9108TIP3   OH248738   6.412   1.364  11.430 -0.3586  0.2425  0.1301
 9108TIP3    H148739   6.451   1.444  11.396  0.7228  0.7625  2.3800
 9108TIP3    H248740   6.320   1.370  11.404  0.0972  1.2496 -1.3866
 9109TIP3   OH248741   3.182   6.784   3.032 -0.1218  0.1962  0.5600
 9109TIP3    H148742   3.215   6.704   3.072 -0.5073 -0.2916 -0.0933
 9109TIP3    H248743   3.141   6.756   2.950  1.2469  1.2596 -0.5270
 9110TIP3   OH248744   1.483   6.778  17.215 -0.3671 -0.4833  0.4929
 9110TIP3    H148745   1.448   6.866  17.201  0.4200 -0.1552  0.5399
 9110TIP3    H248746   1.443   6.749  17.297  0.1282  0.2326  0.9988
 9111TIP3   OH248747   4.255   0.470  16.645 -0.2634  0.2882  0.1120
 9111TIP3    H148748   4.177   0.490  16.595 -1.4041 -0.4131  1.5101
 9111TIP3    H248749   4.265   0.543  16.706  0.0974  0.3210  0.0155
 9112TIP3   OH248750   3.860   0.028   5.607 -0.9220  0.3088  0.6528
 9112TIP3    H148751   3.856  -0.063   5.577 -1.6607  0.2490  0.9241
 9112TIP3    H248752   3.823   0.026   5.695 -0.0099  0.7087  1.0543
 9113TIP3   OH248753   0.083   2.071  13.478 -0.3452 -0.1011  0.2176
 9113TIP3    H148754   0.159   2.100  13.428  0.5887 -1.2509  0.9336
 9113TIP3    H248755   0.072   1.979  13.454 -1.4548  0.0214  0.2053
 9114TIP3   OH248756   6.570   2.809   2.174 -0.1801 -0.1390 -0.4883
 9114TIP3    H148757   6.547   2.763   2.094 -0.4732 -1.0008  0.0717
 9114TIP3    H248758   6.618   2.744   2.226  0.2428  0.4870 -0.0793
 9115TIP3   OH248759   2.803   4.626   0.654 -0.5400  0.2972  0.1749
 9115TIP3    H148760   2.789   4.568   0.728  0.7126  0.4042  0.5119
 9115TIP3    H248761   2.818   4.567   0.580 -3.0127  0.1604 -0.3145
 9116TIP3   OH248762   1.680   4.914  13.041 -0.1702  0.6334  0.2288
 9116TIP3    H148763   1.643   4.868  13.117  1.0382  1.0950  1.1259
 9116TIP3    H248764   1.765   4.872  13.027 -0.0606  1.0585 -0.4016
 9117TIP3   OH248765   3.733   3.039   2.639  0.3090 -0.1318  0.3507
 9117TIP3    H148766   3.779   3.008   2.717  3.3618 -0.1849 -1.3073
 9117TIP3    H248767   3.695   2.960   2.601 -0.8099 -0.1696  1.4784
 9118TIP3   OH248768   4.316   1.387  15.369  0.0989  0.1273 -0.2228
 9118TIP3    H148769   4.334   1.326  15.440  3.2132  1.5828  0.4195
 9118TIP3    H248770   4.352   1.344  15.291 -0.2470 -0.0468 -0.2853
 9119TIP3   OH248771   3.765   6.157   0.061 -0.5612 -0.0273  0.1539
 9119TIP3    H148772   3.774   6.062   0.062  0.1459 -0.0120 -1.3453
 9119TIP3    H248773   3.845   6.188   0.018 -2.0845  1.0180 -2.1149
 9120TIP3   OH248774   4.566   0.805  11.190 -0.1332  0.4751  0.2204
 9120TIP3    H148775   4.575   0.848  11.104  1.4797  0.4475  0.3386
 9120TIP3    H248776   4.525   0.871  11.245  1.4678  1.5906  0.1534
 9121TIP3   OH248777   2.254   1.618   2.199  0.3247  0.5075 -0.0750
 9121TIP3    H148778   2.328   1.585   2.249 -0.4298 -1.4913 -0.1963
 9121TIP3    H248779   2.257   1.569   2.117 -1.2406  0.2106  0.0174
 9122TIP3   OH248780   4.305   4.311  16.017  0.0459 -0.5494 -0.7424
 9122TIP3    H148781   4.277   4.224  16.045  2.8119 -1.9546 -1.9498
 9122TIP3    H248782   4.263   4.371  16.078 -1.5883 -2.7380  0.4212
 9123TIP3   OH248783   1.752   6.243   0.457 -0.0800  0.2368  0.2202
 9123TIP3    H148784   1.764   6.156   0.495 -2.6729  0.3508  1.4911
 9123TIP3    H248785   1.663   6.268   0.479  0.9231  3.7937  1.0717
 9124TIP3   OH248786   4.129   3.363  12.287 -0.0009  0.2042 -0.4599
 9124TIP3    H148787   4.168   3.384  12.372 -0.3795 -3.6359  0.8598
 9124TIP3    H248788   4.036   3.380  12.299 -0.1538 -0.9891  0.1980
 9125TIP3   OH248789   2.186   4.376  12.679 -0.7938 -0.4034 -0.1223
 9125TIP3    H148790   2.215   4.383  12.588 -1.6081 -2.0459 -0.5273
 9125TIP3    H248791   2.229   4.297  12.712 -1.7072 -0.6657  0.4551
 9126TIP3   OH248792   5.362   1.046  12.610 -0.1892 -0.1993  0.2950
 9126TIP3    H148793   5.373   1.129  12.657  1.9135 -0.1356 -0.2123
 9126TIP3    H248794   5.270   1.023  12.623 -0.1833  0.8637  2.6773
 9127TIP3   OH248795   3.618   3.987   0.543 -0.1205  0.5716 -0.6132
 9127TIP3    H148796   3.556   4.060   0.553 -0.7423 -0.1411  0.9014
 9127TIP3    H248797   3.583   3.936   0.470 -1.6410 -0.0754  0.5039
 9128TIP3   OH248798   0.453   1.639   1.905 -0.0723  0.7384  0.3872
 9128TIP3    H148799   0.389   1.580   1.863  0.3298 -0.0690  0.8787
 9128TIP3    H248800   0.400   1.709   1.942 -0.6640  0.1574  0.6590
 9129TIP3   OH248801   6.320   0.818  11.966  0.0976 -0.0536  0.0395
 9129TIP3    H148802   6.366   0.885  11.915  2.3955 -1.5903 -0.0974
 9129TIP3    H248803   6.303   0.748  11.903 -0.9599 -0.1998  0.4768
 9130TIP3   OH248804   1.029   6.705   2.616 -0.0492  0.0282 -0.0471
 9130TIP3    H148805   1.032   6.735   2.707 -1.6024 -1.1801  0.4446
 9130TIP3    H248806   0.991   6.617   2.620 -2.6104  0.8823 -2.0302
 9131TIP3   OH248807   4.234   1.587  14.981  0.4705 -0.0706  0.0491
 9131TIP3    H148808   4.240   1.581  15.076  1.6578 -1.6312 -0.0948
 9131TIP3    H248809   4.272   1.673  14.960  1.8803 -0.4711  0.8650
 9132TIP3   OH248810   6.542   4.047   5.940 -0.6996 -0.0247 -0.2244
 9132TIP3    H148811   6.574   4.023   5.852 -0.9612  2.1379 -0.9634
 9132TIP3    H248812   6.622   4.064   5.990 -0.5698  0.9295 -0.7311
 9133TIP3   OH248813   0.243   5.243   1.439  0.4781  0.0750 -0.3406
 9133TIP3    H148814   0.173   5.307   1.434  0.2189 -0.2165 -0.4449
 9133TIP3    H248815   0.263   5.222   1.348  0.8749  0.3435 -0.3204
 9134TIP3   OH248816   5.188   5.274   3.604  0.0586  0.1855  0.2452
 9134TIP3    H148817   5.144   5.239   3.682  0.8230  0.9690  1.0654
 9134TIP3    H248818   5.141   5.236   3.530  0.6185 -2.2466  1.0581
 9135TIP3   OH248819   1.349   0.161   5.875  0.4131 -0.2441  0.5111
 9135TIP3    H148820   1.445   0.159   5.874  0.4227 -0.1817 -0.7994
 9135TIP3    H248821   1.326   0.241   5.828 -0.3027  1.3479  3.3586
 9136TIP3   OH248822   2.895   6.204  11.953 -0.4206 -0.6372  0.1747
 9136TIP3    H148823   2.824   6.205  12.018 -0.2950  1.6306  0.3508
 9136TIP3    H248824   2.975   6.201  12.005 -0.3117  1.4480  0.2256
 9137TIP3   OH248825   4.578   5.464   1.509 -0.5479  0.4127  0.6817
 9137TIP3    H148826   4.614   5.546   1.477  1.9308 -0.7958  0.1235
 9137TIP3    H248827   4.497   5.451   1.458 -0.9940  2.4649  0.8134
 9138TIP3   OH248828   3.927   3.164   1.011 -1.1613 -0.0705 -0.3645
 9138TIP3    H148829   3.970   3.088   0.972 -1.3712 -0.3311 -0.0934
 9138TIP3    H248830   3.943   3.235   0.949 -1.9255 -0.6013 -1.1868
 9139TIP3   OH248831   6.784   5.445   2.272  0.3274 -0.7745 -0.2887
 9139TIP3    H148832   6.724   5.392   2.325 -0.5816 -0.3385 -0.8624
 9139TIP3    H248833   6.740   5.456   2.188 -0.0969  1.8735  0.1680
 9140TIP3   OH248834   3.177   0.107   1.216  0.2161 -0.0717 -0.3788
 9140TIP3    H148835   3.158   0.170   1.286 -1.6972  0.2354 -1.1413
 9140TIP3    H248836   3.228   0.157   1.152  1.1301 -0.0933  0.3083
 9141TIP3   OH248837   4.880   4.293   1.065 -0.0514  0.1291 -0.6321
 9141TIP3    H148838   4.852   4.313   1.155 -1.3371 -0.3447 -0.9120
 9141TIP3    H248839   4.932   4.213   1.074 -0.1365  0.1071 -0.3019
 9142TIP3   OH248840   1.027   6.128  16.146 -0.1313 -0.2219 -0.2844
 9142TIP3    H148841   0.994   6.171  16.067  0.4566  0.8925  0.0547
 9142TIP3    H248842   0.949   6.090  16.186 -0.6072  0.1466 -0.8288
 9143TIP3   OH248843   5.720   2.403   6.509 -0.2127  0.6030 -0.4090
 9143TIP3    H148844   5.745   2.333   6.570  0.2087  0.1836 -1.0446
 9143TIP3    H248845   5.663   2.460   6.560 -0.3591 -0.0696  0.2007
 9144TIP3   OH248846   2.328   5.281  14.892  0.0379 -0.2001  0.3424
 9144TIP3    H148847   2.319   5.343  14.965 -0.5970 -0.5738  0.5870
 9144TIP3    H248848   2.392   5.322  14.834 -1.1520  1.2133 -0.0384
 9145TIP3   OH248849   4.374   4.995   2.578  0.7634  0.0862 -0.8960
 9145TIP3    H148850   4.397   5.050   2.502  0.1686 -0.1173 -1.2257
 9145TIP3    H248851   4.412   4.909   2.558  1.1456  0.1997 -0.6715
 9146TIP3   OH248852   1.506   5.405   3.777  0.6275 -0.0556  0.6613
 9146TIP3    H148853   1.490   5.373   3.865  0.8168 -0.2242  0.6387
 9146TIP3    H248854   1.465   5.339   3.720  0.5570  0.0213  0.6237
 9147TIP3   OH248855   6.237   2.662   2.068  0.8659 -0.0949 -0.1354
 9147TIP3    H148856   6.166   2.637   2.009  0.5099  0.4536  0.0569
 9147TIP3    H248857   6.304   2.698   2.010 -0.4913  2.8409 -0.0570
 9148TIP3   OH248858   0.404   3.740  13.600  0.6515  0.0636  0.5790
 9148TIP3    H148859   0.444   3.653  13.601 -1.5097 -1.0224 -1.0268
 9148TIP3    H248860   0.315   3.726  13.633  0.3309  1.7113  0.4819
 9149TIP3   OH248861   2.324   5.672  11.920  0.5566  0.7582  0.6184
 9149TIP3    H148862   2.348   5.730  11.847  1.9479 -0.9846 -0.3727
 9149TIP3    H248863   2.299   5.590  11.878  0.0144  0.1616  2.0606
 9150TIP3   OH248864   5.902   4.979  13.131 -0.3051 -0.0386 -0.2688
 9150TIP3    H148865   5.930   5.062  13.168 -0.1309 -0.0254 -0.4297
 9150TIP3    H248866   5.942   4.913  13.187 -0.8798 -0.0143  0.1834
 9151TIP3   OH248867   3.139   4.760  15.204 -0.6195  0.2004  0.4119
 9151TIP3    H148868   3.088   4.727  15.130 -1.5575  0.9567  0.7106
 9151TIP3    H248869   3.207   4.815  15.164 -1.9061  1.6644  0.1329
 9152TIP3   OH248870   1.772   6.649  17.120  0.4481  0.4672  0.6833
 9152TIP3    H148871   1.695   6.647  17.176 -0.3290 -1.5493 -0.3259
 9152TIP3    H248872   1.836   6.594  17.165  0.5057  0.4027  0.5271
 9153TIP3   OH248873   3.087   1.785   0.839 -0.4354  0.5008 -0.1514
 9153TIP3    H148874   3.177   1.780   0.872  0.0618 -0.4058 -1.5483
 9153TIP3    H248875   3.076   1.878   0.817 -0.5021  0.9706  1.6942
 9154TIP3   OH248876   0.114   1.059   5.951 -0.2431  0.0119 -1.0005
 9154TIP3    H148877   0.065   1.078   5.871 -2.8151 -0.7448  0.2746
 9154TIP3    H248878   0.085   1.125   6.013  0.5044 -0.3666 -0.2232
 9155TIP3   OH248879   3.916   5.811  15.136  0.1236 -0.0841  0.0680
 9155TIP3    H148880   3.952   5.860  15.210  2.4337 -0.5951 -0.6424
 9155TIP3    H248881   3.982   5.745  15.116 -0.0616  0.4739 -2.8884
 9156TIP3   OH248882   1.567   2.192  13.818  0.2395 -0.8245  0.0600
 9156TIP3    H148883   1.558   2.143  13.899  2.6797  0.5019  1.2678
 9156TIP3    H248884   1.546   2.282  13.842 -0.8314 -0.6948 -1.2686
 9157TIP3   OH248885   2.509   4.877  16.851 -0.0783 -0.0808 -0.2453
 9157TIP3    H148886   2.451   4.803  16.868  2.2824 -1.8503  0.7561
 9157TIP3    H248887   2.522   4.876  16.756  1.1440 -2.0627 -0.1179
 9158TIP3   OH248888   1.980   2.704   2.516 -0.3409  0.1884 -0.1735
 9158TIP3    H148889   1.896   2.660   2.503 -0.4773 -0.1478  1.5985
 9158TIP3    H248890   1.967   2.793   2.483 -1.0757 -0.1560 -0.8143
 9159TIP3   OH248891   6.467   3.353   2.866  0.2923 -0.2268  0.0026
 9159TIP3    H148892   6.560   3.337   2.847  0.0272 -0.5470 -1.0716
 9159TIP3    H248893   6.421   3.281   2.824 -0.5166  0.3905 -0.1870
 9160TIP3   OH248894   0.271   5.613  15.921 -0.2278 -0.0448 -0.2555
 9160TIP3    H148895   0.252   5.539  15.862  0.0668  0.3286 -0.8210
 9160TIP3    H248896   0.226   5.590  16.002 -1.4368 -0.1354 -0.9213
 9161TIP3   OH248897   4.851   5.152  13.807 -0.4625 -0.7516 -0.6586
 9161TIP3    H148898   4.850   5.058  13.789  0.3514 -1.0696  0.7407
 9161TIP3    H248899   4.944   5.171  13.823 -0.8023 -0.0331  0.5434
 9162TIP3   OH248900   1.421   2.258   4.492  0.9471 -0.2285 -0.0694
 9162TIP3    H148901   1.407   2.168   4.521  1.5506  0.2149  1.7442
 9162TIP3    H248902   1.455   2.250   4.403  1.4715 -1.8056  0.2501
 9163TIP3   OH248903   1.400   5.287  12.342  0.6959 -0.8684  0.2825
 9163TIP3    H148904   1.379   5.251  12.257 -1.6136  0.7959  0.0457
 9163TIP3    H248905   1.436   5.374  12.323  4.1264 -1.9675  0.9222
 9164TIP3   OH248906   3.572   2.940  13.511 -0.0808  0.6060  0.1239
 9164TIP3    H148907   3.564   3.020  13.563  1.1528  1.3855 -0.8160
 9164TIP3    H248908   3.644   2.892  13.552 -0.4420  0.2469  0.3422
 9165TIP3   OH248909   6.525   4.880  11.162 -0.8990  0.1076 -0.1967
 9165TIP3    H148910   6.442   4.865  11.117  0.4195 -0.3597 -2.6052
 9165TIP3    H248911   6.585   4.814  11.127  0.6239  0.6561  1.2083
 9166TIP3   OH248912   3.613   0.423  15.064 -0.0679 -0.4054 -0.6776
 9166TIP3    H148913   3.675   0.440  14.993 -1.4540 -1.1057 -2.1258
 9166TIP3    H248914   3.571   0.508  15.080  0.0821 -0.2963 -0.8663
 9167TIP3   OH248915   4.820   6.376   1.143 -0.0095  0.3460  0.0888
 9167TIP3    H148916   4.841   6.405   1.232  1.7218  0.3187 -0.2930
 9167TIP3    H248917   4.761   6.444   1.109 -0.9726  0.1840  1.3438
 9168TIP3   OH248918   5.168   4.075  16.440  0.1516 -0.3232 -0.1247
 9168TIP3    H148919   5.250   4.124  16.447 -0.1797  0.5239 -1.6299
 9168TIP3    H248920   5.109   4.134  16.393 -1.2367 -1.0371  0.6591
 9169TIP3   OH248921   4.301   3.056   6.144 -0.1680  0.0911 -0.7847
 9169TIP3    H148922   4.262   2.969   6.159  2.0188 -1.0909 -1.4711
 9169TIP3    H248923   4.394   3.038   6.128  0.9801  2.8124  1.8301
 9170TIP3   OH248924   6.706   0.300   2.167  0.3095  0.0408 -0.0634
 9170TIP3    H148925   6.774   0.245   2.205 -0.2735 -0.6872 -0.0299
 9170TIP3    H248926   6.629   0.283   2.221  0.0166  0.5984 -0.2975
 9171TIP3   OH248927   2.777   2.045  16.045  0.4666 -0.0628 -0.0036
 9171TIP3    H148928   2.826   2.030  15.964  1.4064 -0.5743  0.6287
 9171TIP3    H248929   2.831   2.107  16.094  0.1676 -0.1486  0.4405
 9172TIP3   OH248930   2.353   5.437  15.684  0.0117 -0.3263  0.5215
 9172TIP3    H148931   2.420   5.429  15.752 -1.1082  0.3875  1.7629
 9172TIP3    H248932   2.371   5.364  15.624  2.5415  0.4803  0.1891
 9173TIP3   OH248933   5.291   6.386  15.880 -0.1651  0.0382 -0.2411
 9173TIP3    H148934   5.235   6.430  15.944 -1.6876 -0.4031 -1.2234
 9173TIP3    H248935   5.305   6.299  15.916 -0.3611  0.0531 -0.1307
 9174TIP3   OH248936   3.061   1.283  12.566 -0.4675 -0.2408  0.2488
 9174TIP3    H148937   3.038   1.224  12.495 -2.6403  0.4411  0.3094
 9174TIP3    H248938   3.147   1.318  12.542 -0.7654 -0.6707 -1.5981
 9175TIP3   OH248939   3.628   1.993   4.203 -0.0798  0.4080  0.2108
 9175TIP3    H148940   3.685   1.924   4.170 -0.7794  0.4852 -1.2531
 9175TIP3    H248941   3.542   1.950   4.213 -0.2951  0.8337  0.2020
 9176TIP3   OH248942   2.068   1.944  14.032 -0.1197  0.1602  0.3696
 9176TIP3    H148943   2.048   1.924  13.941  0.9602  1.8439 -0.2906
 9176TIP3    H248944   1.983   1.964  14.071 -0.3160  3.9365 -1.5134
 9177TIP3   OH248945   1.286   1.254  16.924  0.6002 -0.4259  0.2336
 9177TIP3    H148946   1.233   1.263  17.003  0.8893  1.2202  0.2750
 9177TIP3    H248947   1.368   1.214  16.954  2.0324  3.0591  1.4641
 9178TIP3   OH248948   6.652   0.518  13.418 -0.4569 -0.3940  0.3274
 9178TIP3    H148949   6.560   0.526  13.390  0.1370  0.6788 -1.4876
 9178TIP3    H248950   6.702   0.553  13.345  1.3813 -0.1078  1.6579
 9179TIP3   OH248951   4.134   6.227   3.195  0.3189 -0.2812  0.5049
 9179TIP3    H148952   4.082   6.259   3.269  2.7253 -1.4753  2.9186
 9179TIP3    H248953   4.175   6.306   3.159  0.1102  0.2224  1.3320
 9180TIP3   OH248954   6.572   0.280   4.323 -0.2178  0.2919 -0.6541
 9180TIP3    H148955   6.634   0.308   4.256 -0.2440  1.5479 -0.1861
 9180TIP3    H248956   6.546   0.361   4.367 -0.9357 -0.3971  0.2388
 9181TIP3   OH248957   2.986   2.897  16.969  0.2533  0.4257  0.4472
 9181TIP3    H148958   3.021   2.983  16.947 -2.7440  1.1644 -2.3100
 9181TIP3    H248959   2.899   2.916  17.006 -0.8561 -1.3520 -1.0651
 9182TIP3   OH248960   3.364   6.764   5.480 -0.1081 -0.2264  0.0538
 9182TIP3    H148961   3.455   6.760   5.448  0.2212 -2.1721  1.1242
 9182TIP3    H248962   3.344   6.858   5.479  1.1486  0.1076 -2.2288
 9183TIP3   OH248963   2.944   1.172  15.345  0.3031  0.4310  0.3606
 9183TIP3    H148964   2.925   1.136  15.259 -0.2860  2.1273 -0.2555
 9183TIP3    H248965   2.875   1.137  15.402 -1.2464  1.8036 -0.5818
 9184TIP3   OH248966   6.350   0.760  14.523  0.1211 -0.2086  0.3381
 9184TIP3    H148967   6.310   0.836  14.480  1.6408 -0.0718 -0.9310
 9184TIP3    H248968   6.326   0.685  14.469  0.4955 -0.3067  0.3022
 9185TIP3   OH248969   4.815   3.020   0.207 -0.7497  0.0028  0.2151
 9185TIP3    H148970   4.736   3.067   0.180 -0.3773  2.5894  3.0985
 9185TIP3    H248971   4.782   2.947   0.259 -1.4552  2.3457  3.3700
 9186TIP3   OH248972   6.557   3.961   2.473  0.0244 -0.0239  0.0868
 9186TIP3    H148973   6.548   4.035   2.533 -0.7445 -0.5743  0.6804
 9186TIP3    H248974   6.647   3.931   2.486 -0.2683 -0.4384  1.3701
 9187TIP3   OH248975   5.203   6.636  12.082 -0.6513  0.4105 -0.0488
 9187TIP3    H148976   5.276   6.579  12.104 -0.2477  0.2157 -1.7454
 9187TIP3    H248977   5.192   6.626  11.988 -2.5169  0.8677  0.0758
 9188TIP3   OH248978   3.180   4.275  13.034  0.5444  0.1368  0.0361
 9188TIP3    H148979   3.151   4.186  13.015 -3.5024  1.5254 -1.3186
 9188TIP3    H248980   3.200   4.312  12.948  0.3674  1.0799  0.3903
 9189TIP3   OH248981   5.582   4.932  13.963 -0.0886 -0.3715  0.1183
 9189TIP3    H148982   5.549   5.018  13.989  0.5186 -0.2583  0.5515
 9189TIP3    H248983   5.630   4.900  14.040  1.6271 -0.0904 -0.7766
 9190TIP3   OH248984   3.296   3.426  15.668 -0.7743  0.3934  0.5672
 9190TIP3    H148985   3.223   3.425  15.606 -0.0270 -1.1809 -0.3662
 9190TIP3    H248986   3.340   3.342  15.654  0.5093  0.7890  1.9568
 9191TIP3   OH248987   6.419   4.761   5.397  0.0921 -0.3107  0.3855
 9191TIP3    H148988   6.417   4.847   5.438 -1.7286  1.0119 -2.1936
 9191TIP3    H248989   6.508   4.753   5.361  0.2188  0.5420  0.5029
 9192TIP3   OH248990   3.530   4.509   4.049  0.1355 -0.0170  0.4190
 9192TIP3    H148991   3.565   4.551   3.971  0.7821 -0.2762  0.5612
 9192TIP3    H248992   3.541   4.574   4.119  0.0579  0.0129  0.4037
 9193TIP3   OH248993   6.473   4.314   2.168  0.3918  0.0915  0.5928
 9193TIP3    H148994   6.463   4.375   2.241  0.4876 -1.7303  2.2003
 9193TIP3    H248995   6.459   4.228   2.207 -0.9130 -0.8788 -1.8073
 9194TIP3   OH248996   6.644   6.230   4.537 -0.1299  0.4452  0.1233
 9194TIP3    H148997   6.686   6.313   4.556 -1.4911  1.2805 -0.3500
 9194TIP3    H248998   6.592   6.211   4.615 -0.0282  0.1747  0.1260
 9195TIP3   OH248999   0.963   5.828  13.200  0.2416 -0.2047  0.0835
 9195TIP3    H149000   0.926   5.803  13.285  1.0282 -2.2239 -0.1243
 9195TIP3    H249001   0.943   5.922  13.193 -0.5711 -0.1593  2.1056
 9196TIP3   OH249002   3.691   4.863  15.423 -0.2103 -0.0763 -0.0779
 9196TIP3    H149003   3.675   4.885  15.332  0.4274  1.5189  0.1674
 9196TIP3    H249004   3.625   4.797  15.444 -0.3923 -0.4198 -1.6674
 9197TIP3   OH249005   0.365   1.957   2.996 -0.1883  0.4066  0.1308
 9197TIP3    H149006   0.278   1.992   2.979  0.1062  0.4277 -1.5655
 9197TIP3    H249007   0.415   1.980   2.917  0.5857 -1.9604 -0.1515
 9198TIP3   OH249008   1.191   5.676   0.307  0.3581 -0.5113  0.0757
 9198TIP3    H149009   1.270   5.655   0.357 -0.2394 -1.6494  0.5844
 9198TIP3    H249010   1.223   5.704   0.221  1.5037  2.6913  1.3594
 9199TIP3   OH249011   1.364   1.743   3.879 -0.2427 -0.0240  0.0208
 9199TIP3    H149012   1.321   1.702   3.804 -0.9961  0.5791  0.1190
 9199TIP3    H249013   1.296   1.795   3.921  0.6997  1.4203 -0.1599
 9200TIP3   OH249014   6.758   6.580   5.084 -0.1662 -0.3345 -0.7679
 9200TIP3    H149015   6.723   6.493   5.106 -0.5341  0.7018  3.7219
 9200TIP3    H249016   6.682   6.630   5.055 -0.7812 -0.5271  0.4196
 9201TIP3   OH249017   2.252   3.461   3.195  0.5490  0.4774 -0.5937
 9201TIP3    H149018   2.308   3.386   3.214 -2.2501 -1.7009 -0.3036
 9201TIP3    H249019   2.291   3.502   3.118  1.1179 -2.5183 -2.0460
 9202TIP3   OH249020   6.454   5.058  16.323  0.1078  0.0249  0.6625
 9202TIP3    H149021   6.505   5.113  16.382 -0.6799  1.5374  0.0120
 9202TIP3    H249022   6.365   5.095  16.327 -0.1798 -0.4436 -0.7027
 9203TIP3   OH249023   2.055   5.269   3.779  0.3716  0.6788  0.2230
 9203TIP3    H149024   2.145   5.248   3.803  0.3370 -0.5349 -0.6690
 9203TIP3    H249025   2.009   5.185   3.778 -1.0866  1.3773  1.8064
 9204TIP3   OH249026   5.508   5.592   4.526  0.3892  0.4995 -0.2491
 9204TIP3    H149027   5.524   5.500   4.544 -0.7443  0.1485 -0.9211
 9204TIP3    H249028   5.442   5.618   4.591 -0.9317  0.2194 -1.4220
 9205TIP3   OH249029   0.330   0.473  13.352 -0.5751  0.2754  0.0292
 9205TIP3    H149030   0.357   0.430  13.433  2.1572 -1.9468 -1.8795
 9205TIP3    H249031   0.236   0.452  13.345 -0.8464  0.3572  2.4321
 9206TIP3   OH249032   5.464   3.615  15.602 -0.0732 -0.2552 -0.9284
 9206TIP3    H149033   5.451   3.699  15.558 -1.4911 -0.8848 -1.7436
 9206TIP3    H249034   5.376   3.586  15.627  0.4918 -1.0032  0.3175
 9207TIP3   OH249035   2.268   1.467  11.229 -1.1039 -0.1568  0.0560
 9207TIP3    H149036   2.279   1.550  11.274  0.0181  1.2608 -2.6193
 9207TIP3    H249037   2.304   1.402  11.290  0.5127  1.6489  1.1425
 9208TIP3   OH249038   1.147   1.309   5.415  0.1162 -0.1017  0.2459
 9208TIP3    H149039   1.139   1.221   5.452  0.9731 -0.6529 -0.8142
 9208TIP3    H249040   1.121   1.367   5.486  2.5371 -1.0475  2.0654
 9209TIP3   OH249041   4.655   6.511   3.646 -0.1579  0.5464 -0.6229
 9209TIP3    H149042   4.609   6.503   3.563 -1.6154 -1.6926  0.3061
 9209TIP3    H249043   4.596   6.562   3.702 -0.4069 -0.2314 -0.1672
 9210TIP3   OH249044   5.957   2.505   3.142 -0.1772 -0.2980 -0.0196
 9210TIP3    H149045   5.977   2.442   3.073 -0.6892  0.0110 -0.4491
 9210TIP3    H249046   5.864   2.491   3.162  0.0210 -0.5527  0.7787
 9211TIP3   OH249047   4.392   2.895   3.114  0.3283 -0.5611 -0.2442
 9211TIP3    H149048   4.366   2.978   3.075  1.9518 -0.0284 -0.2928
 9211TIP3    H249049   4.321   2.835   3.093 -0.0372  0.3541 -1.8196
 9212TIP3   OH249050   5.160   6.090  15.436  0.9646  0.5642 -0.9098
 9212TIP3    H149051   5.176   6.089  15.530  1.3828  1.6075 -0.9501
 9212TIP3    H249052   5.134   6.180  15.417  1.5003  0.5382 -1.8781
 9213TIP3   OH249053   6.252   3.183  14.917 -0.3086  0.0537  0.2766
 9213TIP3    H149054   6.322   3.185  14.982  1.3197  1.9765 -1.4091
 9213TIP3    H249055   6.199   3.260  14.936  0.5311  0.9729 -0.9822
 9214TIP3   OH249056   4.644   4.238  17.077  0.3769  0.4270 -0.8251
 9214TIP3    H149057   4.703   4.244  17.153 -1.9914  1.0510  1.0872
 9214TIP3    H249058   4.694   4.278  17.005  2.8416 -0.4735  0.2523
 9215TIP3   OH249059   2.971   5.107  12.150  0.5326 -0.0243 -0.1984
 9215TIP3    H149060   3.045   5.166  12.132  0.2219  0.4955  0.1853
 9215TIP3    H249061   2.927   5.148  12.225  0.2097 -0.6588 -0.0404
 9216TIP3   OH249062   4.602   1.873  15.384  0.1849 -0.0261  0.2083
 9216TIP3    H149063   4.523   1.907  15.426  0.0557 -1.1090  0.8597
 9216TIP3    H249064   4.670   1.882  15.451  0.6807  1.0642 -0.4051
 9217TIP3   OH249065   4.477   3.125   0.439  0.3442 -0.4107  0.5039
 9217TIP3    H149066   4.531   3.128   0.360  1.3918  0.8602  1.2138
 9217TIP3    H249067   4.402   3.180   0.419  0.9494  0.4746  0.6016
 9218TIP3   OH249068   2.889   0.600  10.863 -0.5726  0.0440 -0.1217
 9218TIP3    H149069   2.824   0.530  10.865 -0.2174 -0.2731  0.8643
 9218TIP3    H249070   2.840   0.677  10.835 -2.0932  0.4924  3.2767
 9219TIP3   OH249071   2.724   5.990   4.614  0.1209 -0.0413  0.0727
 9219TIP3    H149072   2.645   5.937   4.604  1.7400 -2.5116 -0.5610
 9219TIP3    H249073   2.718   6.055   4.544 -1.9522  0.7699  0.9043
 9220TIP3   OH249074   1.161   6.155  10.662  0.0743  0.2862 -0.2627
 9220TIP3    H149075   1.094   6.198  10.715  0.0116  0.2309 -0.2965
 9220TIP3    H249076   1.213   6.226  10.626  1.8766  0.2942  2.1247
 9221TIP3   OH249077   4.509   1.285  12.334  0.3773 -0.3669  0.3289
 9221TIP3    H149078   4.469   1.258  12.251  1.2630  3.0433 -1.3880
 9221TIP3    H249079   4.435   1.296  12.394 -0.6033 -0.1987 -0.8845
 9222TIP3   OH249080   3.579   4.378   4.998 -0.1345  0.7666 -0.3826
 9222TIP3    H149081   3.654   4.417   5.044  0.5568 -1.2068  0.2482
 9222TIP3    H249082   3.615   4.352   4.913 -0.6327  1.5678 -0.8558
 9223TIP3   OH249083   6.061   1.340   1.261  0.3051  0.1773 -0.0423
 9223TIP3    H149084   6.067   1.244   1.263 -1.4732  0.0516  1.6728
 9223TIP3    H249085   6.147   1.369   1.292  1.0369 -0.8241 -1.0294
 9224TIP3   OH249086   5.355   0.070   5.688 -0.2934 -0.3215  0.6952
 9224TIP3    H149087   5.392   0.137   5.630 -2.1254  0.5134  0.4211
 9224TIP3    H249088   5.300   0.017   5.631 -0.7411 -0.5788  1.3612
 9225TIP3   OH249089   4.998   1.566   4.650 -0.5488  0.1605 -0.2392
 9225TIP3    H149090   5.062   1.518   4.598  0.5401  1.0779  0.2230
 9225TIP3    H249091   5.041   1.580   4.735 -1.8308 -0.2502  0.5138
 9226TIP3   OH249092   4.263   0.535   3.926  0.4658 -0.2934  0.2083
 9226TIP3    H149093   4.175   0.547   3.891  0.9060 -1.6912 -1.5467
 9226TIP3    H249094   4.299   0.462   3.874  2.3469 -0.3029  1.4518
 9227TIP3   OH249095   3.966   3.688   5.506 -0.5119 -0.2854  0.0325
 9227TIP3    H149096   3.930   3.611   5.549  0.2400 -0.5773  0.1507
 9227TIP3    H249097   3.905   3.759   5.529 -0.7738 -0.6791  0.5784
 9228TIP3   OH249098   5.533   2.403  13.634  0.0432 -0.1875 -0.4333
 9228TIP3    H149099   5.481   2.445  13.703  2.1165 -0.6265  1.5203
 9228TIP3    H249100   5.470   2.381  13.566 -1.7677  2.3388  0.2858
 9229TIP3   OH249101   6.654   4.990  16.083 -0.3842  0.5876  0.3811
 9229TIP3    H149102   6.594   5.008  16.155  1.4679  0.9460  1.9262
 9229TIP3    H249103   6.664   4.895  16.083  1.1007  0.6831  1.9805
 9230TIP3   OH249104   3.420   3.954   4.412  0.1513 -0.2025  0.8099
 9230TIP3    H149105   3.390   4.005   4.486 -1.8375  0.0185 -0.0834
 9230TIP3    H249106   3.340   3.922   4.370  1.2140 -0.8638 -0.8556
 9231TIP3   OH249107   2.600   3.231  16.416 -0.2611  0.5474  0.5429
 9231TIP3    H149108   2.592   3.179  16.336 -1.3936  2.4693 -0.6851
 9231TIP3    H249109   2.668   3.187  16.467  0.9840 -0.3728 -1.7739
 9232TIP3   OH249110   2.001   5.338   4.063 -0.3598  0.0729  0.0025
 9232TIP3    H149111   2.067   5.303   4.123 -1.6458  0.5333  1.7432
 9232TIP3    H249112   2.017   5.290   3.981  1.0073 -1.0763  0.8818
 9233TIP3   OH249113   4.318   4.936  11.347 -0.0628  0.0705 -0.5288
 9233TIP3    H149114   4.391   4.957  11.406  1.1762  0.2414 -2.0589
 9233TIP3    H249115   4.240   4.941  11.403  0.8836  1.8461  0.7343
 9234TIP3   OH249116   6.244   1.852  12.285  0.8255 -0.2000 -0.1315
 9234TIP3    H149117   6.308   1.817  12.223 -0.3096  0.6203 -1.8556
 9234TIP3    H249118   6.192   1.776  12.312 -1.0140 -0.1591 -3.1104
 9235TIP3   OH249119   5.045   3.323  16.014 -0.1505  0.2065  0.7168
 9235TIP3    H149120   5.115   3.336  15.950 -0.5291  0.6943  0.3952
 9235TIP3    H249121   5.046   3.404  16.067  0.9982 -0.6911  2.1779
 9236TIP3   OH249122   6.594   2.344  16.933 -0.4447  0.2547 -0.0032
 9236TIP3    H149123   6.548   2.289  16.997  0.3453  0.7914  1.0641
 9236TIP3    H249124   6.538   2.342  16.855  0.8114 -4.2497 -1.0653
 9237TIP3   OH249125   3.291   4.116  14.763 -0.1078 -0.4777  0.5274
 9237TIP3    H149126   3.220   4.176  14.738 -0.7169 -1.1890  0.5351
 9237TIP3    H249127   3.370   4.156  14.725 -0.4494  0.5126  0.8300
 9238TIP3   OH249128   6.774   5.302   1.923 -0.5650 -0.7680 -0.2608
 9238TIP3    H149129   6.720   5.380   1.914 -0.0279 -0.4554 -0.9475
 9238TIP3    H249130   6.718   5.229   1.894 -0.9508 -0.5917  0.0413
 9239TIP3   OH249131   1.509   1.608  16.120 -0.1538 -0.5755 -0.3028
 9239TIP3    H149132   1.574   1.668  16.086  0.0626 -1.0668 -0.7660
 9239TIP3    H249133   1.492   1.547  16.048 -2.0557  0.2801 -0.6498
 9240TIP3   OH249134   6.008   5.184   3.162 -0.0568 -0.5168  0.1749
 9240TIP3    H149135   5.956   5.194   3.082  0.1301 -1.1412 -0.0302
 9240TIP3    H249136   6.052   5.268   3.172 -0.7785 -0.1211  0.1236
 9241TIP3   OH249137   6.338   1.945   3.927 -0.0466  0.6243  0.4695
 9241TIP3    H149138   6.387   2.000   3.865 -1.2372 -0.4161 -1.5155
 9241TIP3    H249139   6.259   1.995   3.947  0.9190  1.5177  2.2396
 9242TIP3   OH249140   0.162   1.348  14.065  0.2343  0.2017  0.3037
 9242TIP3    H149141   0.133   1.431  14.101  0.7739  0.6192 -0.2048
 9242TIP3    H249142   0.126   1.346  13.976  0.4035 -0.0125  0.2394
 9243TIP3   OH249143   2.441   1.366   0.414  0.1932  0.1548  0.5631
 9243TIP3    H149144   2.435   1.365   0.509 -2.0316  0.4538  0.4810
 9243TIP3    H249145   2.406   1.282   0.386 -0.0491  0.4386 -0.0099
 9244TIP3   OH249146   4.230   3.899  11.964 -0.2625 -0.1536 -0.2694
 9244TIP3    H149147   4.250   3.969  11.902 -0.7006 -1.9913 -2.6491
 9244TIP3    H249148   4.303   3.838  11.956 -0.1374 -0.2778  1.3875
 9245TIP3   OH249149   0.854   1.104   0.261 -0.6232 -0.6633  0.2940
 9245TIP3    H149150   0.843   1.031   0.322  0.1998 -0.2083  1.0005
 9245TIP3    H249151   0.942   1.094   0.226 -0.4773  0.0236  0.4444
 9246TIP3   OH249152   5.391   3.790   6.043  0.1951 -0.5199  0.2105
 9246TIP3    H149153   5.453   3.808   5.972  0.0233 -0.7541 -0.0016
 9246TIP3    H249154   5.350   3.874   6.061 -0.1739 -0.5633 -0.3684
 9247TIP3   OH249155   4.010   2.409   1.469 -0.2753 -0.4157  0.0547
 9247TIP3    H149156   4.091   2.379   1.511  0.6678  0.4098 -1.0832
 9247TIP3    H249157   3.955   2.331   1.464  0.3574 -0.9456  1.0431
 9248TIP3   OH249158   6.555   1.999  15.092  0.4785 -0.8447  0.0434
 9248TIP3    H149159   6.596   1.976  15.008  2.6330 -1.1761  1.1332
 9248TIP3    H249160   6.558   1.919  15.144 -0.9433 -0.6715  0.4359
 9249TIP3   OH249161   2.572   2.966  13.905 -0.3324  0.3184 -0.3889
 9249TIP3    H149162   2.645   2.922  13.862  0.1273  1.6767 -1.0780
 9249TIP3    H249163   2.542   2.905  13.971  0.9877 -0.5541 -0.5621
 9250TIP3   OH249164   0.561   4.776  11.082  0.3161 -0.1982 -0.8203
 9250TIP3    H149165   0.653   4.780  11.107  0.4018 -0.1066 -1.1485
 9250TIP3    H249166   0.538   4.866  11.057 -0.5724  0.3508  1.7204
 9251TIP3   OH249167   3.894   0.833   5.810 -0.0007  0.7011  0.5921
 9251TIP3    H149168   3.929   0.812   5.897  0.1825  1.3110  0.6714
 9251TIP3    H249169   3.825   0.768   5.796  1.1272 -0.5081  0.4513
 9252TIP3   OH249170   0.944   2.976  17.214 -0.9169 -0.2694  0.5098
 9252TIP3    H149171   0.923   2.883  17.213 -0.1704 -0.4443  0.5835
 9252TIP3    H249172   1.035   2.981  17.184 -1.1812  0.4974 -0.2010
 9253TIP3   OH249173   3.334   2.341   2.680 -0.2030 -0.4486 -0.4040
 9253TIP3    H149174   3.313   2.283   2.607  0.2163 -1.3246  0.1556
 9253TIP3    H249175   3.363   2.423   2.638 -0.5074 -0.7371 -1.2027
 9254TIP3   OH249176   5.735   5.745   0.721  0.1556 -0.2419  0.1640
 9254TIP3    H149177   5.773   5.673   0.672  0.4710 -1.0758  1.5625
 9254TIP3    H249178   5.808   5.804   0.740  0.6034 -1.3113  1.9444
 9255TIP3   OH249179   2.668   4.051   0.519  0.0888  0.4003 -0.0905
 9255TIP3    H149180   2.681   4.122   0.582 -1.9658 -0.3529  1.3241
 9255TIP3    H249181   2.724   4.072   0.445  1.9516  1.7963  1.6316
 9256TIP3   OH249182   4.398   6.136   4.730  0.2567  0.0337  0.0824
 9256TIP3    H149183   4.456   6.119   4.804  0.3737 -0.6222 -0.1462
 9256TIP3    H249184   4.430   6.078   4.661 -1.1708 -0.9707  0.2137
 9257TIP3   OH249185   1.402   0.748  12.163 -0.3929 -0.2088  0.3981
 9257TIP3    H149186   1.444   0.825  12.126 -0.1517 -0.7622 -0.5044
 9257TIP3    H249187   1.470   0.706  12.216  0.0212 -0.7557 -0.5462
 9258TIP3   OH249188   5.678   0.796   4.237  0.0210  0.0689 -0.5833
 9258TIP3    H149189   5.754   0.747   4.206  0.1182  0.5446 -1.0947
 9258TIP3    H249190   5.646   0.844   4.161  1.2514  2.5582  0.3401
 9259TIP3   OH249191   4.416   0.420   6.128  0.3096 -0.5020 -0.3537
 9259TIP3    H149192   4.503   0.380   6.130  0.8781  0.6642 -0.7797
 9259TIP3    H249193   4.432   0.513   6.148 -0.6670 -0.0143 -1.6972
 9260TIP3   OH249194   3.772   5.723   5.936  0.4025 -0.0713 -0.7692
 9260TIP3    H149195   3.684   5.689   5.915  0.0438 -0.1063  0.6668
 9260TIP3    H249196   3.758   5.816   5.952  0.1828 -0.4522  1.6035
 9261TIP3   OH249197   4.962   1.596   1.783  1.1585  0.0512  0.7794
 9261TIP3    H149198   4.957   1.689   1.759  1.6949  0.0647  0.7013
 9261TIP3    H249199   5.040   1.590   1.838  1.2757 -0.4016  0.5637
 9262TIP3   OH249200   5.641   6.171   4.822 -0.0969  0.7397 -0.5324
 9262TIP3    H149201   5.621   6.172   4.728  0.0254  0.3194 -0.5658
 9262TIP3    H249202   5.604   6.088   4.853  0.3066  0.6377 -0.3122
 9263TIP3   OH249203   6.101   0.143   5.561  0.2949  0.3310  0.0107
 9263TIP3    H149204   6.111   0.073   5.497 -0.6815  1.6977 -1.7086
 9263TIP3    H249205   6.097   0.097   5.646 -1.3069 -1.7867 -1.1006
 9264TIP3   OH249206   3.082   6.205  11.213 -0.0169 -0.5450 -0.4529
 9264TIP3    H149207   3.056   6.128  11.162 -2.0589  0.2028 -0.6661
 9264TIP3    H249208   3.062   6.182  11.304  0.8207 -0.8172 -0.3379
 9265TIP3   OH249209   4.110   0.816   3.653 -0.2184 -0.4213  0.4644
 9265TIP3    H149210   4.168   0.887   3.679 -0.0014 -1.0398  1.7262
 9265TIP3    H249211   4.023   0.856   3.650  0.1882  0.4075 -1.0206
 9266TIP3   OH249212   5.112   0.830   2.623 -0.3847 -0.4092  0.5712
 9266TIP3    H149213   5.043   0.832   2.556 -0.6543  1.2886  0.8511
 9266TIP3    H249214   5.067   0.803   2.703 -1.0095  1.6992  0.9916
 9267TIP3   OH249215   0.453   3.202  13.537 -0.3363 -0.2359  0.6991
 9267TIP3    H149216   0.522   3.161  13.484  0.4355  1.5616  0.2409
 9267TIP3    H249217   0.460   3.158  13.622  1.9245  0.3828  0.9158
 9268TIP3   OH249218   3.896   2.599  15.015  0.0963 -0.0433  1.1897
 9268TIP3    H149219   3.889   2.642  14.930 -0.5446 -0.5223  0.9919
 9268TIP3    H249220   3.908   2.671  15.077 -0.6091  0.4033  0.8240
 9269TIP3   OH249221   1.302   4.615   4.279 -0.6216  0.1455  0.8580
 9269TIP3    H149222   1.288   4.550   4.210 -0.2372  0.1515  0.7734
 9269TIP3    H249223   1.303   4.699   4.234  0.6204  0.0802  0.7223
 9270TIP3   OH249224   3.043   5.919  14.729 -0.4967  0.4009  0.3796
 9270TIP3    H149225   3.097   5.940  14.653 -1.3285  1.2920  0.0069
 9270TIP3    H249226   2.996   5.840  14.703 -0.1466  0.2234  0.2908
 9271TIP3   OH249227   4.978   0.070   5.080 -0.1646  0.2924  0.0303
 9271TIP3    H149228   5.064   0.112   5.088 -0.3276  0.4950  0.8250
 9271TIP3    H249229   4.955   0.080   4.988 -1.4681  4.5844  0.5769
 9272TIP3   OH249230   3.181   0.541  12.193 -0.1287  0.1033  0.3738
 9272TIP3    H149231   3.194   0.626  12.151 -0.6381  1.4755  2.7835
 9272TIP3    H249232   3.089   0.543  12.222  0.3406 -0.4911  2.0137
 9273TIP3   OH249233   1.975   1.201  14.089  0.4620  0.5652 -0.4207
 9273TIP3    H149234   1.924   1.269  14.046  1.0137  2.3051  1.4779
 9273TIP3    H249235   2.064   1.238  14.094  0.8750 -0.4754  0.2910
 9274TIP3   OH249236   5.527   0.400   4.958 -0.1106 -0.3749 -0.1053
 9274TIP3    H149237   5.495   0.356   5.037  0.2424  1.5604  1.1702
 9274TIP3    H249238   5.447   0.432   4.915 -0.1718  1.1600  1.0804
 9275TIP3   OH249239   1.495   0.909  16.548 -0.6913  0.2034  0.2957
 9275TIP3    H149240   1.454   0.957  16.620 -0.2655 -0.3903  0.9418
 9275TIP3    H249241   1.578   0.878  16.584 -0.9198 -0.9505 -0.1309
 9276TIP3   OH249242   4.692   5.799   5.647 -0.5059 -0.0947  0.6124
 9276TIP3    H149243   4.623   5.779   5.710 -0.5690 -2.5761 -0.1343
 9276TIP3    H249244   4.708   5.716   5.602  0.5261  1.2299 -1.6570
 9277TIP3   OH249245   0.451   3.606   0.173  0.2964 -0.1029  0.9652
 9277TIP3    H149246   0.399   3.554   0.234 -2.7813  0.1651 -1.1721
 9277TIP3    H249247   0.532   3.558   0.163 -0.2873 -1.6614  3.0017
 9278TIP3   OH249248   2.707   3.758   3.591  0.0070  0.1991  0.0657
 9278TIP3    H149249   2.803   3.754   3.581 -0.0454 -1.0250 -0.2106
 9278TIP3    H249250   2.676   3.681   3.543 -1.0001 -0.3550  1.5566
 9279TIP3   OH249251   0.486   0.204  13.933 -0.0518 -0.0101 -0.1511
 9279TIP3    H149252   0.514   0.152  13.857  1.0762  0.5571 -0.1490
 9279TIP3    H249253   0.434   0.143  13.986  0.3292 -0.8228 -0.6825
 9280TIP3   OH249254   6.036   0.441  14.867 -0.1061  0.3382  0.3650
 9280TIP3    H149255   6.127   0.424  14.841  0.6066  3.7652  0.1365
 9280TIP3    H249256   5.983   0.392  14.803  1.5865 -0.5895 -0.3834
 9281TIP3   OH249257   6.395   6.123   3.468 -0.2361  0.3176  0.6921
 9281TIP3    H149258   6.339   6.192   3.433 -0.6292 -0.4797 -0.2853
 9281TIP3    H249259   6.417   6.069   3.392  1.7708  0.5272  1.0530
 9282TIP3   OH249260   3.897   5.176  10.429  0.3313  0.0376  0.1136
 9282TIP3    H149261   3.906   5.175  10.525 -0.7964 -0.4180  0.2325
 9282TIP3    H249262   3.957   5.244  10.400  2.1003 -1.0844  0.9830
 9283TIP3   OH249263   2.295   4.627   0.589 -0.2588 -0.1917 -0.4243
 9283TIP3    H149264   2.234   4.662   0.524 -0.0235 -1.4386 -1.3746
 9283TIP3    H249265   2.372   4.684   0.583  0.1664 -0.8528 -2.0265
 9284TIP3   OH249266   1.156   3.421  14.344 -0.7047  0.2324 -0.5632
 9284TIP3    H149267   1.114   3.449  14.425 -0.9232  1.3000 -1.0290
 9284TIP3    H249268   1.206   3.343  14.368 -0.0301  1.0600  0.8031
 9285TIP3   OH249269   2.475   6.646   0.346  0.2487 -0.1865  0.3731
 9285TIP3    H149270   2.424   6.675   0.270 -0.3210 -0.6940  0.5601
 9285TIP3    H249271   2.491   6.553   0.329  1.2321 -0.0045  0.2492
 9286TIP3   OH249272   4.922   6.244   2.847 -0.0192  0.3245  0.5164
 9286TIP3    H149273   5.003   6.229   2.897  0.6734  2.4078  0.1299
 9286TIP3    H249274   4.937   6.199   2.763  0.4659  0.1611  0.6877
 9287TIP3   OH249275   5.669   4.187   0.513  0.0401 -0.4825 -0.2850
 9287TIP3    H149276   5.626   4.185   0.599 -2.9631  0.0510 -1.6620
 9287TIP3    H249277   5.699   4.097   0.499 -0.2064 -0.7770  0.9397
 9288TIP3   OH249278   4.100   2.477  12.018 -0.6110 -0.8020  0.4906
 9288TIP3    H149279   4.064   2.504  12.103 -0.9939 -0.8529  0.3471
 9288TIP3    H249280   4.089   2.382  12.017  0.3124 -0.9223  0.7996
 9289TIP3   OH249281   3.128   1.098   0.823  0.2651  0.3016  0.4151
 9289TIP3    H149282   3.053   1.081   0.766 -1.0636 -0.5722  2.3031
 9289TIP3    H249283   3.182   1.019   0.817  1.0630  0.9089 -0.9022
 9290TIP3   OH249284   3.367   4.863  15.085  0.7817  0.3308 -0.4280
 9290TIP3    H149285   3.394   4.947  15.047  0.7943  0.3688 -0.3341
 9290TIP3    H249286   3.446   4.827  15.124  1.1560 -0.4574 -1.8239
 9291TIP3   OH249287   5.629   3.014   2.199 -0.1325 -0.2995 -0.0831
 9291TIP3    H149288   5.672   3.049   2.277  0.9910  1.7261 -1.4995
 9291TIP3    H249289   5.630   2.919   2.211  1.2735 -0.1104  1.7086
 9292TIP3   OH249290   3.889   5.390   3.568  0.2480  0.2791 -0.1340
 9292TIP3    H149291   3.940   5.471   3.576  1.1892 -0.3112  0.0519
 9292TIP3    H249292   3.861   5.370   3.657  2.0933 -0.8690  0.2546
 9293TIP3   OH249293   5.232   1.936   1.220  0.3838 -0.4886 -0.0836
 9293TIP3    H149294   5.215   1.984   1.301 -2.5337  0.6277 -1.2101
 9293TIP3    H249295   5.222   1.844   1.244  1.6574 -0.3074  1.2211
 9294TIP3   OH249296   2.861   2.041   5.005 -0.3963 -0.6710  0.1345
 9294TIP3    H149297   2.768   2.061   5.002 -0.5055 -1.1130  0.4871
 9294TIP3    H249298   2.874   1.999   5.090  0.2730  0.1365  0.4455
 9295TIP3   OH249299   3.854   4.058   5.955 -0.3459 -0.0465  0.0457
 9295TIP3    H149300   3.803   4.136   5.977 -0.7283 -0.3256  0.1611
 9295TIP3    H249301   3.860   4.010   6.037  0.7244  0.3380  0.1967
 9296TIP3   OH249302   1.637   6.650   4.888  0.1259 -0.3847  0.8149
 9296TIP3    H149303   1.596   6.710   4.827  0.6485  0.3708  1.1829
 9296TIP3    H249304   1.645   6.568   4.840  2.3953  0.7357 -0.9041
 9297TIP3   OH249305   0.074   5.620  13.816 -0.1950 -0.1172 -0.7970
 9297TIP3    H149306   0.162   5.583  13.829 -0.1732 -0.0724 -0.8133
 9297TIP3    H249307   0.030   5.559  13.758  0.1794  0.3980 -1.6433
 9298TIP3   OH249308   5.937   5.927  17.198  0.0944 -0.0074 -0.1017
 9298TIP3    H149309   5.888   5.989  17.251 -0.9297 -0.9778  0.1216
 9298TIP3    H249310   5.880   5.850  17.191  1.1313 -0.7525 -0.7506
 9299TIP3   OH249311   2.018   3.575   4.741 -0.2627 -0.0223 -0.1036
 9299TIP3    H149312   2.071   3.598   4.666 -0.3946  0.6671  0.0063
 9299TIP3    H249313   1.986   3.659   4.774  1.3868 -0.1015  1.9054
 9300TIP3   OH249314   3.066   3.936  14.902  0.4005  0.2866 -0.3613
 9300TIP3    H149315   3.089   4.019  14.861  1.4028  0.5630  0.6952
 9300TIP3    H249316   2.994   3.958  14.961 -0.3037  0.1062 -1.1409
 9301TIP3   OH249317   1.662   0.413   0.971  0.0821  0.1959 -0.3404
 9301TIP3    H149318   1.737   0.441   1.024 -0.2976  0.1134  0.2500
 9301TIP3    H249319   1.595   0.479   0.986 -0.7056 -0.8115  0.8115
 9302TIP3   OH249320   0.327   5.536   5.346  0.2761 -0.0603  0.0176
 9302TIP3    H149321   0.263   5.477   5.305  0.1432  1.0248 -1.3819
 9302TIP3    H249322   0.274   5.589   5.406  0.4254 -1.4350  1.4436
 9303TIP3   OH249323   1.372   5.347   0.376  0.5848  0.1892  0.1886
 9303TIP3    H149324   1.391   5.439   0.394 -1.2641  0.4904  0.8455
 9303TIP3    H249325   1.383   5.303   0.461  0.6531 -0.0410  0.0626
 9304TIP3   OH249326   6.658   4.051  15.018  0.3235 -0.2557 -0.3201
 9304TIP3    H149327   6.637   3.962  14.989  0.0780 -0.5200  0.6288
 9304TIP3    H249328   6.692   4.040  15.107 -1.8041  0.7576  0.6924
 9305TIP3   OH249329   6.000   1.648   0.981 -0.0085  0.2934  0.4614
 9305TIP3    H149330   6.078   1.668   1.032 -0.0623  0.9681  0.2894
 9305TIP3    H249331   5.928   1.680   1.035 -0.0510  1.2494 -0.1243
 9306TIP3   OH249332   1.499   3.321   5.398  0.6129 -0.1425  0.2155
 9306TIP3    H149333   1.404   3.330   5.405  0.7200 -0.1192  2.1752
 9306TIP3    H249334   1.526   3.390   5.338 -0.4216  1.1619  1.1961
 9307TIP3   OH249335   5.909   5.560  14.051 -0.2744  0.5350  0.4700
 9307TIP3    H149336   5.821   5.592  14.030 -1.6287 -1.9620  1.9102
 9307TIP3    H249337   5.925   5.490  13.988  1.8120  2.5068 -1.3624
 9308TIP3   OH249338   1.741   5.686   5.435  0.0152  0.3858 -0.1624
 9308TIP3    H149339   1.829   5.653   5.422 -0.2019  0.2577 -1.4468
 9308TIP3    H249340   1.743   5.775   5.400 -0.7525 -0.1785 -1.7587
 9309TIP3   OH249341   3.770   1.424  16.186  0.3317 -0.6005 -0.2932
 9309TIP3    H149342   3.830   1.487  16.146 -0.4693  0.2266 -0.2267
 9309TIP3    H249343   3.820   1.342  16.188  1.4274  0.0409 -0.3014
 9310TIP3   OH249344   3.846   5.987  12.525  0.2766  0.4176  0.2181
 9310TIP3    H149345   3.804   5.905  12.551 -0.8557  1.0030  0.2973
 9310TIP3    H249346   3.786   6.026  12.462  1.2279  0.7812 -0.4947
 9311TIP3   OH249347   4.401   0.395   1.948 -0.0655  0.6235 -0.1861
 9311TIP3    H149348   4.416   0.301   1.938 -0.7748  0.1368  2.4906
 9311TIP3    H249349   4.420   0.431   1.861  0.2859 -1.9491 -1.2966
 9312TIP3   OH249350   6.266   5.144   5.951  0.1844  0.5836 -0.5586
 9312TIP3    H149351   6.332   5.083   5.987  0.0663  2.1292  2.6684
 9312TIP3    H249352   6.214   5.090   5.892  2.9613 -1.2318 -1.5805
 9313TIP3   OH249353   4.959   0.341  11.480 -0.7200  0.1337 -0.3743
 9313TIP3    H149354   4.957   0.348  11.384 -1.1432 -0.9109 -0.4533
 9313TIP3    H249355   5.042   0.380  11.505  0.4525 -1.6108 -1.3643
 9314TIP3   OH249356   6.713   5.387  15.020 -0.2327 -0.2616 -0.3679
 9314TIP3    H149357   6.623   5.385  14.989 -0.7864 -3.0000  1.1480
 9314TIP3    H249358   6.760   5.326  14.962  0.6377  0.9380 -0.9809
 9315TIP3   OH249359   1.507   4.514  15.520  0.6569  0.0448 -0.2511
 9315TIP3    H149360   1.412   4.510  15.535  0.9175 -0.3759  1.5846
 9315TIP3    H249361   1.524   4.605  15.496 -0.1819  0.1745 -0.3956
 9316TIP3   OH249362   1.378   4.390  16.823  0.0838  0.3307  0.2807
 9316TIP3    H149363   1.447   4.443  16.863  1.1313 -0.5520 -0.3042
 9316TIP3    H249364   1.346   4.443  16.751  0.3760  0.6246  0.3653
 9317TIP3   OH249365   6.563   4.818  16.374  0.0807  0.0021  0.5174
 9317TIP3    H149366   6.499   4.886  16.352  1.8643  1.0140 -2.0707
 9317TIP3    H249367   6.516   4.736  16.361 -0.5673  0.6942 -2.2411
 9318TIP3   OH249368   5.465   3.101   0.906  0.2515  0.1708 -0.3703
 9318TIP3    H149369   5.481   3.070   0.996  0.2064 -0.9148 -0.7158
 9318TIP3    H249370   5.509   3.186   0.902 -2.4768  1.8699  1.6681
 9319TIP3   OH249371   6.430   6.670   2.622 -0.4559  0.3864 -0.1884
 9319TIP3    H149372   6.411   6.655   2.530 -0.4603 -0.8521 -0.0061
 9319TIP3    H249373   6.370   6.611   2.668 -1.4034  1.9398  0.6668
 9320TIP3   OH249374   5.870   5.336  15.827  0.1672  0.5261 -0.2395
 9320TIP3    H149375   5.934   5.393  15.870  3.1275 -1.5901 -1.4595
 9320TIP3    H249376   5.919   5.256  15.807 -3.4433 -2.1035  0.4415
 9321TIP3   OH249377   2.921   3.117   0.870  0.3011  0.3629  0.0733
 9321TIP3    H149378   2.982   3.044   0.880  0.5235  0.7075  1.3887
 9321TIP3    H249379   2.834   3.076   0.872  0.4021  0.1706  1.4675
 9322TIP3   OH249380   6.712   4.085  15.921  0.2411  0.5916  0.5878
 9322TIP3    H149381   6.716   4.180  15.931 -2.0051  0.9235 -0.8850
 9322TIP3    H249382   6.705   4.052  16.010  0.3071  1.8644  1.0869
 9323TIP3   OH249383   4.678   6.156  11.510  0.3178  0.4253 -0.5060
 9323TIP3    H149384   4.584   6.150  11.495  0.0366 -0.0274  1.2061
 9323TIP3    H249385   4.696   6.250  11.517 -0.7274  0.5016  2.8534
 9324TIP3   OH249386   4.793   2.684   4.137  0.5305  0.1093 -0.0453
 9324TIP3    H149387   4.729   2.744   4.174  0.5119 -0.5843  1.0917
 9324TIP3    H249388   4.742   2.628   4.078  0.2613  0.1457  0.1522
 9325TIP3   OH249389   4.123   2.206  14.566  0.2067 -0.3884 -0.4119
 9325TIP3    H149390   4.131   2.220  14.472 -0.7405 -0.3938 -0.5034
 9325TIP3    H249391   4.175   2.276  14.606  1.3924 -0.9456 -0.9327
 9326TIP3   OH249392   1.555   4.915  10.632 -0.1618  0.2883 -0.3208
 9326TIP3    H149393   1.480   4.961  10.669 -0.0341  0.4630 -0.2776
 9326TIP3    H249394   1.553   4.829  10.673  0.8053  0.9419  1.2259
 9327TIP3   OH249395   5.663   5.399  12.788 -0.8770 -0.1225 -0.1225
 9327TIP3    H149396   5.711   5.458  12.729 -1.2632  2.4120  1.9212
 9327TIP3    H249397   5.572   5.405  12.758 -1.1990  1.7440  1.0387
 9328TIP3   OH249398   2.286   4.088  13.009  0.1158 -0.7027  0.0736
 9328TIP3    H149399   2.289   4.003  13.054  0.9526  0.6312  2.7500
 9328TIP3    H249400   2.200   4.124  13.032 -0.6025 -1.1189 -1.7730
 9329TIP3   OH249401   5.038   0.737  16.359 -0.2386 -0.3136  0.9888
 9329TIP3    H149402   5.125   0.770  16.381 -0.6403 -0.6212  3.3277
 9329TIP3    H249403   5.000   0.805  16.303  1.6047 -0.3765 -0.4608
 9330TIP3   OH249404   5.038   4.452   0.676 -0.6265 -0.1862  0.0641
 9330TIP3    H149405   4.983   4.380   0.645 -1.6512  0.3542  0.5487
 9330TIP3    H249406   4.976   4.522   0.696  0.3853  1.0556 -0.9617
 9331TIP3   OH249407   0.085   5.073  16.241 -0.1220 -0.0576 -0.5203
 9331TIP3    H149408   0.038   5.068  16.158 -1.2512 -0.6883  0.1199
 9331TIP3    H249409   0.094   4.982  16.269  0.5781  0.1246 -0.1272
 9332TIP3   OH249410   2.509   0.355  11.969  0.6806 -0.1415 -0.0139
 9332TIP3    H149411   2.573   0.406  12.019  1.5077  1.0794 -2.1790
 9332TIP3    H249412   2.529   0.375  11.878  0.2088 -3.3588 -0.9701
 9333TIP3   OH249413   0.684   3.101  14.245  0.1273 -0.0434 -0.1982
 9333TIP3    H149414   0.714   3.082  14.156  1.0007  0.0322  0.0669
 9333TIP3    H249415   0.595   3.133  14.234 -0.0804 -0.8418 -0.9697
 9334TIP3   OH249416   5.694   6.764  15.700 -0.3395 -0.4534 -0.0042
 9334TIP3    H149417   5.742   6.763  15.617  0.9071  0.7201  0.6630
 9334TIP3    H249418   5.619   6.821  15.684  0.0642  0.0154 -0.2512
 9335TIP3   OH249419   5.475   5.987   3.764  0.3069  0.8843  0.1024
 9335TIP3    H149420   5.388   5.995   3.725  1.0687 -0.7925 -2.2233
 9335TIP3    H249421   5.520   6.068   3.740 -0.2050  1.1805  0.1484
 9336TIP3   OH249422   5.134   3.201  11.550 -0.2040  0.5804  0.2252
 9336TIP3    H149423   5.126   3.110  11.522 -1.5224  0.3410  1.2412
 9336TIP3    H249424   5.204   3.238  11.496 -1.8423 -0.1130 -2.5527
 9337TIP3   OH249425   3.105   3.507   2.826  0.0344  0.3257 -0.3430
 9337TIP3    H149426   3.127   3.422   2.788 -2.0353  0.6408 -2.4831
 9337TIP3    H249427   3.010   3.515   2.815  0.0852  2.6879  0.2761
 9338TIP3   OH249428   4.375   5.139   2.335 -0.3290  0.2930  0.5919
 9338TIP3    H149429   4.343   5.228   2.319  0.1845  0.2394 -0.9342
 9338TIP3    H249430   4.312   5.083   2.290 -0.3877 -0.0783  1.1389
 9339TIP3   OH249431   4.465   0.523   1.707 -0.2662  0.1944  0.5442
 9339TIP3    H149432   4.429   0.590   1.649 -2.0152 -0.1796  1.1273
 9339TIP3    H249433   4.496   0.455   1.648 -1.7992 -0.0734 -0.0179
 9340TIP3   OH249434   6.016   6.324  12.018 -0.1817 -0.2561  0.5658
 9340TIP3    H149435   5.992   6.233  12.036 -1.2055 -0.2844 -0.7511
 9340TIP3    H249436   6.104   6.319  11.980 -0.4974 -0.7721 -0.1081
 9341TIP3   OH249437   2.567   5.344  11.941  0.8824  0.0091 -0.3650
 9341TIP3    H149438   2.517   5.328  11.861  1.4740  1.3024 -1.0232
 9341TIP3    H249439   2.607   5.430  11.928  2.3554 -0.4813  0.6207
 9342TIP3   OH249440   6.210   1.884   1.938  0.5995  0.9555  0.2544
 9342TIP3    H149441   6.203   1.879   1.843  0.5702  0.2470  0.2925
 9342TIP3    H249442   6.145   1.822   1.970  1.7968 -0.1034  0.7144
 9343TIP3   OH249443   2.186   2.160  10.768 -0.4042  0.1637  0.2814
 9343TIP3    H149444   2.182   2.246  10.727  1.8127  0.4090  0.4321
 9343TIP3    H249445   2.279   2.146  10.787 -0.7835 -1.9321  0.9917
 9344TIP3   OH249446   1.130   2.052  15.514  0.5248 -0.9217  0.3159
 9344TIP3    H149447   1.102   1.972  15.468  0.9858 -1.5580  1.1116
 9344TIP3    H249448   1.163   2.109  15.444  0.7899 -1.6806 -0.2026
 9345TIP3   OH249449   1.258   5.761  15.341 -0.5788  0.5975  0.4989
 9345TIP3    H149450   1.333   5.717  15.302 -0.4105 -0.1551  1.6324
 9345TIP3    H249451   1.295   5.825  15.402 -0.8494  0.3770  0.9005
 9346TIP3   OH249452   6.500   4.428   1.763 -0.1393  0.2834  0.4524
 9346TIP3    H149453   6.470   4.449   1.674  0.2942 -1.1232 -0.0428
 9346TIP3    H249454   6.595   4.417   1.755 -0.2333 -0.9517  0.8559
 9347TIP3   OH249455   0.940   6.184   5.415  0.5794  0.0442  0.2570
 9347TIP3    H149456   0.960   6.092   5.434 -1.0286 -0.2119  0.9325
 9347TIP3    H249457   1.008   6.212   5.354  2.7274 -0.7676  2.1329
 9348TIP3   OH249458   4.827   2.689  13.489 -0.1778  0.2253 -0.4649
 9348TIP3    H149459   4.792   2.637  13.562 -0.9340  0.2664 -0.7834
 9348TIP3    H249460   4.755   2.692  13.426  0.4388  0.2593 -1.1776
 9349TIP3   OH249461   2.594   3.386   1.287 -0.2755  0.7115  0.0653
 9349TIP3    H149462   2.683   3.413   1.308 -1.1911  2.8168  1.5916
 9349TIP3    H249463   2.565   3.448   1.219 -0.6602  0.2249 -0.2218
 9350TIP3   OH249464   3.482   5.496  11.164 -0.2242 -0.0941 -0.0490
 9350TIP3    H149465   3.426   5.490  11.087 -2.7267  0.8761  1.5303
 9350TIP3    H249466   3.518   5.408  11.176 -1.6370 -0.8395 -1.0221
 9351TIP3   OH249467   4.423   1.626  11.129  0.3372  0.2354 -0.1553
 9351TIP3    H149468   4.361   1.692  11.160 -0.8533 -0.7172 -0.4699
 9351TIP3    H249469   4.509   1.660  11.156 -0.3875  1.0473  1.2413
 9352TIP3   OH249470   0.884   3.638  14.526 -0.5254 -0.3672 -0.0265
 9352TIP3    H149471   0.857   3.729  14.539 -0.1343 -0.4201  1.2855
 9352TIP3    H249472   0.968   3.631  14.572 -1.2346 -1.7396  1.1269
 9353TIP3   OH249473   1.963   2.274   3.218  0.6129 -0.2854  0.0818
 9353TIP3    H149474   1.964   2.233   3.304  0.4507 -1.8159 -0.6076
 9353TIP3    H249475   1.929   2.362   3.233 -2.2134 -1.4537  1.2173
 9354TIP3   OH249476   5.965   3.735   0.407  0.5901 -0.1782 -0.2497
 9354TIP3    H149477   6.055   3.763   0.388  1.6859 -3.6165 -0.7197
 9354TIP3    H249478   5.943   3.781   0.488  2.3339  1.5403 -0.6600
 9355TIP3   OH249479   2.397   0.745  17.217  0.4630  0.5108 -0.4209
 9355TIP3    H149480   2.326   0.688  17.187  1.6998 -0.6319 -1.2775
 9355TIP3    H249481   2.397   0.817  17.154  1.3371 -0.5276 -1.6690
 9356TIP3   OH249482   6.005   5.863  16.484  0.2192  0.1393  0.2135
 9356TIP3    H149483   5.989   5.813  16.404 -0.8936  1.3049 -0.3222
 9356TIP3    H249484   5.989   5.800  16.555  0.9418 -0.8269 -0.4681
 9357TIP3   OH249485   1.786   0.540   5.818 -0.1641 -0.2830  0.4436
 9357TIP3    H149486   1.817   0.631   5.811  1.2198 -0.8149 -1.0523
 9357TIP3    H249487   1.857   0.494   5.862 -0.1049 -0.9594 -0.3393
 9358TIP3   OH249488   0.850   1.526  15.693 -0.0422  0.6905 -0.2321
 9358TIP3    H149489   0.773   1.471  15.705 -0.0554  0.4345 -1.3971
 9358TIP3    H249490   0.839   1.565  15.606 -0.3096  2.9998  0.7506
 9359TIP3   OH249491   0.341   6.572  16.441  0.1854  0.1368  0.2503
 9359TIP3    H149492   0.388   6.568  16.358  0.6890 -2.3838  0.5982
 9359TIP3    H249493   0.249   6.579  16.416  0.4125  0.5955 -0.4823
 9360TIP3   OH249494   6.040   1.133   0.763  0.2440 -0.0255  0.3963
 9360TIP3    H149495   6.020   1.227   0.770  2.0474  0.4230 -0.0685
 9360TIP3    H249496   6.118   1.129   0.708  0.7643 -1.7467  1.2057
 9361TIP3   OH249497   0.942   0.598  16.333 -0.4662  0.0948  0.3594
 9361TIP3    H149498   0.914   0.597  16.424 -0.5419 -1.7829  0.3499
 9361TIP3    H249499   0.946   0.691  16.310 -1.8415  0.5587  1.8268
 9362TIP3   OH249500   6.110   5.735   5.527 -0.1428 -0.1907 -0.0031
 9362TIP3    H149501   6.033   5.720   5.473 -0.6751 -1.7074  1.1149
 9362TIP3    H249502   6.184   5.715   5.469 -0.7085 -2.3523 -0.0692
 9363TIP3   OH249503   0.432   0.039   1.473 -0.4827  0.5555  0.0367
 9363TIP3    H149504   0.490   0.093   1.420 -0.7487  1.0165  0.2064
 9363TIP3    H249505   0.422   0.088   1.555  0.8499 -0.6943  0.9956
 9364TIP3   OH249506   1.573   0.897   3.529  0.0228  0.4547 -0.5973
 9364TIP3    H149507   1.480   0.877   3.539  0.1996 -0.3728 -0.5233
 9364TIP3    H249508   1.575   0.978   3.478 -0.7579  1.4118  0.8437
 9365TIP3   OH249509   3.447   2.153  16.277 -0.4506  0.2204 -0.6327
 9365TIP3    H149510   3.436   2.081  16.340 -0.6540  0.8545  0.0776
 9365TIP3    H249511   3.365   2.154  16.228  0.8093 -2.1860 -3.0089
 9366TIP3   OH249512   3.064   1.651  11.648 -0.5560  0.0322  0.0915
 9366TIP3    H149513   3.146   1.692  11.677 -1.1654  1.3081  0.1229
 9366TIP3    H249514   3.089   1.564  11.619  0.5876 -0.1456  1.4834
 9367TIP3   OH249515   1.467   3.999  12.439  0.0991 -0.0680 -0.1033
 9367TIP3    H149516   1.393   3.994  12.378 -0.2156 -1.1328  0.3429
 9367TIP3    H249517   1.544   4.007  12.382 -0.3016  0.3566 -0.5927
 9368TIP3   OH249518   2.852   2.817   2.285 -0.2451 -0.3290 -0.1798
 9368TIP3    H149519   2.816   2.736   2.321  2.5308 -1.0648  1.1395
 9368TIP3    H249520   2.812   2.886   2.337  1.5043 -1.2273  2.5676
 9369TIP3   OH249521   6.109   6.056   0.283  0.3764  0.9694  0.0226
 9369TIP3    H149522   6.132   5.979   0.231  0.3821  1.8997 -1.4304
 9369TIP3    H249523   6.191   6.106   0.288  0.3756  0.8862  0.9574
 9370TIP3   OH249524   3.644   1.459   4.818  0.2500 -0.1783  0.2596
 9370TIP3    H149525   3.622   1.551   4.807 -0.2361 -0.1062  1.6495
 9370TIP3    H249526   3.739   1.458   4.830  0.0929  0.3258  1.7276
 9371TIP3   OH249527   4.412   1.799   6.053  0.8035 -0.9833  0.1740
 9371TIP3    H149528   4.374   1.770   6.136  2.5076 -1.5809  0.7684
 9371TIP3    H249529   4.370   1.884   6.037 -0.9928 -1.7309  0.6164
 9372TIP3   OH249530   0.339   5.834  13.241 -0.0588 -0.2665  0.3211
 9372TIP3    H149531   0.253   5.800  13.216 -0.2860 -0.0705  0.8087
 9372TIP3    H249532   0.355   5.906  13.180  0.2530 -0.9829 -0.4632
 9373TIP3   OH249533   4.995   2.496  11.415  0.3494  0.8967  0.0333
 9373TIP3    H149534   5.002   2.558  11.488  0.8243  1.6519 -0.6287
 9373TIP3    H249535   4.915   2.523  11.369  0.8066  1.3393 -0.5241
 9374TIP3   OH249536   4.097   4.883  11.558  0.1292 -0.0373  0.6744
 9374TIP3    H149537   4.152   4.920  11.627  1.7476 -0.9187 -0.0787
 9374TIP3    H249538   4.090   4.791  11.580  1.3850 -0.5071 -0.7515
 9375TIP3   OH249539   4.343   5.453  13.936  0.5170  0.1293  0.4706
 9375TIP3    H149540   4.407   5.524  13.929  0.5107  0.0957  0.0743
 9375TIP3    H249541   4.259   5.494  13.915  0.6933 -0.2895 -1.1926
 9376TIP3   OH249542   1.529   5.861   5.039 -0.0007  0.5201 -0.1059
 9376TIP3    H149543   1.473   5.807   4.982  0.2799  0.5379 -0.4024
 9376TIP3    H249544   1.498   5.842   5.127  0.7816 -0.9418 -0.1082
 9377TIP3   OH249545   3.470   4.723  16.937  0.2245  0.1604  0.5182
 9377TIP3    H149546   3.418   4.728  17.017  0.5142  0.5521  0.6865
 9377TIP3    H249547   3.406   4.733  16.866  0.1852  1.7971  0.7414
 9378TIP3   OH249548   6.117   4.790   5.412  0.2120  0.2262 -0.0649
 9378TIP3    H149549   6.195   4.750   5.451  0.7560  1.2999  0.0016
 9378TIP3    H249550   6.051   4.785   5.481  0.1407 -0.8895 -0.1987
 9379TIP3   OH249551   6.764   2.498   3.208 -0.0834 -0.3366 -0.3331
 9379TIP3    H149552   6.734   2.572   3.260 -0.6599 -0.4065 -0.5568
 9379TIP3    H249553   6.734   2.421   3.256 -1.9486 -0.3936 -1.4971
 9380TIP3   OH249554   4.446   5.617  13.672  0.1655  0.1048 -0.1333
 9380TIP3    H149555   4.491   5.610  13.588 -1.8935 -0.4320 -1.2495
 9380TIP3    H249556   4.493   5.687  13.718  2.7934 -1.1601 -0.7270
 9381TIP3   OH249557   4.011   2.053   1.775  0.1224 -0.6897  0.0747
 9381TIP3    H149558   4.077   2.079   1.839 -0.7872 -1.4835  1.3858
 9381TIP3    H249559   4.054   1.989   1.719  0.9860  0.1596 -0.2613
 9382TIP3   OH249560   4.637   6.187  12.535 -0.4169  0.7002 -0.3700
 9382TIP3    H149561   4.709   6.184  12.599 -0.2204 -0.5617 -0.6223
 9382TIP3    H249562   4.620   6.280  12.523  0.2949  0.9873  0.6879
 9383TIP3   OH249563   4.564   2.552   4.968 -0.9769 -0.1644 -0.4852
 9383TIP3    H149564   4.490   2.493   4.956  0.9676 -2.7965 -0.3686
 9383TIP3    H249565   4.610   2.550   4.884 -1.0250  1.4900 -0.5832
 9384TIP3   OH249566   4.239   3.722  13.814  0.2371  0.0825 -0.0310
 9384TIP3    H149567   4.162   3.763  13.851  0.0621 -0.0002 -0.3026
 9384TIP3    H249568   4.270   3.782  13.746  0.0684 -0.1557 -0.3250
 9385TIP3   OH249569   3.775   3.429  15.832  0.0764 -0.5473  0.0704
 9385TIP3    H149570   3.699   3.453  15.884  1.4038 -0.4980  2.0909
 9385TIP3    H249571   3.787   3.502  15.772 -0.5009  0.1983  0.8452
 9386TIP3   OH249572   6.378   6.598  16.284 -0.0498 -0.3861 -0.0878
 9386TIP3    H149573   6.451   6.626  16.228 -0.7887 -1.7667 -1.8382
 9386TIP3    H249574   6.343   6.680  16.319  1.8304  0.3606  0.1946
 9387TIP3   OH249575   5.914   0.488  15.327 -0.7570 -0.3708 -0.7600
 9387TIP3    H149576   5.981   0.555  15.337 -1.3595  0.0367  0.8918
 9387TIP3    H249577   5.832   0.536  15.322 -1.2376 -0.9352  0.8155
 9388TIP3   OH249578   0.072   3.515   3.892  0.0037  0.2534 -0.9978
 9388TIP3    H149579  -0.004   3.541   3.840 -0.7779 -0.2315 -0.1414
 9388TIP3    H249580   0.048   3.429   3.928  0.5348  0.5331  0.0824
 9389TIP3   OH249581   6.715   6.212  14.574 -0.3860  0.5964  0.7523
 9389TIP3    H149582   6.811   6.208  14.577 -0.3532  1.3703  0.9709
 9389TIP3    H249583   6.687   6.125  14.603  0.2439 -0.9601 -2.7726
 9390TIP3   OH249584   6.114   2.099  16.040 -0.3200  0.4051 -0.2855
 9390TIP3    H149585   6.140   2.029  16.100 -0.8899  1.5311  1.3549
 9390TIP3    H249586   6.196   2.127  15.999  0.4365  0.8540  1.4214
 9391TIP3   OH249587   1.311   0.166  16.893 -0.2335 -0.4482 -0.7667
 9391TIP3    H149588   1.387   0.109  16.881  0.8115  1.2018 -2.8020
 9391TIP3    H249589   1.236   0.112  16.871  0.5345 -1.5720 -0.7115
 9392TIP3   OH249590   2.725   5.094   4.842 -0.2163  0.0286  0.3623
 9392TIP3    H149591   2.682   5.136   4.768  2.5286  0.0220 -1.3951
 9392TIP3    H249592   2.736   5.164   4.906 -1.2854  0.4158  0.1390
 9393TIP3   OH249593   0.622   1.753   3.533  0.8076 -0.0450  0.0957
 9393TIP3    H149594   0.625   1.665   3.495  0.6837 -0.0492  0.0940
 9393TIP3    H249595   0.529   1.774   3.535  0.8703  0.2791 -0.3489
 9394TIP3   OH249596   1.842   6.398  14.405  0.0454 -0.1909  0.5468
 9394TIP3    H149597   1.903   6.328  14.383 -0.8419 -0.6620 -0.5347
 9394TIP3    H249598   1.820   6.438  14.321  1.0841  1.9047  1.1910
 9395TIP3   OH249599   5.340   1.317  11.697 -0.1314  0.0994  0.1365
 9395TIP3    H149600   5.331   1.230  11.657 -1.0872  0.0984  0.3214
 9395TIP3    H249601   5.250   1.342  11.718  0.0713  1.4103 -0.4987
 9396TIP3   OH249602   6.541   0.613  12.123  0.6281 -0.1742 -0.4625
 9396TIP3    H149603   6.583   0.630  12.039  0.2283 -3.5931 -1.5305
 9396TIP3    H249604   6.448   0.599  12.101  0.3467 -0.1641  0.6720
 9397TIP3   OH249605   0.459   0.794  15.246  0.2657  1.3882 -0.1650
 9397TIP3    H149606   0.543   0.770  15.285 -0.8273 -0.7566  1.0382
 9397TIP3    H249607   0.481   0.819  15.156  2.0719 -0.3516 -0.2925
 9398TIP3   OH249608   4.723   3.557  12.154 -0.2697  0.1696  0.1157
 9398TIP3    H149609   4.755   3.510  12.078 -0.8575  0.3701 -0.2688
 9398TIP3    H249610   4.801   3.586  12.200  0.0936 -0.5805 -0.0154
 9399TIP3   OH249611   2.104   0.938   6.317  0.0875 -0.0893  0.4051
 9399TIP3    H149612   2.098   0.866   6.380  2.1590 -0.7459 -0.0732
 9399TIP3    H249613   2.035   0.998   6.343 -0.7117 -1.5257  1.7631
 9400TIP3   OH249614   4.093   0.308  14.802  0.2868  0.0227  0.1603
 9400TIP3    H149615   4.035   0.354  14.863  1.2055  1.8253 -0.2489
 9400TIP3    H249616   4.140   0.245  14.857 -0.7059 -0.1467  0.8363
 9401TIP3   OH249617   6.570   4.559   4.909  0.4455 -0.8973  0.1366
 9401TIP3    H149618   6.625   4.577   4.985 -1.1611 -1.9111  1.6119
 9401TIP3    H249619   6.482   4.586   4.936  0.1768  1.0835 -2.2931
 9402TIP3   OH249620   3.385   4.986  14.779 -0.1859 -0.2300 -0.1326
 9402TIP3    H149621   3.461   4.958  14.729  0.3295 -1.3226  1.1910
 9402TIP3    H249622   3.420   5.044  14.846 -0.8102  0.9091 -0.7750
 9403TIP3   OH249623   5.277   0.881   1.767 -0.2777 -0.4283 -0.9574
 9403TIP3    H149624   5.237   0.939   1.833  0.1219 -2.0566  0.8144
 9403TIP3    H249625   5.348   0.933   1.730 -0.0857  0.3240  0.3903
 9404TIP3   OH249626   4.211   0.368   0.767 -0.0469  0.2532 -0.4283
 9404TIP3    H149627   4.297   0.370   0.725  0.3650  0.4076  0.3965
 9404TIP3    H249628   4.161   0.436   0.723  1.0937  1.9873  0.8122
 9405TIP3   OH249629   3.186   4.972   3.731  0.0098  0.6551  0.3793
 9405TIP3    H149630   3.248   4.905   3.702 -0.5449 -0.5643  1.8681
 9405TIP3    H249631   3.102   4.946   3.692 -0.4836 -0.3191  1.9784
 9406TIP3   OH249632   6.276   1.045  11.380 -0.0089  0.8116  0.1593
 9406TIP3    H149633   6.234   0.996  11.310  0.2981  0.8434 -0.0496
 9406TIP3    H249634   6.234   1.131  11.379 -0.1218  0.7551  0.1257
 9407TIP3   OH249635   3.214   5.276  15.731 -0.3025 -0.2734 -0.3836
 9407TIP3    H149636   3.198   5.341  15.663 -0.7594  1.1624  1.0250
 9407TIP3    H249637   3.306   5.251  15.719 -0.4767 -0.3366 -1.7303
 9408TIP3   OH249638   5.013   4.871  17.158 -0.0871 -0.1453 -0.5925
 9408TIP3    H149639   5.044   4.780  17.156 -0.9906 -0.4654 -1.7151
 9408TIP3    H249640   5.020   4.897  17.249  0.2765 -1.3132 -0.2646
 9409TIP3   OH249641   1.855   6.736  11.868 -0.3500  0.4508  0.2555
 9409TIP3    H149642   1.823   6.669  11.807 -1.4151  1.5024 -0.3939
 9409TIP3    H249643   1.785   6.743  11.933  0.0560  0.4612  0.6861
 9410TIP3   OH249644   6.336   6.265  15.513 -0.1230 -0.5285  0.5486
 9410TIP3    H149645   6.430   6.249  15.514 -0.0603 -0.1823  1.3113
 9410TIP3    H249646   6.327   6.358  15.490 -0.3916 -1.0599 -1.7393
 9411TIP3   OH249647   5.753   5.041  12.048 -0.3285  0.0696  0.8031
 9411TIP3    H149648   5.805   5.062  12.126  1.1081  2.2369 -0.6601
 9411TIP3    H249649   5.721   5.125  12.017 -1.6167 -0.8578 -0.4849
 9412TIP3   OH249650   5.649   6.560  11.483 -0.3288  0.2568 -0.3984
 9412TIP3    H149651   5.592   6.591  11.413 -0.8485  1.8858  0.6917
 9412TIP3    H249652   5.722   6.623  11.484  0.2410 -0.3974 -0.1853
 9413TIP3   OH249653   6.787   4.613   3.093  0.0589  0.9315  0.3946
 9413TIP3    H149654   6.816   4.622   3.184 -1.8943  0.0316  1.1740
 9413TIP3    H249655   6.839   4.540   3.059  1.3175  1.7356  0.5357
 9414TIP3   OH249656   2.333   0.786   2.302  0.2886  0.0177 -0.5359
 9414TIP3    H149657   2.421   0.748   2.290  0.1505 -0.6416  0.4434
 9414TIP3    H249658   2.275   0.724   2.258  0.2687  0.2170 -0.7911
 9415TIP3   OH249659   1.577   6.320  15.939  0.4089  0.2158  0.3786
 9415TIP3    H149660   1.581   6.232  15.976  1.1090  0.2146  0.3172
 9415TIP3    H249661   1.544   6.307  15.850  2.7640 -0.2993 -0.4993
 9416TIP3   OH249662   1.175   4.535  16.285  0.0401  0.1217 -0.1171
 9416TIP3    H149663   1.085   4.503  16.273 -0.4472  1.3537  0.0195
 9416TIP3    H249664   1.171   4.626  16.255  0.6267  0.9899  2.2277
 9417TIP3   OH249665   0.223   1.729   0.350 -0.0157  0.1354  0.0816
 9417TIP3    H149666   0.269   1.747   0.432  0.4970 -0.8725  0.0361
 9417TIP3    H249667   0.193   1.638   0.359 -2.9551  1.0746  0.5238
 9418TIP3   OH249668   1.217   0.311  15.294 -0.4631  0.4098 -0.3386
 9418TIP3    H149669   1.205   0.406  15.290  0.3476  0.5120 -0.5244
 9418TIP3    H249670   1.226   0.293  15.388 -2.9813  0.1811 -0.0695
 9419TIP3   OH249671   6.518   5.117  11.391  0.2745  0.1081  0.5155
 9419TIP3    H149672   6.463   5.191  11.414  2.7982  1.6307  2.1423
 9419TIP3    H249673   6.474   5.076  11.317 -1.7239  2.6532  0.1743
 9420TIP3   OH249674   4.477   0.606  15.204  0.0322 -0.0186 -0.2154
 9420TIP3    H149675   4.531   0.617  15.126 -1.0515 -0.1192 -1.0063
 9420TIP3    H249676   4.400   0.559  15.173 -1.1800  1.3861  0.5625
 9421TIP3   OH249677   1.683   1.880  13.734 -0.2699 -0.3351  0.1027
 9421TIP3    H149678   1.591   1.869  13.709  0.0170 -1.8028 -0.4286
 9421TIP3    H249679   1.694   1.825  13.811  0.4110 -1.1204 -0.5263
 9422TIP3   OH249680   1.465   3.797   6.015 -0.3649  0.5123 -0.0449
 9422TIP3    H149681   1.498   3.715   5.978  0.4930  0.5044  0.7063
 9422TIP3    H249682   1.516   3.865   5.971  0.1717  0.5382  0.5997
 9423TIP3   OH249683   0.903   0.029   3.557  0.2080  0.0552  0.7018
 9423TIP3    H149684   0.844   0.014   3.632  1.4549  1.4942  2.0338
 9423TIP3    H249685   0.979  -0.026   3.576  0.7490  0.8203  0.7786
 9424TIP3   OH249686   4.019   5.643  12.145 -0.3156  0.0843 -0.0804
 9424TIP3    H149687   4.110   5.616  12.160 -0.9453 -0.4885  3.4264
 9424TIP3    H249688   4.021   5.738  12.159 -0.3431 -0.0019  0.5182
 9425TIP3   OH249689   1.202   0.070  13.640  0.0034  0.1365  0.2213
 9425TIP3    H149690   1.288   0.038  13.612 -1.1127 -1.6983 -1.3531
 9425TIP3    H249691   1.202   0.059  13.735  1.0874 -0.9296  0.1271
 9426TIP3   OH249692   2.893   1.767   1.130 -0.0549 -0.5781  0.0311
 9426TIP3    H149693   2.976   1.786   1.175  0.5816  0.6059 -1.5296
 9426TIP3    H249694   2.869   1.679   1.159  0.6184 -0.1103  2.1646
 9427TIP3   OH249695   1.552   4.554   5.805 -0.3742 -0.2141  0.3551
 9427TIP3    H149696   1.516   4.540   5.717 -0.5196 -1.6838  0.6260
 9427TIP3    H249697   1.645   4.530   5.796 -0.3269 -0.1060  0.5528
 9428TIP3   OH249698   2.966   0.695   4.653  0.0141 -0.4084 -0.2405
 9428TIP3    H149699   2.998   0.609   4.680  2.8232  0.9541  1.1884
 9428TIP3    H249700   3.002   0.707   4.565  2.8565  0.6619  0.9408
 9429TIP3   OH249701   4.797   3.679  10.384  0.2359  0.1413  0.1959
 9429TIP3    H149702   4.729   3.697  10.448  0.7635  1.7038  0.3702
 9429TIP3    H249703   4.753   3.685  10.299 -0.7478 -3.1786  0.3342
 9430TIP3   OH249704   3.392   1.276   4.294  0.1222 -0.2928 -0.1559
 9430TIP3    H149705   3.321   1.221   4.260 -0.1139 -1.2129  1.7115
 9430TIP3    H249706   3.470   1.242   4.250 -0.3624 -0.3609 -0.9935
 9431TIP3   OH249707   3.323   4.060   2.906  0.0493  0.1236  0.3234
 9431TIP3    H149708   3.406   4.036   2.946  1.0036  0.0644 -1.5504
 9431TIP3    H249709   3.281   3.976   2.886  0.0090  0.1320  0.3740
 9432TIP3   OH249710   4.377   3.237  12.969 -0.2561 -0.3463  0.0464
 9432TIP3    H149711   4.358   3.329  12.948 -2.6077 -0.6294  0.6636
 9432TIP3    H249712   4.437   3.242  13.043  2.4881  0.6209 -2.0449
 9433TIP3   OH249713   1.750   3.829  12.722  0.3191  0.1361  0.2111
 9433TIP3    H149714   1.740   3.766  12.650  1.0169 -0.5062  0.6624
 9433TIP3    H249715   1.685   3.803  12.786  0.7438 -0.2549  0.4860
 9434TIP3   OH249716   2.000   5.979   5.566 -0.5791  0.6819  0.1680
 9434TIP3    H149717   1.954   5.998   5.484 -0.6464  0.4487  0.1498
 9434TIP3    H249718   2.059   5.907   5.543 -1.1686  0.0720  0.5098
 9435TIP3   OH249719   5.385   5.133  14.990  0.4229  0.1574 -0.0390
 9435TIP3    H149720   5.296   5.110  15.016 -0.3039  1.9824 -0.6875
 9435TIP3    H249721   5.409   5.067  14.925 -0.6020 -0.1661 -0.1099
 9436TIP3   OH249722   1.468   0.016   6.555  0.2647 -0.4338 -0.0794
 9436TIP3    H149723   1.400   0.071   6.515  0.7437  1.1227  1.1386
 9436TIP3    H249724   1.419  -0.056   6.596 -0.5127 -0.1530 -0.4947
 9437TIP3   OH249725   5.715   0.953   3.682  0.6862 -0.2634 -0.3121
 9437TIP3    H149726   5.687   0.882   3.739  0.9684 -0.1331 -0.0085
 9437TIP3    H249727   5.805   0.930   3.657  1.2577  0.5978  0.8038
 9438TIP3   OH249728   5.348   2.725   4.453 -0.1156  0.1217  0.5861
 9438TIP3    H149729   5.429   2.702   4.500 -0.0604  1.1784  1.0348
 9438TIP3    H249730   5.365   2.812   4.418 -0.5614 -0.2227 -0.5028
 9439TIP3   OH249731   2.781   0.388  14.977 -0.1918  0.3192  0.0106
 9439TIP3    H149732   2.730   0.317  15.015 -0.2826 -0.2956 -1.2382
 9439TIP3    H249733   2.868   0.350  14.962 -1.1721 -0.8197 -4.1063
 9440TIP3   OH249734   1.618   0.721   5.268 -0.3009  0.2890  0.1535
 9440TIP3    H149735   1.625   0.626   5.279 -2.2711  0.1285  0.3512
 9440TIP3    H249736   1.656   0.737   5.181  0.1858 -0.6561  0.1786
 9441TIP3   OH249737   6.523   3.694  14.334  0.0209 -0.5939 -0.7543
 9441TIP3    H149738   6.541   3.745  14.413 -0.3027  0.6873 -1.4918
 9441TIP3    H249739   6.474   3.617  14.367 -0.8944  0.3602  0.2040
 9442TIP3   OH249740   0.764   5.675   5.390  0.3600  0.3261  0.0619
 9442TIP3    H149741   0.753   5.659   5.483 -0.5649  0.3668 -0.0256
 9442TIP3    H249742   0.859   5.676   5.376  0.4963 -0.1987  0.9022
 9443TIP3   OH249743   1.010   4.159  16.995  0.0867 -0.0185  0.2949
 9443TIP3    H149744   0.955   4.083  17.014  1.0835 -0.3165  2.3401
 9443TIP3    H249745   0.955   4.216  16.942 -2.0564 -0.5089  1.8338
 9444TIP3   OH249746   2.980   4.539  12.384 -0.4940 -0.4013 -0.0058
 9444TIP3    H149747   2.976   4.607  12.451  0.2102 -0.2125 -0.1408
 9444TIP3    H249748   2.940   4.462  12.425  0.8083 -0.5812  1.0221
 9445TIP3   OH249749   4.624   3.892  13.871  0.1295 -0.2641 -1.2502
 9445TIP3    H149750   4.607   3.946  13.794 -0.6720 -0.1768 -1.0286
 9445TIP3    H249751   4.689   3.941  13.921 -1.1035  0.8850 -0.6970
 9446TIP3   OH249752   2.038   6.459  15.296  0.5220  0.4831  0.1409
 9446TIP3    H149753   2.115   6.495  15.252  0.9232  0.0868  0.5110
 9446TIP3    H249754   2.069   6.378  15.337 -0.3004 -0.1451 -0.4451
 9447TIP3   OH249755   1.921   6.006   5.047  0.5417  0.4517  0.4171
 9447TIP3    H149756   1.951   6.053   4.969 -0.3647  1.4445  0.6557
 9447TIP3    H249757   1.868   5.934   5.013  0.0733  0.9365  0.1013
 9448TIP3   OH249758   0.495   5.505  15.198  0.2972 -0.7428 -0.5868
 9448TIP3    H149759   0.480   5.413  15.176 -0.6257 -0.7143 -0.1210
 9448TIP3    H249760   0.440   5.521  15.274 -1.8522  0.9379 -2.3537
 9449TIP3   OH249761   4.510   0.915   1.716  0.1788 -0.0271  0.6154
 9449TIP3    H149762   4.593   0.963   1.716  0.7392 -0.8418 -2.2382
 9449TIP3    H249763   4.454   0.962   1.654 -0.9979 -0.3297  1.4113
 9450TIP3   OH249764   1.493   5.121   0.815  0.0999 -0.3810 -0.4009
 9450TIP3    H149765   1.584   5.113   0.787  1.0423 -1.0726  2.5353
 9450TIP3    H249766   1.496   5.175   0.893 -2.1193  0.1129 -0.5932
 9451TIP3   OH249767   2.680   1.206   2.707  0.0164  0.0702  0.1779
 9451TIP3    H149768   2.633   1.123   2.709  1.6285 -0.8959  0.3258
 9451TIP3    H249769   2.718   1.209   2.619 -1.2973  1.4424 -0.3908
 9452TIP3   OH249770   2.970   3.318  14.521  0.3521  0.1555  0.2755
 9452TIP3    H149771   2.961   3.345  14.430  0.1382 -0.3315  0.1495
 9452TIP3    H249772   2.928   3.388  14.571  1.6238  1.0816  0.0950
 9453TIP3   OH249773   1.310   0.755   4.128  0.0437  0.3844 -0.1479
 9453TIP3    H149774   1.392   0.724   4.091 -0.8733 -0.0645 -1.9154
 9453TIP3    H249775   1.331   0.839   4.169  1.7245 -0.5633  1.0340
 9454TIP3   OH249776   6.489   1.185   2.027  0.2098 -0.2042 -0.2166
 9454TIP3    H149777   6.480   1.275   1.995 -1.6234 -0.7989 -1.4986
 9454TIP3    H249778   6.584   1.170   2.026  0.5636  1.6775 -0.0097
 9455TIP3   OH249779   3.446   4.623  11.664  0.2935  0.2607  0.2656
 9455TIP3    H149780   3.443   4.656  11.574 -2.7804  1.8550  0.8115
 9455TIP3    H249781   3.532   4.649  11.696 -0.1318  3.6827 -0.9082
 9456TIP3   OH249782   5.699   4.868  15.447  0.3446  0.7919 -0.4374
 9456TIP3    H149783   5.639   4.937  15.419  0.8386  1.2575 -0.3738
 9456TIP3    H249784   5.657   4.829  15.523 -0.9742 -0.4287 -1.7344
 9457TIP3   OH249785   2.679   0.132   5.902  0.9575  0.1229  0.1665
 9457TIP3    H149786   2.702   0.224   5.913  0.7581  0.0475  1.2864
 9457TIP3    H249787   2.755   0.094   5.858  1.6077  0.5519  0.8925
 9458TIP3   OH249788   2.902   3.167   4.147 -0.4905 -0.0443 -0.4758
 9458TIP3    H149789   2.906   3.235   4.080  0.3375  0.1791 -0.2213
 9458TIP3    H249790   2.923   3.213   4.229  2.1006 -0.9152 -0.5512
 9459TIP3   OH249791   0.796   5.121  16.841  0.4828 -0.3281  0.4575
 9459TIP3    H149792   0.703   5.138  16.831  0.8207  0.8865 -1.0166
 9459TIP3    H249793   0.813   5.045  16.785  0.7431  0.8704 -1.1708
 9460TIP3   OH249794   4.127   6.557   2.115 -0.2061  0.2222  0.5400
 9460TIP3    H149795   4.138   6.483   2.055  1.5086 -0.2875  1.4141
 9460TIP3    H249796   4.169   6.528   2.196 -0.8045  1.6118  1.3777
 9461TIP3   OH249797   0.796   5.921  12.614  0.4095 -0.3828  0.3927
 9461TIP3    H149798   0.709   5.953  12.638  0.3185  0.5533 -1.0620
 9461TIP3    H249799   0.837   5.995  12.569  2.8830  0.0137  3.0274
 9462TIP3   OH249800   3.395   3.399  16.694 -0.3908 -0.2102 -0.4977
 9462TIP3    H149801   3.366   3.311  16.669  0.6755 -0.6100 -0.4024
 9462TIP3    H249802   3.483   3.385  16.730 -0.2981  0.8739 -0.2782
 9463TIP3   OH249803   6.362   4.895  12.613  0.2597 -0.2325  0.2228
 9463TIP3    H149804   6.291   4.949  12.580 -0.4028 -2.0349 -1.5593
 9463TIP3    H249805   6.323   4.844  12.684  0.8706  1.4598  1.8669
 9464TIP3   OH249806   1.534   4.275   2.847 -0.1336  1.0663 -0.4045
 9464TIP3    H149807   1.578   4.293   2.765 -0.0884  2.0771 -0.1654
 9464TIP3    H249808   1.541   4.356   2.898  1.1224  0.0244  1.1915
 9465TIP3   OH249809   6.744   0.261   2.980  0.0451 -0.0895  0.3094
 9465TIP3    H149810   6.732   0.313   2.900 -1.2490 -1.5831 -0.5254
 9465TIP3    H249811   6.830   0.288   3.013  1.7234 -1.0279 -2.8593
 9466TIP3   OH249812   5.128   4.583  12.259 -0.2268  0.0754  0.0671
 9466TIP3    H149813   5.223   4.590  12.255  0.0449 -1.6167  1.7309
 9466TIP3    H249814   5.101   4.561  12.170  0.6375  2.8081 -0.9482
 9467TIP3   OH249815   6.605   4.150  17.127  0.2808  0.4674 -0.6215
 9467TIP3    H149816   6.569   4.110  17.048 -0.8644  1.7261 -0.7835
 9467TIP3    H249817   6.700   4.153  17.111  0.3585 -1.7128 -0.7684
 9468TIP3   OH249818   0.087   2.652   5.225 -0.0022  0.4702  0.1688
 9468TIP3    H149819   0.085   2.630   5.319  0.6032  1.6837  0.4840
 9468TIP3    H249820   0.044   2.737   5.219  3.0909  2.1717 -0.0860
 9469TIP3   OH249821   3.817   5.910   5.205 -0.0608  0.0127 -0.6789
 9469TIP3    H149822   3.801   5.853   5.281 -1.3625 -1.1469 -1.7564
 9469TIP3    H249823   3.775   5.993   5.228  0.4893  0.0302  0.2955
 9470TIP3   OH249824   6.118   4.666  15.869  0.2894 -0.8646  0.5379
 9470TIP3    H149825   6.136   4.749  15.825 -0.1011 -0.6791  0.7290
 9470TIP3    H249826   6.205   4.634  15.896  0.3583  0.0133  1.4241
 9471TIP3   OH249827   1.346   1.034   3.982 -0.1777  0.0352  0.2845
 9471TIP3    H149828   1.300   1.071   4.057  0.8262  1.1956  0.3763
 9471TIP3    H249829   1.439   1.043   4.004  0.1440  0.5541 -1.1395
 9472TIP3   OH249830   4.561   3.429   3.009  0.3528 -0.3546  0.4278
 9472TIP3    H149831   4.626   3.399   2.946  0.2932 -1.4614  0.8679
 9472TIP3    H249832   4.603   3.502   3.053  0.4103  0.4101 -0.8483
 9473TIP3   OH249833   0.395   0.216  15.482 -0.2115 -0.3111  0.3936
 9473TIP3    H149834   0.380   0.249  15.393  0.9862 -0.8103 -0.0251
 9473TIP3    H249835   0.452   0.140  15.469  1.4152  0.6205  1.6828
 9474TIP3   OH249836   4.100   4.836  11.882  0.2469  0.0104  0.0367
 9474TIP3    H149837   4.130   4.852  11.972  0.6321  0.2600 -0.1279
 9474TIP3    H249838   4.180   4.812  11.835  0.0859  0.1108 -0.2884
 9475TIP3   OH249839   5.508   2.534   1.484 -0.1576 -1.0683 -0.2653
 9475TIP3    H149840   5.452   2.458   1.467 -1.5360 -0.3157  0.6954
 9475TIP3    H249841   5.448   2.602   1.512  1.2388 -0.1648  0.6682
 9476TIP3   OH249842   4.661   6.180  11.158 -0.8727  0.4303 -0.1233
 9476TIP3    H149843   4.680   6.263  11.200 -0.6047  0.9722 -1.2747
 9476TIP3    H249844   4.571   6.160  11.185 -0.4744  0.4025  1.2366
 9477TIP3   OH249845   3.692   4.742  14.618 -0.3208  0.3164  0.4063
 9477TIP3    H149846   3.716   4.814  14.559 -0.4602 -0.0933 -0.1585
 9477TIP3    H249847   3.672   4.785  14.701  0.2325  0.8697  0.2605
 9478TIP3   OH249848   2.669   2.966   0.311 -0.3597 -0.0330  0.4891
 9478TIP3    H149849   2.721   2.888   0.291 -1.9164 -1.1124  0.4976
 9478TIP3    H249850   2.706   2.999   0.393  1.5741  0.4036 -0.4992
 9479TIP3   OH249851   6.508   1.569  12.462  0.1162  0.6429 -0.2678
 9479TIP3    H149852   6.457   1.501  12.419  0.7349 -0.1935  0.2775
 9479TIP3    H249853   6.446   1.614  12.519 -0.1899  0.1985 -0.2477
 9480TIP3   OH249854   3.156   4.164  15.574  0.0468  0.5122  0.6145
 9480TIP3    H149855   3.124   4.249  15.543  0.6902  0.9740  1.1646
 9480TIP3    H249856   3.134   4.162  15.667  1.8819  1.0128  1.1008
 9481TIP3   OH249857   4.876   2.718   1.076  0.6115 -0.0155 -0.1678
 9481TIP3    H149858   4.960   2.674   1.093  0.2542  0.5607  4.0782
 9481TIP3    H249859   4.810   2.660   1.114 -0.7571  0.5988 -1.4904
 9482TIP3   OH249860   3.931   5.498   6.046  0.4034  0.5125 -0.2773
 9482TIP3    H149861   3.863   5.563   6.030 -0.9543 -0.3377  1.6659
 9482TIP3    H249862   4.008   5.549   6.072  0.3997  1.4624 -2.0289
 9483TIP3   OH249863   3.598   0.299  16.989  0.4204 -0.0180 -0.5885
 9483TIP3    H149864   3.599   0.362  17.060 -0.6741  0.1694 -0.7202
 9483TIP3    H249865   3.545   0.226  17.021  1.4076 -0.7508 -0.5539
 9484TIP3   OH249866   2.367   3.411   4.851 -0.0088 -0.3353 -0.2516
 9484TIP3    H149867   2.371   3.506   4.839 -0.2453 -0.3482 -0.4326
 9484TIP3    H249868   2.344   3.399   4.943  0.3361 -0.2198 -0.1505
 9485TIP3   OH249869   1.114   2.471   3.834 -0.8188 -0.9124  0.5457
 9485TIP3    H149870   1.210   2.468   3.835 -0.8139 -0.6592  1.1814
 9485TIP3    H249871   1.088   2.380   3.822 -0.4963 -0.9600  0.1925
 9486TIP3   OH249872   5.764   0.517  16.690 -0.9526 -0.1442  1.3246
 9486TIP3    H149873   5.710   0.441  16.671  0.8168 -1.0856 -0.3078
 9486TIP3    H249874   5.807   0.537  16.607  0.5984  1.0178  2.3517
 9487TIP3   OH249875   1.210   3.002  17.143  0.2311  0.1745  0.1784
 9487TIP3    H149876   1.226   3.045  17.227 -1.1110  0.8450  0.1162
 9487TIP3    H249877   1.219   3.072  17.078 -0.8517  0.1380 -0.0287
 9488TIP3   OH249878   2.043   1.614  12.506  0.0133  0.3630 -0.0258
 9488TIP3    H149879   2.081   1.601  12.419  0.2643 -1.5112  0.3079
 9488TIP3    H249880   2.106   1.668  12.553  0.2966  0.6622 -0.7399
 9489TIP3   OH249881   2.389   2.513   3.008 -0.1530  0.8469 -0.3784
 9489TIP3    H149882   2.423   2.479   2.926 -1.7394  0.0326 -0.7378
 9489TIP3    H249883   2.350   2.597   2.985 -0.2855  0.7821 -0.3917
 9490TIP3   OH249884   4.819   3.905  12.933 -0.3502 -0.1916 -0.1433
 9490TIP3    H149885   4.808   3.959  13.011  1.3203 -0.4849  0.3184
 9490TIP3    H249886   4.878   3.835  12.960 -0.2458 -0.6608 -1.5129
 9491TIP3   OH249887   6.615   3.453   5.103 -0.1190  0.4692 -0.3033
 9491TIP3    H149888   6.562   3.505   5.042  0.2861  1.2848  0.0260
 9491TIP3    H249889   6.564   3.452   5.184 -0.7475 -0.7738 -0.6778
 9492TIP3   OH249890   1.215   4.574   0.500  0.4054  0.1268 -0.2049
 9492TIP3    H149891   1.243   4.482   0.500  1.6588  0.4925 -0.6044
 9492TIP3    H249892   1.122   4.570   0.478  0.8174 -0.9636 -1.9223
 9493TIP3   OH249893   5.626   4.600   1.388  0.0797 -1.1700  0.0419
 9493TIP3    H149894   5.608   4.682   1.342 -2.4485 -1.7357 -0.1032
 9493TIP3    H249895   5.660   4.542   1.319  0.5135 -0.7029 -0.1492
 9494TIP3   OH249896   6.129   2.825  14.838 -0.0221 -0.2184 -0.2156
 9494TIP3    H149897   6.064   2.756  14.854  0.7420 -0.9649 -0.2867
 9494TIP3    H249898   6.173   2.798  14.758  0.2128  0.4200 -0.3054
 9495TIP3   OH249899   0.561   2.088   4.361  0.6541  0.5403  0.0998
 9495TIP3    H149900   0.537   1.996   4.373  2.4200 -0.1497 -1.1989
 9495TIP3    H249901   0.502   2.119   4.293  0.8443 -0.0091 -0.3279
 9496TIP3   OH249902   1.439   0.248   3.464 -0.5209  0.3448  0.3066
 9496TIP3    H149903   1.428   0.342   3.480 -3.0804  0.3941 -1.0778
 9496TIP3    H249904   1.407   0.206   3.545  1.5645  0.6012  1.3238
 9497TIP3   OH249905   0.708   2.967  12.181 -0.2307  0.3963 -0.0972
 9497TIP3    H149906   0.660   2.892  12.219  0.0608  0.3949  0.2759
 9497TIP3    H249907   0.772   2.990  12.248 -0.6737  1.3268  0.0109
 9498TIP3   OH249908   1.399   5.780  15.819 -0.0083 -0.5752 -0.1508
 9498TIP3    H149909   1.396   5.737  15.904  0.9390  1.0558  0.7698
 9498TIP3    H249910   1.493   5.788  15.800 -0.0640  2.0102  0.2774
 9499TIP3   OH249911   1.139   4.083   2.447  0.1550  0.1067  0.0583
 9499TIP3    H149912   1.162   4.006   2.395 -0.6258  0.1796 -0.4186
 9499TIP3    H249913   1.107   4.047   2.530 -0.5259 -0.1069 -0.2903
 9500TIP3   OH249914   3.381   0.325   0.143  0.2855 -0.4067  0.3233
 9500TIP3    H149915   3.337   0.241   0.156 -1.1556 -0.0099 -1.4365
 9500TIP3    H249916   3.457   0.322   0.200 -0.2297 -2.5269  0.9923
 9501TIP3   OH249917   6.445   5.320  14.662 -0.8316  0.9077 -0.4203
 9501TIP3    H149918   6.475   5.230  14.674 -1.6071  0.8267  1.1928
 9501TIP3    H249919   6.462   5.339  14.569  0.6861 -0.3783 -0.4448
 9502TIP3   OH249920   4.327   3.335  16.499 -0.5922 -0.3706  0.3749
 9502TIP3    H149921   4.358   3.264  16.555 -2.0903 -2.1676 -0.9384
 9502TIP3    H249922   4.328   3.412  16.555  2.9880 -0.9290  1.3168
 9503TIP3   OH249923   5.831   0.919   3.355  0.1273  0.1245  0.0357
 9503TIP3    H149924   5.890   0.938   3.283  0.8881 -1.1203  0.2943
 9503TIP3    H249925   5.886   0.919   3.433  0.4560 -3.5390  0.0150
 9504TIP3   OH249926   1.935   3.621   5.037  0.3207 -0.3502  0.2704
 9504TIP3    H149927   1.907   3.550   4.980 -0.1306 -0.5158  0.6936
 9504TIP3    H249928   2.001   3.581   5.094  0.4779 -0.2843  0.1370
 9505TIP3   OH249929   6.769   0.489  15.227  0.5695  0.1829  0.1558
 9505TIP3    H149930   6.799   0.476  15.317 -1.1063 -1.2691  0.5505
 9505TIP3    H249931   6.807   0.573  15.201  2.2318 -0.0432  1.7142
 9506TIP3   OH249932   2.085   3.050  14.167 -0.0563  0.1540 -0.1273
 9506TIP3    H149933   2.081   2.979  14.103  1.2385 -0.8970  0.8715
 9506TIP3    H249934   2.043   3.013  14.245  2.1270 -0.2411  0.9641
 9507TIP3   OH249935   3.890   5.680  16.801  0.4093  0.4039 -0.3373
 9507TIP3    H149936   3.842   5.603  16.770  0.8058 -0.6056  1.4607
 9507TIP3    H249937   3.982   5.653  16.800  0.4384  0.2767  1.7103
 9508TIP3   OH249938   0.522   1.810   0.770 -0.2652 -1.0578 -0.3466
 9508TIP3    H149939   0.506   1.822   0.864  0.3929  1.3016 -0.4700
 9508TIP3    H249940   0.611   1.775   0.765  0.3254  0.3433 -0.0946
 9509TIP3   OH249941   0.002   2.790  11.839  0.4674  0.0820  0.1894
 9509TIP3    H149942  -0.046   2.865  11.874  2.1373  0.7810  1.1192
 9509TIP3    H249943  -0.046   2.765  11.761 -0.1844  2.0943 -0.1182
 9510TIP3   OH249944   6.750   5.221   4.992  0.1193  0.0570 -0.2484
 9510TIP3    H149945   6.701   5.209   5.073  0.3879  2.7007  0.3752
 9510TIP3    H249946   6.796   5.138   4.980  0.0680 -0.4176  2.2840
 9511TIP3   OH249947   2.111   5.208   3.275  0.2164 -0.4828  0.1077
 9511TIP3    H149948   2.043   5.143   3.294  1.5514 -2.2394 -0.8977
 9511TIP3    H249949   2.129   5.248   3.360 -1.0764 -0.9663  0.6438
 9512TIP3   OH249950   4.014   3.700  11.905 -0.6579 -0.4027 -0.4053
 9512TIP3    H149951   4.067   3.638  11.954  0.9620 -0.0652 -1.6623
 9512TIP3    H249952   4.060   3.784  11.914 -1.1764 -0.0142 -1.2060
 9513TIP3   OH249953   6.262   5.802  15.332 -0.7431 -0.0095  0.1006
 9513TIP3    H149954   6.232   5.886  15.366 -2.4270 -0.4137 -0.2854
 9513TIP3    H249955   6.284   5.751  15.409  0.0327  0.6838  0.3487
 9514TIP3   OH249956   6.508   5.455  12.187 -0.0622 -0.0100  0.0938
 9514TIP3    H149957   6.592   5.448  12.141 -0.2853  4.4631 -1.4536
 9514TIP3    H249958   6.442   5.449  12.118 -0.6705  1.6894  0.4794
 9515TIP3   OH249959   1.663   4.532  10.681  0.4490  0.2650 -0.2487
 9515TIP3    H149960   1.717   4.608  10.702  0.2647  0.0529  1.1215
 9515TIP3    H249961   1.575   4.567  10.672  0.3294  0.1986  0.5931
 9516TIP3   OH249962   3.382   6.141   6.265 -0.4552 -0.0934 -0.6691
 9516TIP3    H149963   3.443   6.158   6.193  1.2111 -0.8936  0.4870
 9516TIP3    H249964   3.350   6.053   6.248 -0.9990  0.1750 -1.0618
 9517TIP3   OH249965   4.839   1.804  17.143  0.1324  0.2066 -0.3269
 9517TIP3    H149966   4.850   1.734  17.079  0.1394 -1.6870  1.6563
 9517TIP3    H249967   4.928   1.832  17.164  0.1600  0.2226 -0.4609
 9518TIP3   OH249968   1.114   6.739   0.522  0.4001  0.8558  0.5157
 9518TIP3    H149969   1.197   6.693   0.533  0.0404 -0.0525 -0.3386
 9518TIP3    H249970   1.093   6.774   0.609  0.4718 -1.0138  1.3287
 9519TIP3   OH249971   5.655   0.944   5.498  0.8999  0.5475  0.1663
 9519TIP3    H149972   5.649   0.903   5.412  0.8961 -0.2039  0.5205
 9519TIP3    H249973   5.623   0.878   5.559  0.5709  1.2000  0.7146
 9520TIP3   OH249974   6.105   2.516   5.933 -0.0067 -0.6012  0.1779
 9520TIP3    H149975   6.035   2.562   5.888  1.6765  1.7775 -0.2260
 9520TIP3    H249976   6.081   2.519   6.025  0.8654  2.9680  0.4426
 9521TIP3   OH249977   0.995   0.186   0.491  0.3149  0.1661  0.2179
 9521TIP3    H149978   1.061   0.117   0.484  0.8680  0.7929 -1.0417
 9521TIP3    H249979   1.042   0.261   0.527  0.0880  0.3767  0.0794
 9522TIP3   OH249980   2.302   4.365  16.691 -0.4885 -0.0228  0.0671
 9522TIP3    H149981   2.236   4.335  16.754 -0.2378  2.4658  1.6387
 9522TIP3    H249982   2.262   4.347  16.605 -1.4134 -2.2718  0.8875
 9523TIP3   OH249983   5.433   5.571  14.417  0.0593 -0.4592  0.6878
 9523TIP3    H149984   5.479   5.527  14.489  1.0073 -1.3044 -0.3935
 9523TIP3    H249985   5.421   5.503  14.351  1.5670  0.8484 -1.0427
 9524TIP3   OH249986   2.980   5.888   4.629  0.1439  0.4363 -0.2402
 9524TIP3    H149987   3.038   5.961   4.608 -1.3277  1.6006 -0.4542
 9524TIP3    H249988   2.892   5.925   4.622 -0.6089 -1.0498  0.8938
 9525TIP3   OH249989   3.261   1.528   0.045  0.9219 -0.0271  0.4084
 9525TIP3    H149990   3.316   1.474   0.101  0.1034 -0.3475  0.9314
 9525TIP3    H249991   3.284   1.618   0.067  1.1982 -0.1598  0.6629
 9526TIP3   OH249992   1.356   4.004   0.002  0.0772  0.0882 -0.3012
 9526TIP3    H149993   1.276   4.025   0.050  0.7220  0.2840  0.7224
 9526TIP3    H249994   1.388   4.090  -0.029  0.7146  0.2115  0.6517
 9527TIP3   OH249995   1.646   6.013   2.266  0.0588  0.0701 -0.1799
 9527TIP3    H149996   1.703   5.937   2.258  0.8410  0.6499 -0.2150
 9527TIP3    H249997   1.577   5.998   2.201  0.1197 -0.6733 -0.0810
 9528TIP3   OH249998   1.868   6.486   0.530  0.2905 -0.4508 -0.1632
 9528TIP3    H149999   1.781   6.519   0.510 -0.6095 -1.7244  1.4170
 9528TIP3    H250000   1.862   6.392   0.515  0.8707 -0.7976  1.5834
 9529TIP3   OH250001   1.895   3.592  12.126 -0.1103  0.2104 -0.4763
 9529TIP3    H150002   1.827   3.545  12.077  0.4628  0.8545 -1.9590
 9529TIP3    H250003   1.879   3.684  12.107  0.5564  0.4363 -0.0027
 9530TIP3   OH250004   1.512   5.183   4.672 -0.1922 -0.5515  0.4391
 9530TIP3    H150005   1.521   5.170   4.578 -1.1309  2.2800 -0.1439
 9530TIP3    H250006   1.419   5.201   4.685  0.1325  0.3555  1.7146
 9531TIP3   OH250007   2.118   2.016   3.005 -0.3373  0.3369  0.1754
 9531TIP3    H150008   2.102   2.007   3.099 -0.8936 -0.5532  0.0102
 9531TIP3    H250009   2.034   1.993   2.964  0.3882 -1.0346 -0.6008
 9532TIP3   OH250010   6.427   2.660  16.485 -0.2599  0.1308  0.4667
 9532TIP3    H150011   6.503   2.649  16.542 -0.1802  0.5929  0.4531
 9532TIP3    H250012   6.364   2.595  16.516 -0.3919  0.6717  1.3716
 9533TIP3   OH250013   2.807   1.439  12.821 -0.2478 -0.0944  0.6491
 9533TIP3    H150014   2.898   1.466  12.808 -0.3375 -1.0981 -2.9777
 9533TIP3    H250015   2.755   1.514  12.792 -0.7322  0.9997  3.9490
 9534TIP3   OH250016   1.848   0.078  15.473  0.1999  0.5364  0.1987
 9534TIP3    H150017   1.779   0.069  15.539 -0.5166 -0.2118 -0.6489
 9534TIP3    H250018   1.928   0.090  15.525 -0.0999 -1.6090  1.2805
 9535TIP3   OH250019   4.818   4.138   5.852 -0.1864  0.5766 -0.0850
 9535TIP3    H150020   4.756   4.107   5.918 -0.6081 -0.4071 -0.9105
 9535TIP3    H250021   4.901   4.147   5.898 -0.2418 -1.0428  0.3771
 9536TIP3   OH250022   4.237   2.683   3.081  0.2229  0.6190  0.0592
 9536TIP3    H150023   4.159   2.699   3.134 -1.3132  1.9389 -2.3996
 9536TIP3    H250024   4.223   2.596   3.043 -0.2553  0.9845 -0.6293
 9537TIP3   OH250025   3.933   3.261  13.420 -0.9625  0.4629 -0.0849
 9537TIP3    H150026   3.905   3.170  13.419 -0.3591  0.2721 -0.1127
 9537TIP3    H250027   3.857   3.309  13.454 -0.3820 -0.3699  2.6478
 9538TIP3   OH250028   5.287   6.731  15.456  0.3069 -0.0520 -0.1377
 9538TIP3    H150029   5.193   6.744  15.463 -0.1614 -2.7016 -0.5661
 9538TIP3    H250030   5.321   6.752  15.543 -0.6990  0.6291  0.1101
 9539TIP3   OH250031   5.060   2.094   1.075 -0.7915 -0.2398 -0.4629
 9539TIP3    H150032   5.117   2.049   1.137 -3.0775 -1.2743  1.0461
 9539TIP3    H250033   5.028   2.171   1.123 -0.7551  0.2490 -1.2161
 9540TIP3   OH250034   5.513   0.780  17.106 -0.5490 -0.3447 -0.3539
 9540TIP3    H150035   5.539   0.725  17.032  1.6481 -0.2462  0.2717
 9540TIP3    H250036   5.465   0.722  17.164  0.9370 -1.4116 -0.1440
 9541TIP3   OH250037   4.391   4.637   2.755  0.1346 -0.4090 -0.0201
 9541TIP3    H150038   4.442   4.683   2.688  0.9965  0.9328  1.4944
 9541TIP3    H250039   4.309   4.616   2.712  0.1868  1.5015 -1.1724
 9542TIP3   OH250040   0.425   2.346  13.831 -0.0821  0.4694  0.2166
 9542TIP3    H150041   0.407   2.358  13.737 -0.5990 -0.3331  0.2021
 9542TIP3    H250042   0.338   2.334  13.870  0.2217 -0.7718  0.5564
 9543TIP3   OH250043   5.918   4.729  14.428  0.0581  0.0154  0.2362
 9543TIP3    H150044   5.980   4.696  14.363  0.1722  2.1809 -0.8504
 9543TIP3    H250045   5.969   4.736  14.509  0.5134 -0.6554  0.0129
 9544TIP3   OH250046   2.694   3.444   0.935  0.2610  0.3052  0.1508
 9544TIP3    H150047   2.681   3.480   0.847  0.5529  1.3345  0.5182
 9544TIP3    H250048   2.695   3.520   0.992  0.8737 -0.2986  0.9586
 9545TIP3   OH250049   2.621   5.048  11.649  0.2240  0.0794 -0.1997
 9545TIP3    H150050   2.677   4.970  11.651  0.9010  0.5454 -0.6038
 9545TIP3    H250051   2.629   5.080  11.559 -2.1290 -0.8586 -0.8096
 9546TIP3   OH250052   1.700   4.957  12.034 -0.0531 -0.3577  0.3156
 9546TIP3    H150053   1.718   4.866  12.056  0.2646 -0.5105 -0.5351
 9546TIP3    H250054   1.685   4.957  11.939 -0.7922  0.3614  0.4210
 9547TIP3   OH250055   1.591   2.348   3.686 -0.2976  0.0074 -0.5899
 9547TIP3    H150056   1.646   2.271   3.675 -1.4503 -0.6520 -2.1234
 9547TIP3    H250057   1.554   2.364   3.599 -2.0134  0.7978  0.2315
 9548TIP3   OH250058   6.248   0.844   6.131 -0.1811 -0.3402  0.1138
 9548TIP3    H150059   6.309   0.913   6.105 -0.3603 -0.2629 -0.0972
 9548TIP3    H250060   6.302   0.764   6.129 -0.2607 -0.3842 -0.7989
 9549TIP3   OH250061   5.839   3.791  17.158  0.3850 -0.4096  0.4723
 9549TIP3    H150062   5.933   3.794  17.179  1.0098 -1.4055 -1.8473
 9549TIP3    H250063   5.819   3.879  17.125  0.5365 -0.2412  0.8277
 9550TIP3   OH250064   5.205   5.856  13.465 -0.0513 -0.1588 -0.0250
 9550TIP3    H150065   5.287   5.815  13.492  0.1709  0.7208  0.6829
 9550TIP3    H250066   5.136   5.797  13.496  0.2670 -0.1330  0.7533
 9551TIP3   OH250067   3.914   2.851  11.299  0.4459 -0.1166 -0.4689
 9551TIP3    H150068   3.928   2.760  11.328  0.9940 -0.3751 -1.5009
 9551TIP3    H250069   3.930   2.848  11.204 -1.6281  0.6183 -0.8936
 9552TIP3   OH250070   3.458   2.469  16.245 -0.3084 -0.0715 -0.6065
 9552TIP3    H150071   3.362   2.459  16.243 -0.3895  0.5364 -0.0175
 9552TIP3    H250072   3.483   2.439  16.333  0.1092 -0.7185 -0.9359
 9553TIP3   OH250073   6.305   1.386  15.152 -0.1161  0.5204 -0.2933
 9553TIP3    H150074   6.300   1.373  15.057  0.4104 -0.2033 -0.2311
 9553TIP3    H250075   6.235   1.331  15.188 -1.1185  1.7520 -0.3320
 9554TIP3   OH250076   5.687   1.435  15.871 -0.3448 -0.8355  0.2784
 9554TIP3    H150077   5.667   1.494  15.798  2.8707 -0.6874 -0.6401
 9554TIP3    H250078   5.694   1.493  15.947  0.0339 -0.4221 -0.0659
 9555TIP3   OH250079   4.765   1.597   2.011  0.5074  0.1260 -0.2264
 9555TIP3    H150080   4.677   1.575   2.042  0.5238  0.2078 -0.1228
 9555TIP3    H250081   4.758   1.687   1.979  0.4301 -0.0403 -0.6940
 9556TIP3   OH250082   2.867   5.302   0.432  0.6748  0.1836 -0.2830
 9556TIP3    H150083   2.925   5.366   0.389 -0.3321  1.3735  0.0883
 9556TIP3    H250084   2.796   5.354   0.468 -1.1886 -1.3235 -1.5649
 9557TIP3   OH250085   2.587   0.043   2.852  0.1936 -0.4575  0.0647
 9557TIP3    H150086   2.607   0.005   2.767  1.0695  1.7623 -0.7911
 9557TIP3    H250087   2.652   0.112   2.864  0.4821 -1.0788  2.8317
 9558TIP3   OH250088   6.136   3.953   2.975 -0.4789  0.0812  0.9018
 9558TIP3    H150089   6.184   3.882   3.019 -1.2780  0.5623  2.6397
 9558TIP3    H250090   6.164   4.032   3.020 -0.4700  0.7501 -0.2585
 9559TIP3   OH250091   4.987   5.565  13.265 -0.5096 -0.2476  0.5410
 9559TIP3    H150092   4.907   5.606  13.232 -0.1175 -1.1475 -1.6777
 9559TIP3    H250093   5.052   5.634  13.264 -0.6823 -0.0891  0.0776
 9560TIP3   OH250094   3.354   5.692   0.125 -0.9637  0.7087  0.5248
 9560TIP3    H150095   3.397   5.621   0.172  1.6628  0.7639 -1.5682
 9560TIP3    H250096   3.340   5.658   0.037 -1.2533  2.1949 -0.0389
 9561TIP3   OH250097   1.750   6.003   3.809  0.1673  0.1883  0.2073
 9561TIP3    H150098   1.659   6.009   3.779 -0.6153 -0.1898  2.2932
 9561TIP3    H250099   1.754   5.919   3.856  2.2590 -0.9235 -1.7592
 9562TIP3   OH250100   3.440   0.411  10.525  0.1958  0.1218  0.1380
 9562TIP3    H150101   3.524   0.422  10.480 -0.2419 -1.0726 -1.0413
 9562TIP3    H250102   3.444   0.323  10.562 -1.3593 -0.8745 -1.8596
 9563TIP3   OH250103   4.376   5.808   1.609 -0.0351  0.0699  0.5181
 9563TIP3    H150104   4.452   5.865   1.621 -1.0777  1.6452 -0.0951
 9563TIP3    H250105   4.380   5.783   1.517 -0.7744  0.9499  0.2367
 9564TIP3   OH250106   5.876   1.299   6.037  0.4198 -0.0509  0.5139
 9564TIP3    H150107   5.911   1.314   6.125 -1.0655  1.3143  0.9221
 9564TIP3    H250108   5.908   1.372   5.986  1.9714 -1.2799 -0.3492
 9565TIP3   OH250109   1.312   3.389   4.516 -0.1122 -0.2758 -0.2087
 9565TIP3    H150110   1.328   3.318   4.578 -1.4171  0.4337  0.9824
 9565TIP3    H250111   1.369   3.461   4.546 -1.8342  0.5865  1.1278
 9566TIP3   OH250112   5.702   0.983  16.901 -0.2542 -0.2522  0.1339
 9566TIP3    H150113   5.617   1.006  16.937 -0.5939  0.7875 -1.2676
 9566TIP3    H250114   5.684   0.914  16.837 -0.1033  0.2321 -0.4386
 9567TIP3   OH250115   5.683   0.348  11.084  0.3665 -0.3461  0.3020
 9567TIP3    H150116   5.681   0.256  11.056 -1.1984 -1.0315  2.3656
 9567TIP3    H250117   5.716   0.345  11.174 -1.6942  0.7908  1.1805
 9568TIP3   OH250118   5.312   5.325   1.721  0.1270 -0.4820 -0.1807
 9568TIP3    H150119   5.396   5.291   1.689 -0.1799 -0.4628 -1.0354
 9568TIP3    H250120   5.296   5.403   1.668  0.0048  0.0403  0.6060
 9569TIP3   OH250121   5.175   6.144  13.432  0.0475 -0.0236 -0.1374
 9569TIP3    H150122   5.238   6.072  13.444 -1.0494 -1.1691 -0.9360
 9569TIP3    H250123   5.111   6.132  13.502 -1.3497 -1.2122 -1.5429
 9570TIP3   OH250124   6.348   5.335  15.230  0.5537 -0.3415  0.1579
 9570TIP3    H150125   6.276   5.398  15.238  1.1886  0.2979  0.9831
 9570TIP3    H250126   6.426   5.389  15.219  1.0155 -1.0093  0.0957
 9571TIP3   OH250127   5.040   1.269  14.124 -0.3591  0.6450 -0.1377
 9571TIP3    H150128   5.115   1.234  14.076  0.7175  1.6794  0.7178
 9571TIP3    H250129   4.989   1.317  14.059  1.2015  2.2346 -0.2702
 9572TIP3   OH250130   3.202   2.842  13.377 -0.0797  0.4844 -0.2889
 9572TIP3    H150131   3.248   2.839  13.293 -0.9851  0.4212 -0.7927
 9572TIP3    H250132   3.116   2.806  13.358 -0.5721  1.2298  0.4908
 9573TIP3   OH250133   2.129   3.242  11.806 -0.3994 -0.2443 -0.7836
 9573TIP3    H150134   2.143   3.303  11.734 -2.6123 -0.4786 -1.4841
 9573TIP3    H250135   2.124   3.297  11.884  2.5987 -0.0329 -0.5974
 9574TIP3   OH250136   5.389   6.195  16.390  0.0235  0.1937 -0.0227
 9574TIP3    H150137   5.461   6.256  16.370  0.4048 -1.0856 -3.1595
 9574TIP3    H250138   5.310   6.244  16.368  0.3423 -0.3732 -2.8153
 9575TIP3   OH250139   5.693   4.136  16.041 -0.2191 -0.2210  0.2014
 9575TIP3    H150140   5.712   4.050  16.004 -0.0063  0.6826 -1.9885
 9575TIP3    H250141   5.777   4.165  16.079 -0.3335 -1.0070  1.0889
 9576TIP3   OH250142   6.080   3.283   0.294  0.0405 -0.5020  0.8429
 9576TIP3    H150143   5.990   3.311   0.274 -0.3168 -2.0337  0.1352
 9576TIP3    H250144   6.070   3.197   0.334  1.1926 -0.6493  0.8401
 9577TIP3   OH250145   1.168   6.358   4.480  0.2526  0.2271 -0.0138
 9577TIP3    H150146   1.206   6.333   4.564  1.2401 -0.5356 -0.6715
 9577TIP3    H250147   1.158   6.275   4.432  0.2153  0.7085 -0.8601
 9578TIP3   OH250148   1.776   0.487  13.980  0.4871 -0.4666 -0.3218
 9578TIP3    H150149   1.748   0.559  13.924 -0.9602 -0.9115 -0.2125
 9578TIP3    H250150   1.713   0.486  14.052 -0.0665 -2.3796 -0.7818
 9579TIP3   OH250151   0.494   3.603  16.038 -0.0564 -0.9362 -0.2790
 9579TIP3    H150152   0.499   3.693  16.071 -0.4325 -1.5425  1.5015
 9579TIP3    H250153   0.580   3.586  16.000  0.6670 -0.4602  1.0997
 9580TIP3   OH250154   1.288   5.116  12.132 -0.3191  0.0172 -0.1392
 9580TIP3    H150155   1.278   5.040  12.188  1.7694 -0.3619 -0.2109
 9580TIP3    H250156   1.367   5.099  12.081 -0.9162  1.3440 -1.6075
 9581TIP3   OH250157   6.066   2.123  16.911 -0.7359  0.1053  0.1937
 9581TIP3    H150158   6.059   2.034  16.876 -2.0432 -0.1371  1.0289
 9581TIP3    H250159   6.158   2.132  16.934 -0.5230 -0.9168 -0.1960
 9582TIP3   OH250160   4.509   5.687   5.368 -0.4438  0.0918 -0.3294
 9582TIP3    H150161   4.463   5.674   5.451 -0.7350  0.5468 -0.4121
 9582TIP3    H250162   4.480   5.615   5.313  1.9988 -1.9566  0.8768
 9583TIP3   OH250163   4.430   1.523  12.988 -0.0309 -0.1787  0.4957
 9583TIP3    H150164   4.384   1.448  12.949  2.4750 -1.6461  0.1551
 9583TIP3    H250165   4.516   1.488  13.012  2.0065  3.0066 -1.4588
 9584TIP3   OH250166   4.941   0.836   4.598  0.0652 -0.1330 -0.4672
 9584TIP3    H150167   5.009   0.787   4.551  0.7203  0.9546 -0.6656
 9584TIP3    H250168   4.989   0.888   4.663 -0.5154  1.0417 -0.9530
 9585TIP3   OH250169   4.175   0.452  11.556  0.6398 -0.3582 -0.1463
 9585TIP3    H150170   4.110   0.387  11.584 -1.6431  1.2950 -1.2324
 9585TIP3    H250171   4.188   0.508  11.633 -2.1967  1.5081 -0.8749
 9586TIP3   OH250172   4.525   4.483   4.098 -0.1203 -0.2280 -0.0294
 9586TIP3    H150173   4.522   4.397   4.056 -1.3421  0.3519 -1.1993
 9586TIP3    H250174   4.612   4.487   4.138 -0.5191 -2.5190  1.2245
 9587TIP3   OH250175   0.875   3.140  16.937  0.2029 -0.0375 -0.2087
 9587TIP3    H150176   0.787   3.143  16.899 -0.8103  1.6495  2.0667
 9587TIP3    H250177   0.926   3.202  16.884  0.2110 -1.3176 -1.7932
 9588TIP3   OH250178   2.854   6.032  16.904  0.4759  0.1026 -0.4344
 9588TIP3    H150179   2.808   6.113  16.884  1.3114  0.4277 -1.1206
 9588TIP3    H250180   2.873   5.994  16.819  1.2419 -0.1508 -0.1557
 9589TIP3   OH250181   6.329   2.841  11.361 -0.1950  0.0345 -0.3548
 9589TIP3    H150182   6.315   2.934  11.378 -2.3122 -0.7861  3.8199
 9589TIP3    H250183   6.252   2.813  11.313 -1.5058 -0.1168  1.6982
 9590TIP3   OH250184   3.274   2.918   5.804 -0.4598  0.2590 -0.1385
 9590TIP3    H150185   3.227   2.835   5.808 -0.2390  0.1692  0.6335
 9590TIP3    H250186   3.299   2.936   5.894  0.1197  0.8088 -0.4040
 9591TIP3   OH250187   6.032   4.806  13.296  0.1357  0.3223  0.1562
 9591TIP3    H150188   6.018   4.788  13.389  0.2240 -0.4031  0.0384
 9591TIP3    H250189   6.110   4.754  13.274  0.2812  0.7104 -0.2586
 9592TIP3   OH250190   6.453   2.701  11.683  0.8505 -0.2275 -0.2607
 9592TIP3    H150191   6.501   2.772  11.641 -0.7205 -0.4535 -2.6124
 9592TIP3    H250192   6.514   2.667  11.748  2.4554  1.8379 -0.5484
 9593TIP3   OH250193   6.616   2.470   2.597 -0.1311  0.1795 -0.1761
 9593TIP3    H150194   6.570   2.551   2.577 -0.5065 -0.3036 -1.3118
 9593TIP3    H250195   6.558   2.423   2.657 -0.1170  0.5301  0.1190
 9594TIP3   OH250196   1.952   4.673   3.653 -0.1846 -0.2919  0.1956
 9594TIP3    H150197   1.875   4.726   3.634  0.0659  0.4271  1.1214
 9594TIP3    H250198   1.953   4.664   3.748  0.8811 -0.2768  0.1991
 9595TIP3   OH250199   4.306   0.319  13.989  0.2223  0.5499 -0.1061
 9595TIP3    H150200   4.389   0.298  13.947  1.6349  1.3907  2.0927
 9595TIP3    H250201   4.322   0.400  14.037 -2.5223  1.9446 -1.2833
 9596TIP3   OH250202   5.109   0.333   5.538 -0.6453 -0.9819 -0.1429
 9596TIP3    H150203   5.051   0.286   5.598 -2.1618 -0.1988 -0.9322
 9596TIP3    H250204   5.056   0.348   5.460  0.2850  0.6410 -0.5183
 9597TIP3   OH250205   5.248   2.341  15.670 -0.2251  0.0626 -0.6593
 9597TIP3    H150206   5.338   2.365  15.649  0.1507  0.6852  1.4362
 9597TIP3    H250207   5.257   2.263  15.725 -1.0287 -0.3475 -1.0916
 9598TIP3   OH250208   2.042   4.956   6.013  0.4581 -0.2946  0.0911
 9598TIP3    H150209   2.003   5.041   5.991  1.1589 -0.5284 -2.3909
 9598TIP3    H250210   2.076   4.967   6.102 -1.0698  1.3969  0.5375
 9599TIP3   OH250211   3.270   4.463   1.439 -0.1663  0.1293 -0.3190
 9599TIP3    H150212   3.314   4.389   1.398  3.1287  1.9844 -0.4530
 9599TIP3    H250213   3.309   4.470   1.526 -0.3992  1.6847 -0.3039
 9600TIP3   OH250214   6.550   2.125   2.267 -0.3648  0.0430  0.6810
 9600TIP3    H150215   6.556   2.212   2.306  1.6652 -0.6251  2.0393
 9600TIP3    H250216   6.625   2.120   2.208 -1.1821 -0.3722 -0.3486
 9601TIP3   OH250217   1.455   3.324   0.774  0.0110 -0.5041  0.2828
 9601TIP3    H150218   1.495   3.368   0.848 -0.5569  1.7781 -0.6727
 9601TIP3    H250219   1.497   3.363   0.697  0.1012 -2.3058 -0.6309
 9602TIP3   OH250220   1.754   4.081   3.131 -0.1342 -0.0820  0.5956
 9602TIP3    H150221   1.678   4.098   3.075 -2.8429  1.1020  4.3024
 9602TIP3    H250222   1.808   4.160   3.123 -1.8826  1.2792  1.6006
 9603TIP3   OH250223   5.192   2.433  15.136 -0.1914 -0.2835  0.2294
 9603TIP3    H150224   5.182   2.410  15.228 -1.1567  0.7279  0.4004
 9603TIP3    H250225   5.197   2.529  15.135 -1.8207 -0.1651 -0.8852
 9604TIP3   OH250226   1.412   5.611  13.987  0.2575  0.5148 -0.0829
 9604TIP3    H150227   1.469   5.604  13.910  0.2836  0.9249 -0.1028
 9604TIP3    H250228   1.438   5.693  14.029 -0.9026  1.1370 -0.5516
 9605TIP3   OH250229   3.301   0.408  11.628  0.0754  0.1615  0.0308
 9605TIP3    H150230   3.366   0.407  11.559  0.0587 -0.1130  0.0186
 9605TIP3    H250231   3.220   0.435  11.585  0.5269  2.2598  0.3617
 9606TIP3   OH250232   4.388   4.388  14.471 -0.1243  0.5144 -0.2062
 9606TIP3    H150233   4.296   4.414  14.459 -1.2543 -1.5585  2.7889
 9606TIP3    H250234   4.403   4.321  14.404 -0.2029  1.9813 -1.7592
 9607TIP3   OH250235   2.608   3.168   5.929  0.0735  0.3153  0.4236
 9607TIP3    H150236   2.671   3.233   5.898  0.3353  0.1951  0.7001
 9607TIP3    H250237   2.585   3.117   5.851 -0.0587  0.6730  0.2242
 9608TIP3   OH250238   6.045   1.935  12.590  0.1771 -0.1231  0.3575
 9608TIP3    H150239   6.104   1.870  12.554 -2.0202 -1.6880 -0.6549
 9608TIP3    H250240   6.045   2.006  12.526  0.2457 -0.5571 -0.1303
 9609TIP3   OH250241   3.963   1.468  13.145  0.1211  0.3479 -0.1072
 9609TIP3    H150242   3.979   1.530  13.074 -0.5366  1.7335  0.8986
 9609TIP3    H250243   4.031   1.402  13.136  0.4971  0.9076 -1.5595
 9610TIP3   OH250244   5.270   0.188   3.396  0.3223 -0.3041  0.6643
 9610TIP3    H150245   5.334   0.119   3.384  0.0461 -0.8126  1.9731
 9610TIP3    H250246   5.186   0.148   3.372  0.4555  0.3702 -1.0859
 9611TIP3   OH250247   4.131   1.843  16.937  0.0364  0.5588 -0.0809
 9611TIP3    H150248   4.085   1.834  17.020 -0.3230 -0.0939 -0.3392
 9611TIP3    H250249   4.224   1.840  16.960 -0.0614  0.2231  0.2858
 9612TIP3   OH250250   3.550   1.506   5.255  0.3141  0.0396 -0.4876
 9612TIP3    H150251   3.468   1.504   5.207  0.7483 -2.4032 -1.2745
 9612TIP3    H250252   3.547   1.428   5.311  1.3510  0.8867  0.8032
 9613TIP3   OH250253   3.278   2.955   3.633  0.3983  0.0506  0.1469
 9613TIP3    H150254   3.341   3.019   3.665  1.0365 -0.6933  0.4296
 9613TIP3    H250255   3.331   2.895   3.580 -0.2916  0.1169 -0.6330
 9614TIP3   OH250256   0.875   3.848  15.503  0.2945  0.4750 -0.0368
 9614TIP3    H150257   0.901   3.766  15.461  0.5604  0.5975 -0.1170
 9614TIP3    H250258   0.810   3.823  15.569 -0.2980  0.3138 -0.6799
 9615TIP3   OH250259   3.166   3.940  12.171 -0.2654  0.3450  0.3767
 9615TIP3    H150260   3.242   3.898  12.211 -1.3604 -1.5249  0.6354
 9615TIP3    H250261   3.126   3.871  12.117 -2.1581  1.0169  0.8241
 9616TIP3   OH250262   3.292   3.978   4.002  0.4085  0.0118  0.2485
 9616TIP3    H150263   3.290   4.073   3.993 -0.1980 -0.0948 -1.0594
 9616TIP3    H250264   3.368   3.950   3.951  0.8376 -0.1795  0.9831
 9617TIP3   OH250265   2.084   3.931  14.160 -0.5368  0.2270 -0.3940
 9617TIP3    H150266   2.089   4.022  14.132 -3.2525  0.1764 -1.3498
 9617TIP3    H250267   1.998   3.901  14.131  0.2260 -2.6496 -0.0558
 9618TIP3   OH250268   1.681   6.307   1.819  0.0139 -0.2083 -0.1739
 9618TIP3    H150269   1.665   6.213   1.809  0.9595 -0.3554 -0.4444
 9618TIP3    H250270   1.628   6.348   1.751 -1.4407 -0.4245  0.7895
 9619TIP3   OH250271   0.289   5.132  11.474 -0.6446 -0.1544  0.5357
 9619TIP3    H150272   0.228   5.113  11.402 -0.5823  0.9305  0.1826
 9619TIP3    H250273   0.337   5.209  11.444  1.8908 -1.7578  0.1809
 9620TIP3   OH250274   1.650   5.442  16.028 -0.0885 -0.7234 -0.1343
 9620TIP3    H150275   1.621   5.439  16.119 -0.5697 -0.9595 -0.2922
 9620TIP3    H250276   1.731   5.391  16.027  2.1250  2.4652  0.9350
 9621TIP3   OH250277   4.993   2.997   1.061 -0.0117  0.3802 -0.5050
 9621TIP3    H150278   5.005   2.902   1.056 -0.1179  0.3936 -0.9675
 9621TIP3    H250279   4.905   3.008   1.097  0.2379  0.3024  0.1435
 9622TIP3   OH250280   1.940   2.879   1.376  0.6153 -0.6928  0.4008
 9622TIP3    H150281   1.993   2.854   1.300 -0.0457  0.9831 -0.6840
 9622TIP3    H250282   1.875   2.941   1.340 -0.0351 -0.2417  2.2508
 9623TIP3   OH250283   3.630   0.661  13.737  0.2788  0.2195  0.4312
 9623TIP3    H150284   3.599   0.599  13.671 -1.5691  0.6432  0.8610
 9623TIP3    H250285   3.630   0.611  13.819 -2.3005  0.9768  0.9967
 9624TIP3   OH250286   0.665   3.437   3.878 -0.1121 -0.5018 -0.0457
 9624TIP3    H150287   0.687   3.355   3.834  0.6993 -0.8309  0.9250
 9624TIP3    H250288   0.657   3.501   3.807  1.9143 -0.8487 -0.6451
 9625TIP3   OH250289   2.881   1.071   0.699  0.2339  0.1102 -0.7178
 9625TIP3    H150290   2.873   1.161   0.668 -0.2780 -0.2383 -1.6438
 9625TIP3    H250291   2.877   1.018   0.619 -0.8764 -0.8110 -0.0811
 9626TIP3   OH250292   3.676   3.877   5.836  0.1361  0.0816  0.0192
 9626TIP3    H150293   3.608   3.887   5.902 -0.2747  2.1483 -0.6305
 9626TIP3    H250294   3.749   3.930   5.869  0.4801 -0.0635 -0.4968
 9627TIP3   OH250295   0.753   2.026  13.314  0.7520 -0.6213  0.5202
 9627TIP3    H150296   0.702   1.951  13.281 -0.9110  1.6997 -2.7994
 9627TIP3    H250297   0.818   2.042  13.246 -0.8387  2.5885 -0.4480
 9628TIP3   OH250298   0.631   4.320  14.859 -1.0197 -0.0110  0.2211
 9628TIP3    H150299   0.554   4.264  14.870 -0.1697 -0.8899  2.1534
 9628TIP3    H250300   0.695   4.264  14.813 -0.2990 -0.5590  1.8298
 9629TIP3   OH250301   2.891   4.882   0.648 -0.0160  0.4932  0.6173
 9629TIP3    H150302   2.845   4.919   0.573  0.7533  0.7554  0.2574
 9629TIP3    H250303   2.881   4.787   0.639 -0.6484  0.5563  0.6564
 9630TIP3   OH250304   4.123   3.076   2.437  0.0352 -0.5002  0.3418
 9630TIP3    H150305   4.147   2.989   2.468  2.4774  0.2355  0.6854
 9630TIP3    H250306   4.075   3.060   2.355  0.3085 -2.1464  0.4697
 9631TIP3   OH250307   1.180   1.728   4.949  0.4942  0.4269 -0.1045
 9631TIP3    H150308   1.239   1.662   4.986  0.5178  2.2583  3.6220
 9631TIP3    H250309   1.236   1.803   4.931 -0.1574  0.8972 -0.2173
 9632TIP3   OH250310   2.103   4.687   5.966 -0.4621  0.2360  0.8234
 9632TIP3    H150311   2.098   4.659   6.057 -1.4913 -0.2284  0.6459
 9632TIP3    H250312   2.044   4.762   5.960 -2.9059 -1.5726 -0.0431
 9633TIP3   OH250313   3.146   3.196   6.316 -0.9953 -0.2764  0.2310
 9633TIP3    H150314   3.215   3.133   6.336 -1.8645 -0.8686  1.4674
 9633TIP3    H250315   3.188   3.259   6.257  0.0109 -1.7673 -0.7148
 9634TIP3   OH250316   1.563   5.495   2.532 -0.2426  0.3549 -0.3141
 9634TIP3    H150317   1.500   5.530   2.595  0.9807  0.2083  1.0564
 9634TIP3    H250318   1.557   5.554   2.456 -2.1966  0.1622 -0.3527
 9635TIP3   OH250319   4.944   6.467   4.465 -0.0865  0.3215 -1.0175
 9635TIP3    H150320   4.962   6.543   4.521 -2.2847  0.3647 -0.2668
 9635TIP3    H250321   4.985   6.394   4.510 -1.5873  0.4000  0.5950
 9636TIP3   OH250322   5.234   0.701  13.412 -0.6371 -0.4617 -0.0543
 9636TIP3    H150323   5.156   0.754  13.397  0.4463  0.9107 -0.9895
 9636TIP3    H250324   5.286   0.752  13.474  0.4118 -0.4040 -0.9504
 9637TIP3   OH250325   3.926   4.234   3.871  0.2336 -0.3984  0.1249
 9637TIP3    H150326   3.846   4.286   3.884 -0.7164 -1.7797 -0.0372
 9637TIP3    H250327   3.984   4.293   3.824 -0.5284  0.7806  0.6031
 9638TIP3   OH250328   0.962   6.584   1.063  0.0218  0.4124 -0.1088
 9638TIP3    H150329   1.024   6.557   1.131 -0.2577  0.2141  0.0703
 9638TIP3    H250330   1.018   6.614   0.991  0.3154  1.0219  0.3625
 9639TIP3   OH250331   0.114   3.578   0.666  0.5713 -0.1082  0.1926
 9639TIP3    H150332   0.020   3.575   0.686  0.6842 -0.0154  0.7598
 9639TIP3    H250333   0.141   3.667   0.688  0.2236  0.7927 -2.7185
 9640TIP3   OH250334   1.880   2.234  15.894 -0.2653  0.4636 -0.2307
 9640TIP3    H150335   1.807   2.186  15.933 -0.7472 -0.7320 -2.4273
 9640TIP3    H250336   1.922   2.170  15.835  0.8893  1.9024 -1.0371
 9641TIP3   OH250337   5.469   5.916   2.248  0.1984  0.2190 -0.3776
 9641TIP3    H150338   5.535   5.968   2.204  0.5953 -0.2429 -0.3297
 9641TIP3    H250339   5.514   5.835   2.274  0.2645  0.9009  1.7988
 9642TIP3   OH250340   5.839   3.123   4.224  0.0064  0.2429 -0.0857
 9642TIP3    H150341   5.812   3.204   4.181 -1.0666 -0.3694 -0.6061
 9642TIP3    H250342   5.913   3.091   4.172 -1.3161 -0.5262 -1.5645
 9643TIP3   OH250343   3.385   1.189  10.471 -0.3962 -0.7675  0.4580
 9643TIP3    H150344   3.441   1.213  10.397 -0.6527 -0.3679  0.3844
 9643TIP3    H250345   3.345   1.106  10.445 -1.4158 -0.0426 -0.3987
 9644TIP3   OH250346   6.758   3.515  16.226 -0.0984 -0.0170 -0.0100
 9644TIP3    H150347   6.717   3.598  16.202  0.0367  0.0150 -0.1337
 9644TIP3    H250348   6.691   3.469  16.277 -1.5059 -1.3298 -2.8255
 9645TIP3   OH250349   0.925   6.725  14.735  0.0601  0.0367 -0.0466
 9645TIP3    H150350   0.919   6.660  14.665  0.7235  1.4823 -1.5241
 9645TIP3    H250351   0.875   6.800  14.702  2.2371  1.6004 -0.0469
 9646TIP3   OH250352   0.244   0.121   2.455 -0.0088  0.1646 -0.2406
 9646TIP3    H150353   0.328   0.097   2.495 -0.7144 -0.3085  1.0531
 9646TIP3    H250354   0.178   0.089   2.518 -1.1114  3.2983  0.3820
 9647TIP3   OH250355   6.251   3.452  12.725  0.5619  0.5487 -0.1545
 9647TIP3    H150356   6.216   3.465  12.813 -1.7957 -0.1735 -0.8938
 9647TIP3    H250357   6.307   3.528  12.710 -2.1379  2.8528  0.5353
 9648TIP3   OH250358   2.979   3.387   0.903 -0.0087  0.0713  0.0408
 9648TIP3    H150359   2.979   3.292   0.905 -0.0430  0.0809  0.9020
 9648TIP3    H250360   2.889   3.413   0.920  0.3393  0.2666  1.7017
 9649TIP3   OH250361   2.917   3.062   6.205  0.0570  0.4070  0.3101
 9649TIP3    H150362   2.915   3.083   6.112 -2.2310  0.8616  0.4004
 9649TIP3    H250363   2.975   3.128   6.243 -0.0473  1.0643 -0.6284
 9650TIP3   OH250364   0.220   4.864  15.688 -0.0185 -0.2227  0.7459
 9650TIP3    H150365   0.299   4.809  15.691  0.3036  0.2076  0.1981
 9650TIP3    H250366   0.251   4.951  15.664 -0.8166 -0.3613 -0.9481
 9651TIP3   OH250367   1.358   0.637  14.800  0.2965 -0.2977 -0.1761
 9651TIP3    H150368   1.264   0.630  14.818  0.3422 -1.2947 -0.2796
 9651TIP3    H250369   1.380   0.728  14.823 -0.6110 -0.1614  0.1988
 9652TIP3   OH250370   6.603   0.504  10.776  0.3129  0.4788  0.1061
 9652TIP3    H150371   6.635   0.442  10.842  0.8275  0.2699 -0.3251
 9652TIP3    H250372   6.554   0.450  10.714 -1.1381  0.8399  0.9085
 9653TIP3   OH250373   2.156   2.789   0.652  0.3110 -0.0474  0.2281
 9653TIP3    H150374   2.169   2.884   0.647  0.2413 -0.0797 -1.0303
 9653TIP3    H250375   2.092   2.777   0.722  0.4689  0.8166  0.5330
 9654TIP3   OH250376   2.417   4.262   5.229  0.0634 -0.5899  0.1810
 9654TIP3    H150377   2.481   4.210   5.279 -0.7874 -0.8597  1.0183
 9654TIP3    H250378   2.390   4.331   5.289  2.0751  1.6248 -1.3241
 9655TIP3   OH250379   1.385   1.583   3.267 -0.1688 -0.4457 -0.4594
 9655TIP3    H150380   1.465   1.534   3.248  0.2083  0.3352 -0.9476
 9655TIP3    H250381   1.345   1.536   3.340  1.3999 -0.1182  0.6648
 9656TIP3   OH250382   4.122   2.449   2.606  0.1734  0.8262  0.0702
 9656TIP3    H150383   4.076   2.509   2.665  0.6225  0.6649  0.5913
 9656TIP3    H250384   4.188   2.407   2.661 -1.5943 -1.8705  0.3380
 9657TIP3   OH250385   6.642   2.426   4.393  0.1344  0.0446 -0.4844
 9657TIP3    H150386   6.677   2.354   4.446 -0.7240 -0.1697 -0.1864
 9657TIP3    H250387   6.581   2.471   4.452 -0.5713  0.0135 -1.1782
 9658TIP3   OH250388   5.985   6.516   2.624  0.5927 -0.8158  0.4101
 9658TIP3    H150389   5.939   6.432   2.633  0.0219 -0.5957 -0.3535
 9658TIP3    H250390   6.033   6.508   2.542  1.4320 -0.8032  0.8905
 9659TIP3   OH250391   3.432   4.245  13.857 -0.0193  0.4003  0.1764
 9659TIP3    H150392   3.516   4.286  13.877 -0.0224  1.3861 -1.5938
 9659TIP3    H250393   3.383   4.250  13.939  2.0244 -1.3030  1.6226
 9660TIP3   OH250394   3.317   6.494   4.371  0.2241 -0.5124  0.1175
 9660TIP3    H150395   3.403   6.483   4.330 -0.0385 -1.8654 -0.1062
 9660TIP3    H250396   3.337   6.504   4.464  0.6371 -0.9139  0.0801
 9661TIP3   OH250397   3.956   1.664  15.080 -0.2721  0.6392  0.6929
 9661TIP3    H150398   3.904   1.620  15.012  1.2579  0.3471 -0.3363
 9661TIP3    H250399   4.046   1.661  15.047  0.2465  2.2291  1.8376
 9662TIP3   OH250400   3.289   2.202   4.104  0.5637  0.0548  0.3693
 9662TIP3    H150401   3.359   2.229   4.163  0.0426  1.0738  0.5399
 9662TIP3    H250402   3.275   2.277   4.047 -0.2172 -0.2363  0.1652
 9663TIP3   OH250403   6.424   5.441   5.082 -0.1517  0.3616  0.2710
 9663TIP3    H150404   6.360   5.455   5.012 -1.9336 -0.7439  1.6076
 9663TIP3    H250405   6.446   5.348   5.075 -1.8945 -0.2914  2.3397
 9664TIP3   OH250406   5.567   1.614   3.694  0.1464 -0.4474  0.0852
 9664TIP3    H150407   5.634   1.585   3.757  1.0778  0.1956 -0.5725
 9664TIP3    H250408   5.567   1.709   3.702 -0.3088 -0.4144 -0.3087
 9665TIP3   OH250409   5.107   4.540   1.623 -0.0112  0.4552  0.1487
 9665TIP3    H150410   5.068   4.453   1.628 -0.9328  0.7360 -1.4965
 9665TIP3    H250411   5.091   4.578   1.710 -1.0834 -0.4044  0.3524
 9666TIP3   OH250412   0.611   3.602  14.558  0.3063 -1.1378 -0.0547
 9666TIP3    H150413   0.622   3.697  14.557 -0.5474 -1.0082 -2.0181
 9666TIP3    H250414   0.701   3.568  14.555  0.7747 -0.5185  3.1656
 9667TIP3   OH250415   4.617   0.182  10.590  0.1886 -0.3610  0.4600
 9667TIP3    H150416   4.639   0.151  10.502 -0.9615  0.6752 -0.2174
 9667TIP3    H250417   4.702   0.198  10.631  0.7399 -0.5156 -0.5859
 9668TIP3   OH250418   0.664   6.226  13.479  0.1177 -0.0533  0.2010
 9668TIP3    H150419   0.681   6.315  13.449 -2.8245  0.8787  0.9349
 9668TIP3    H250420   0.571   6.226  13.502  0.4142 -2.8557  1.8649
 9669TIP3   OH250421   6.599   1.935   0.838  0.2119 -0.3547 -0.0747
 9669TIP3    H150422   6.680   1.922   0.886 -1.4299 -0.4127  2.9188
 9669TIP3    H250423   6.614   2.013   0.784  2.3917 -0.7356 -0.0844
 9670TIP3   OH250424   2.991   0.526   0.707 -0.3931  0.2064 -0.3159
 9670TIP3    H150425   2.913   0.535   0.762 -1.1699 -2.2945 -0.8801
 9670TIP3    H250426   3.025   0.439   0.727  0.9010  0.3258 -1.7821
 9671TIP3   OH250427   6.368   4.184  16.434 -0.5084 -0.4397 -0.1212
 9671TIP3    H150428   6.327   4.120  16.375 -1.7834  0.8936 -0.7439
 9671TIP3    H250429   6.337   4.269  16.402  0.8901  0.4794  0.8764
 9672TIP3   OH250430   1.032   2.857   0.522  0.1278  0.0929 -0.4826
 9672TIP3    H150431   1.026   2.951   0.539 -1.0046 -0.3478  1.9380
 9672TIP3    H250432   0.951   2.820   0.559  0.4631 -1.8368 -1.5081
 9673TIP3   OH250433   5.238   2.355  16.432 -0.2053 -0.0777  0.7891
 9673TIP3    H150434   5.169   2.305  16.476 -0.4832 -0.3106  0.1016
 9673TIP3    H250435   5.191   2.423  16.383  0.1311  0.4751  1.2167
 9674TIP3   OH250436   1.775   6.434  12.357 -0.3150 -0.4781  0.2667
 9674TIP3    H150437   1.734   6.374  12.419  0.7651 -0.9604  0.5256
 9674TIP3    H250438   1.868   6.433  12.379  0.6785 -2.9818 -3.1746
 9675TIP3   OH250439   0.862   4.889   3.567  0.4056 -1.2876  0.8601
 9675TIP3    H150440   0.804   4.860   3.638 -0.3247 -0.3839  0.6602
 9675TIP3    H250441   0.842   4.831   3.494 -2.6655  0.9079 -0.2715
 9676TIP3   OH250442   6.702   2.983  17.131 -0.1854  0.1518  0.5470
 9676TIP3    H150443   6.719   3.073  17.101 -0.7930 -0.6948 -2.7274
 9676TIP3    H250444   6.641   2.994  17.204  0.1550  2.4277  0.5703
 9677TIP3   OH250445   4.879   1.645  11.718  0.2873  0.5671 -0.5607
 9677TIP3    H150446   4.793   1.660  11.757  0.7233 -1.0003  1.1958
 9677TIP3    H250447   4.935   1.713  11.756  0.5314 -0.4779  1.0611
 9678TIP3   OH250448   5.254   0.870  17.164 -0.1455 -0.1710 -0.1940
 9678TIP3    H150449   5.264   0.835  17.253  1.5664  0.5502 -0.0703
 9678TIP3    H250450   5.335   0.847  17.120 -0.3514  0.7898 -1.1063
 9679TIP3   OH250451   6.254   4.022   5.067  0.1227 -0.3284 -0.5988
 9679TIP3    H150452   6.282   3.974   5.145 -1.3661  0.7696  0.6766
 9679TIP3    H250453   6.262   3.958   4.995  1.7879 -1.2768  0.3746
 9680TIP3   OH250454   2.275   6.487  15.176 -0.2551 -0.5234 -0.4356
 9680TIP3    H150455   2.311   6.398  15.183  0.0597 -0.3356  0.3338
 9680TIP3    H250456   2.246   6.493  15.085  0.4012 -1.1568 -0.6982
 9681TIP3   OH250457   3.110   3.311  13.788  0.0389  0.1579  0.2237
 9681TIP3    H150458   3.111   3.400  13.825 -0.8992  1.4312 -2.5746
 9681TIP3    H250459   3.019   3.296  13.763  0.7402 -0.2184 -2.3364
 9682TIP3   OH250460   4.175   4.984  17.036 -0.3744  0.8077  0.3718
 9682TIP3    H150461   4.238   5.055  17.044 -0.7242  0.9373  2.5902
 9682TIP3    H250462   4.106   5.006  17.098 -1.4966 -0.4713 -0.3581
 9683TIP3   OH250463   2.969   0.662   3.698 -0.0867  0.0211 -0.1452
 9683TIP3    H150464   2.986   0.656   3.604  1.0223  0.3127  0.0208
 9683TIP3    H250465   3.026   0.733   3.728 -1.9624  1.3528  0.4067
 9684TIP3   OH250466   2.533   6.760  17.197  0.2495  0.8941  0.0962
 9684TIP3    H150467   2.457   6.763  17.255  0.3939 -0.4570  0.3817
 9684TIP3    H250468   2.510   6.818  17.125  0.1972  2.9293  1.6305
 9685TIP3   OH250469   1.443   6.207   0.251  0.0628 -0.5666 -0.7304
 9685TIP3    H150470   1.360   6.159   0.245 -1.0083  1.3823 -3.4460
 9685TIP3    H250471   1.454   6.224   0.344 -1.1805 -3.1260 -0.0172
 9686TIP3   OH250472   1.481   1.974   4.489  0.2415  0.0148 -0.4215
 9686TIP3    H150473   1.473   1.976   4.584 -0.8955 -1.0663 -0.4742
 9686TIP3    H250474   1.443   1.890   4.463  1.5973 -0.2294 -1.7496
 9687TIP3   OH250475   2.966   4.761  16.556  0.1891  0.4432 -0.5757
 9687TIP3    H150476   2.988   4.672  16.526  1.0560  1.0383 -1.7923
 9687TIP3    H250477   2.960   4.753  16.651 -0.9189 -1.1618 -0.7414
 9688TIP3   OH250478   4.658   6.763  15.308  0.3210  0.1907  0.4865
 9688TIP3    H150479   4.576   6.763  15.358 -0.1269  1.1856 -0.2066
 9688TIP3    H250480   4.699   6.680  15.330  1.2221  1.4434  4.2354
 9689TIP3   OH250481   0.587   6.243  14.838 -0.4473  0.5299  0.4459
 9689TIP3    H150482   0.569   6.267  14.929 -0.5477  1.5307  0.1754
 9689TIP3    H250483   0.509   6.270  14.790 -1.5267 -2.3638  0.3933
 9690TIP3   OH250484   2.946   2.079  14.074 -0.0412 -0.4609 -0.2511
 9690TIP3    H150485   2.901   2.013  14.126  0.6724 -1.4243 -0.8048
 9690TIP3    H250486   3.035   2.043  14.063  0.3733  0.6211 -0.5236
 9691TIP3   OH250487   5.318   5.505  10.547 -0.6134  0.2398  0.0330
 9691TIP3    H150488   5.289   5.416  10.529  0.9997 -0.2131 -0.4480
 9691TIP3    H250489   5.376   5.527  10.474  1.4547  0.5195  1.6811
 9692TIP3   OH250490   3.860   5.943  16.737 -0.1982 -0.2538 -0.1412
 9692TIP3    H150491   3.927   5.973  16.675  0.1781  1.2838  0.9733
 9692TIP3    H250492   3.873   5.848  16.740  2.6344  0.0452  0.7322
 9693TIP3   OH250493   3.131   1.235  15.663  0.1377  0.1484 -0.2245
 9693TIP3    H150494   3.224   1.214  15.661  0.1573  0.0697  0.7075
 9693TIP3    H250495   3.122   1.312  15.608  0.8348  0.4176  0.0260
 9694TIP3   OH250496   1.840   1.855  14.393 -0.0262  0.0813  0.0861
 9694TIP3    H150497   1.826   1.877  14.485  1.4712 -0.8325  0.5670
 9694TIP3    H250498   1.804   1.767  14.383  0.9028 -0.3165  0.1246
 9695TIP3   OH250499   0.472   5.167  12.760  0.6171 -0.7438  0.6621
 9695TIP3    H150500   0.559   5.157  12.800  1.8927  1.7343 -1.2101
 9695TIP3    H250501   0.489   5.167  12.666 -1.0088  2.2043  0.2643
 9696TIP3   OH250502   4.654   5.780  17.136 -0.2104 -0.6091 -0.4294
 9696TIP3    H150503   4.675   5.695  17.097 -1.4535 -1.5000  0.7863
 9696TIP3    H250504   4.628   5.760  17.226 -0.9465  1.0213 -0.2500
 9697TIP3   OH250505   3.001   5.723   3.105  0.0619  0.5722  0.7552
 9697TIP3    H150506   2.909   5.734   3.082 -0.2086 -0.6163  1.1679
 9697TIP3    H250507   3.010   5.629   3.124  1.0563  0.8922  2.0428
 9698TIP3   OH250508   4.254   4.399  16.873  0.0915 -0.6288 -0.2159
 9698TIP3    H150509   4.228   4.422  16.962  1.6533  0.9923 -0.1146
 9698TIP3    H250510   4.195   4.448  16.817 -0.7972 -1.5349 -0.0931
 9699TIP3   OH250511   0.253   4.801   3.688 -0.4265 -0.1754 -0.3457
 9699TIP3    H150512   0.304   4.789   3.769 -0.9892 -1.9523 -0.2238
 9699TIP3    H250513   0.295   4.875   3.645  1.1268 -0.4440  0.6217
 9700TIP3   OH250514   4.448   0.518  12.981  0.5518 -0.0882 -0.4546
 9700TIP3    H150515   4.362   0.487  13.010  1.3203 -2.5386 -0.5746
 9700TIP3    H250516   4.507   0.445  13.000  2.4276  1.1358 -1.3291
 9701TIP3   OH250517   5.341   0.231   2.214 -0.2625  0.1256  0.8591
 9701TIP3    H150518   5.354   0.245   2.120 -0.2900  0.6198  0.9251
 9701TIP3    H250519   5.330   0.136   2.223 -0.8725  0.1363  0.2876
 9702TIP3   OH250520   2.846   6.680  15.823 -0.0536 -0.1623 -0.1204
 9702TIP3    H150521   2.921   6.637  15.864 -0.6547 -0.0053  1.1882
 9702TIP3    H250522   2.786   6.608  15.803 -1.1541 -0.0138  2.2661
 9703TIP3   OH250523   1.330   0.126   6.204 -0.2392  0.2588 -0.4106
 9703TIP3    H150524   1.423   0.106   6.198 -0.0572  0.7319  0.5716
 9703TIP3    H250525   1.306   0.102   6.294 -1.3415 -0.9322 -0.9987
 9704TIP3   OH250526   1.616   3.037  15.166 -0.1610 -0.6987  0.4721
 9704TIP3    H150527   1.696   3.059  15.120 -0.5985 -2.0215 -1.0135
 9704TIP3    H250528   1.546   3.052  15.103 -0.8133 -2.1392  0.7893
 9705TIP3   OH250529   1.085   0.028  10.411  0.2839  0.3822 -0.1483
 9705TIP3    H150530   1.076  -0.067  10.400  0.3408  0.3570  0.0202
 9705TIP3    H250531   1.177   0.042  10.432  0.1827  0.4275  0.2857
 9706TIP3   OH250532   3.517   2.929  11.758 -0.1164 -0.1450 -0.0878
 9706TIP3    H150533   3.545   2.933  11.849  1.9368 -0.0273 -0.6689
 9706TIP3    H250534   3.431   2.887  11.761  0.7605 -1.9807  1.7263
 9707TIP3   OH250535   4.653   6.584  16.106  0.1819  0.3195  0.3632
 9707TIP3    H150536   4.595   6.508  16.111  0.9081 -0.3276 -0.7179
 9707TIP3    H250537   4.696   6.588  16.191 -1.1516  0.5854  1.0465
 9708TIP3   OH250538   6.506   2.527   0.670 -0.1057  0.8053 -0.1101
 9708TIP3    H150539   6.442   2.490   0.609  0.2755 -0.8699  0.4449
 9708TIP3    H250540   6.570   2.571   0.614 -0.2531  0.0924 -0.8571
 9709TIP3   OH250541   1.062   4.796   1.425  0.1598 -0.1295  0.6785
 9709TIP3    H150542   1.025   4.713   1.394 -0.0838  0.1988  0.0714
 9709TIP3    H250543   1.137   4.770   1.479  0.6870 -0.7270 -0.3129
 9710TIP3   OH250544   5.382   2.277   3.192  0.0719 -0.0547  0.1816
 9710TIP3    H150545   5.402   2.315   3.107 -1.0931  0.3521  0.0609
 9710TIP3    H250546   5.288   2.293   3.203  0.0611 -0.7484  1.2190
 9711TIP3   OH250547   1.887   6.250   0.209 -0.2527  0.0818 -0.4584
 9711TIP3    H150548   1.824   6.272   0.278 -1.0612  1.3835 -1.5364
 9711TIP3    H250549   1.914   6.335   0.174  1.5704 -0.4895 -0.5141
 9712TIP3   OH250550   3.616   0.812  11.290 -0.2504  0.3389  0.0769
 9712TIP3    H150551   3.531   0.856  11.292  0.4313  1.6692  0.7953
 9712TIP3    H250552   3.612   0.751  11.363 -0.8964 -0.2396 -0.4230
 9713TIP3   OH250553   3.069   2.671   5.777 -0.2500  0.5277 -0.0671
 9713TIP3    H150554   3.020   2.738   5.825 -0.1516 -0.1786  1.0483
 9713TIP3    H250555   3.002   2.618   5.735 -0.3478  0.9764 -0.4873
 9714TIP3   OH250556   1.609   5.228   1.736  0.4639  0.4124 -0.2756
 9714TIP3    H150557   1.588   5.135   1.723 -0.2740  0.2776  1.5729
 9714TIP3    H250558   1.686   5.226   1.793  0.2307  0.9295  0.0587
 9715TIP3   OH250559   3.971   3.673  12.834  0.4862 -0.9121  0.2105
 9715TIP3    H150560   3.946   3.761  12.864  0.2761 -1.2670  1.1075
 9715TIP3    H250561   3.890   3.622  12.840 -0.1151 -0.5482 -2.9182
 9716TIP3   OH250562   4.373   6.487  16.555  0.2865 -0.0943  0.1662
 9716TIP3    H150563   4.315   6.553  16.516 -0.5093 -1.1354 -0.4693
 9716TIP3    H250564   4.458   6.531  16.562 -0.4392  1.3076  0.6512
 9717TIP3   OH250565   5.247   5.854   0.327 -0.0634 -0.2807 -0.0015
 9717TIP3    H150566   5.254   5.848   0.232 -1.3684  1.8654 -0.3129
 9717TIP3    H250567   5.183   5.787   0.350  0.3906 -0.9357 -0.5962
 9718TIP3   OH250568   1.359   2.527   2.152  0.3624  0.6108  0.0482
 9718TIP3    H150569   1.276   2.549   2.111 -0.3748 -0.4022  0.9499
 9718TIP3    H250570   1.344   2.536   2.245  1.5356  1.2813  0.1936
 9719TIP3   OH250571   1.450   0.496  14.579 -0.4129  0.3201  0.1439
 9719TIP3    H150572   1.531   0.539  14.552 -0.2046 -0.4972 -0.5843
 9719TIP3    H250573   1.416   0.550  14.650 -0.4915  2.0828 -1.1463
 9720TIP3   OH250574   1.090   4.102  16.173  0.0541 -0.2234  0.2478
 9720TIP3    H150575   1.131   4.142  16.096 -0.7788  0.4671  0.1480
 9720TIP3    H250576   1.157   4.106  16.241  1.2247 -1.9023 -0.7289
 9721TIP3   OH250577   3.251   1.897  17.063 -0.1358 -0.3209  0.1539
 9721TIP3    H150578   3.160   1.918  17.082 -0.4292 -1.1588 -0.2863
 9721TIP3    H250579   3.277   1.839  17.135  0.6613  1.4541  1.3515
 9722TIP3   OH250580   5.525   0.126   0.934 -0.1124  0.1584  0.3320
 9722TIP3    H150581   5.523   0.179   1.014  0.0213  1.2114 -0.3510
 9722TIP3    H250582   5.458   0.059   0.949 -0.6212  0.7982  1.0182
 9723TIP3   OH250583   3.736   1.160  10.984 -0.6795 -0.0657  0.3097
 9723TIP3    H150584   3.646   1.190  10.994 -0.4281  0.4441  1.1100
 9723TIP3    H250585   3.748   1.150  10.889 -2.0178 -1.5187  0.2528
 9724TIP3   OH250586   1.534   1.338   1.997  0.0912  0.1527 -0.1967
 9724TIP3    H150587   1.575   1.382   2.072 -1.0306 -0.3964  0.7715
 9724TIP3    H250588   1.504   1.255   2.032 -0.8841  0.0950 -1.1434
 9725TIP3   OH250589   4.945   6.655   3.902 -0.0331 -0.2366 -0.0540
 9725TIP3    H150590   5.023   6.661   3.957  1.3982 -1.3452 -1.8540
 9725TIP3    H250591   4.976   6.672   3.814 -2.4124  2.4381 -0.5308
 9726TIP3   OH250592   1.699   3.426  17.018 -0.4091 -0.3082  0.2638
 9726TIP3    H150593   1.646   3.456  17.092  1.0499  0.7881  0.9071
 9726TIP3    H250594   1.643   3.363  16.973 -1.7196 -0.2428  1.7108
 9727TIP3   OH250595   0.874   5.299  13.947  0.0957 -0.2825 -0.2518
 9727TIP3    H150596   0.824   5.265  13.872  1.1411 -2.0442 -0.2047
 9727TIP3    H250597   0.863   5.394  13.942 -0.3225 -0.3886 -2.3086
 9728TIP3   OH250598   0.661   5.918  10.508  0.4054  0.2025  0.6767
 9728TIP3    H150599   0.711   5.973  10.448 -1.9833  1.5062 -0.2846
 9728TIP3    H250600   0.599   5.872  10.451  0.7844 -1.7025  1.7423
 9729TIP3   OH250601   2.572   4.060   2.717 -0.4575  0.3480  0.1784
 9729TIP3    H150602   2.502   4.126   2.721  0.0427  0.8430  0.8329
 9729TIP3    H250603   2.539   3.995   2.655 -0.6050  1.6313 -1.1623
 9730TIP3   OH250604   6.614   3.940  14.471  0.3977 -0.2078  0.1452
 9730TIP3    H150605   6.648   3.983  14.549 -1.7557  2.3917 -0.1803
 9730TIP3    H250606   6.670   3.972  14.400 -0.8241  1.7763 -0.0108
 9731TIP3   OH250607   4.471   0.304  13.630 -0.1409  0.3669  0.5750
 9731TIP3    H150608   4.433   0.389  13.653  1.2526  1.2838 -0.2863
 9731TIP3    H250609   4.403   0.259  13.581 -0.1553  1.9786 -0.9738
 9732TIP3   OH250610   2.951   3.478   3.567 -0.0881 -0.1467 -0.8217
 9732TIP3    H150611   2.862   3.464   3.600 -0.0991  1.1079 -0.2863
 9732TIP3    H250612   2.961   3.413   3.497 -0.0065 -3.0494  1.6770
 9733TIP3   OH250613   0.432   2.359   1.927 -0.0933 -0.6884  0.8912
 9733TIP3    H150614   0.396   2.312   1.852  1.9505 -1.6193  0.4289
 9733TIP3    H250615   0.414   2.303   2.002 -2.1463  0.2470  1.1701
 9734TIP3   OH250616   1.182   2.492  16.361 -0.2369  0.2166 -0.1070
 9734TIP3    H150617   1.088   2.478  16.351 -0.7048  2.3010  0.8749
 9734TIP3    H250618   1.196   2.498  16.456  0.7063  0.9086 -0.2689
 9735TIP3   OH250619   2.804   1.014  12.388 -0.1974 -0.0244 -0.0446
 9735TIP3    H150620   2.730   1.063  12.425  0.0728 -0.0295  0.5186
 9735TIP3    H250621   2.791   0.925  12.420 -0.3585 -0.1912 -0.5706
 9736TIP3   OH250622   6.486   5.447   1.730 -1.0092 -0.1386  0.3307
 9736TIP3    H150623   6.484   5.385   1.803 -2.1404  0.3996  0.7807
 9736TIP3    H250624   6.554   5.509   1.754  1.1616 -1.9363 -0.7927
 9737TIP3   OH250625   3.137   6.637  17.128 -0.2929 -0.2512 -0.3961
 9737TIP3    H150626   3.164   6.636  17.036  0.6419 -0.2398 -0.1341
 9737TIP3    H250627   3.047   6.606  17.127 -0.4360  0.1527 -1.3624
 9738TIP3   OH250628   2.770   5.553  13.034 -0.1327 -0.3013  0.5907
 9738TIP3    H150629   2.828   5.546  12.958 -0.4367 -0.9783  0.4186
 9738TIP3    H250630   2.766   5.465  13.070 -1.2399 -0.3249  0.4612
 9739TIP3   OH250631   5.280   3.448   2.298 -0.1049 -0.2909 -0.2357
 9739TIP3    H150632   5.321   3.366   2.326  0.8602  0.0430 -0.6254
 9739TIP3    H250633   5.344   3.516   2.320 -1.2683  0.4860  0.9348
 9740TIP3   OH250634   6.057   0.354   0.441 -0.3310  0.0314 -0.3145
 9740TIP3    H150635   6.062   0.383   0.532  1.0094 -2.3782  0.4690
 9740TIP3    H250636   5.985   0.291   0.439 -1.7455  1.5732 -1.4786
 9741TIP3   OH250637   2.640   6.034  17.112 -0.1706 -1.0110 -0.3865
 9741TIP3    H150638   2.636   6.118  17.067 -1.2481 -0.8856 -0.0760
 9741TIP3    H250639   2.652   5.970  17.041 -4.3410 -1.0816 -1.2543
 9742TIP3   OH250640   0.148   3.685  15.363 -0.1837  0.3023 -0.3150
 9742TIP3    H150641   0.190   3.709  15.281  1.8860 -0.3257  0.4910
 9742TIP3    H250642   0.171   3.593  15.376  0.3487  0.6257  1.4014
 9743TIP3   OH250643   5.175   0.631  14.568 -0.6888 -0.3585  0.8791
 9743TIP3    H150644   5.178   0.536  14.561  0.5299 -0.2656 -0.1743
 9743TIP3    H250645   5.090   0.655  14.532 -1.7228 -1.1257  2.6632
 9744TIP3   OH250646   0.361   2.305  11.816  0.1557  0.1996  0.1443
 9744TIP3    H150647   0.295   2.298  11.885  0.6663 -0.0930  0.6037
 9744TIP3    H250648   0.327   2.373  11.757 -1.4879 -1.2048 -0.6333
 9745TIP3   OH250649   4.835   2.397   4.785  0.2261 -0.1233 -0.2512
 9745TIP3    H150650   4.805   2.330   4.846 -1.7315 -0.5311 -1.5645
 9745TIP3    H250651   4.861   2.348   4.706 -2.3127  0.6199 -1.6558
 9746TIP3   OH250652   0.878   2.987  16.265  0.2862 -0.4733  0.0628
 9746TIP3    H150653   0.909   2.906  16.307  0.5749 -0.2848  0.2139
 9746TIP3    H250654   0.800   2.960  16.217  0.0930 -0.7446  0.5200
 9747TIP3   OH250655   3.523   2.115  14.764 -0.1249 -0.1385 -0.7357
 9747TIP3    H150656   3.437   2.155  14.753 -0.1665 -0.0063 -0.0286
 9747TIP3    H250657   3.585   2.182  14.737 -0.1692  0.6707  0.9921
 9748TIP3   OH250658   1.237   3.088  11.325 -0.5875  0.0080  0.9305
 9748TIP3    H150659   1.244   3.181  11.344  4.4672  0.8060 -2.7924
 9748TIP3    H250660   1.186   3.084  11.244 -0.0454 -0.3187  0.5984
 9749TIP3   OH250661   1.735   0.025  13.656  0.2931  0.4658 -0.3758
 9749TIP3    H150662   1.724   0.098  13.716  0.1753  0.6098 -0.5707
 9749TIP3    H250663   1.824  -0.007  13.671 -0.0001 -0.0101  0.4483
 9750TIP3   OH250664   6.352   4.572   1.977  0.6624 -0.3901 -0.1584
 9750TIP3    H150665   6.425   4.596   2.034  0.1714  0.2216  0.2220
 9750TIP3    H250666   6.388   4.505   1.919  0.5752 -2.8475  2.4049
 9751TIP3   OH250667   5.337   2.280  14.967  0.1778  0.1550 -0.1462
 9751TIP3    H150668   5.293   2.333  15.034 -0.4209 -2.4342  1.6739
 9751TIP3    H250669   5.269   2.266  14.901 -0.1497  0.3609  0.1380
 9752TIP3   OH250670   4.137   3.003  16.302 -0.1064  0.4507  0.0638
 9752TIP3    H150671   4.083   3.075  16.333 -0.8249  0.6006 -1.4238
 9752TIP3    H250672   4.075   2.941  16.264  0.5901 -0.4713  0.3937
 9753TIP3   OH250673   0.201   4.205  15.404  0.0663  0.2118  0.4354
 9753TIP3    H150674   0.175   4.275  15.344 -2.6249 -0.4129  0.7150
 9753TIP3    H250675   0.279   4.239  15.449  0.4483  1.8593 -1.3529
 9754TIP3   OH250676   0.011   4.016  12.325  0.8358 -0.1819  0.0695
 9754TIP3    H150677  -0.014   4.107  12.309 -0.4680 -0.5389 -0.0656
 9754TIP3    H250678   0.054   4.018  12.410  1.2613  0.6276 -0.1534
 9755TIP3   OH250679   2.156   1.845   2.429 -0.6014  0.1895  0.3771
 9755TIP3    H150680   2.141   1.926   2.479 -1.1435  0.8138 -0.7587
 9755TIP3    H250681   2.251   1.838   2.423 -0.3345 -1.4406  3.8828
 9756TIP3   OH250682   1.566   2.045   5.078 -0.3846  0.5834 -0.3993
 9756TIP3    H150683   1.500   2.022   5.143  0.3688 -0.6826 -0.0446
 9756TIP3    H250684   1.540   1.999   4.999  0.0669  0.0802 -0.2583
 9757TIP3   OH250685   4.287   5.591   4.093  0.3429 -0.1549 -0.1099
 9757TIP3    H150686   4.323   5.666   4.045  1.1186 -0.2441  0.3292
 9757TIP3    H250687   4.304   5.610   4.185  1.0732 -1.1331 -0.0250
 9758TIP3   OH250688   5.654   4.231  16.472 -0.1443  0.3107  0.0408
 9758TIP3    H150689   5.676   4.238  16.565  0.4292 -0.0437 -0.0638
 9758TIP3    H250690   5.708   4.297  16.430  1.6420 -1.3056 -0.3520
 9759TIP3   OH250691   0.324   3.977   2.077 -0.1666  0.0438 -0.3882
 9759TIP3    H150692   0.380   3.936   2.011 -0.6529 -0.6257 -0.3980
 9759TIP3    H250693   0.322   4.069   2.053 -0.6298 -0.2484 -1.5225
 9760TIP3   OH250694   6.625   2.151   5.697  0.1162 -0.7063  0.3698
 9760TIP3    H150695   6.624   2.245   5.679  0.3534 -0.7795 -0.0510
 9760TIP3    H250696   6.718   2.129   5.703  0.0483 -0.6762  1.8141
 9761TIP3   OH250697   2.396   4.110   2.148 -0.0674  0.4599 -0.7327
 9761TIP3    H150698   2.382   4.181   2.210 -1.1000  0.6650 -1.1837
 9761TIP3    H250699   2.344   4.038   2.181  0.5790  0.0742 -0.5497
 9762TIP3   OH250700   6.410   2.920   4.972 -0.6969  0.1721 -0.0397
 9762TIP3    H150701   6.398   2.981   5.045 -1.4131 -0.4702  0.3908
 9762TIP3    H250702   6.345   2.946   4.907 -3.0191 -1.8189  1.3034
 9763TIP3   OH250703   0.428   5.585  10.982 -0.4447 -0.0592 -0.1096
 9763TIP3    H150704   0.453   5.568  10.891 -1.4497  0.1877 -0.4523
 9763TIP3    H250705   0.370   5.513  11.005  0.4596 -0.5692  0.6296
 9764TIP3   OH250706   4.107   1.721   3.433 -0.1516 -0.4836 -0.4699
 9764TIP3    H150707   4.127   1.695   3.343 -1.0676 -0.5281 -0.6611
 9764TIP3    H250708   4.134   1.646   3.486 -1.0281 -1.0670 -0.8492
 9765TIP3   OH250709   3.290   1.597  15.235 -0.3546 -0.2334  1.0604
 9765TIP3    H150710   3.201   1.606  15.201  1.2887  2.2881 -3.3619
 9765TIP3    H250711   3.312   1.505  15.219 -1.6788 -0.5409  0.8913
 9766TIP3   OH250712   3.370   6.114   1.086  0.4993 -0.0760  0.2465
 9766TIP3    H150713   3.421   6.039   1.114  0.8078 -0.2664 -0.7787
 9766TIP3    H250714   3.279   6.086   1.097  0.6115 -0.3643  0.4617
 9767TIP3   OH250715   1.332   6.761  15.969  0.3823 -0.0268  0.7022
 9767TIP3    H150716   1.364   6.671  15.968  0.0389 -0.1631  1.2606
 9767TIP3    H250717   1.292   6.774  15.883  1.8616  0.1307 -0.0022
 9768TIP3   OH250718   6.047   4.379  16.580  0.0118 -0.3087  0.4266
 9768TIP3    H150719   6.101   4.457  16.587 -1.7951  1.0972 -0.4348
 9768TIP3    H250720   6.055   4.337  16.666  1.4206  0.5204  0.7334
 9769TIP3   OH250721   2.534   0.537  16.754 -0.0115  0.1530 -0.2222
 9769TIP3    H150722   2.612   0.578  16.792  0.0334  0.5970 -0.7942
 9769TIP3    H250723   2.557   0.522  16.663 -0.7474  0.6815 -0.5030
 9770TIP3   OH250724   0.668   5.698  11.024 -0.0162 -0.2121  0.0660
 9770TIP3    H150725   0.675   5.653  11.109  0.4818  0.1302  0.2084
 9770TIP3    H250726   0.585   5.666  10.987 -1.0847  0.8509  1.4015
 9771TIP3   OH250727   0.310   2.418  14.615  0.4562 -0.1965  0.7838
 9771TIP3    H150728   0.297   2.483  14.684  0.2368  0.6378 -0.0170
 9771TIP3    H250729   0.221   2.391  14.590  0.4843  0.3149  0.0956
 9772TIP3   OH250730   2.584   4.122   3.001  0.2530 -0.6586  0.2497
 9772TIP3    H150731   2.572   4.118   2.906  0.8342  0.3716  0.1209
 9772TIP3    H250732   2.622   4.209   3.017 -0.1085 -0.7057  1.4542
 9773TIP3   OH250733   0.345   3.319  10.870 -0.1629  0.2129  0.0939
 9773TIP3    H150734   0.270   3.267  10.841  0.6103 -0.1872 -1.2962
 9773TIP3    H250735   0.421   3.261  10.857  0.3094  0.0975  2.7530
 9774TIP3   OH250736   5.755   0.799  12.518 -0.1724  0.5244 -0.5170
 9774TIP3    H150737   5.662   0.817  12.504 -0.0472  1.0028 -0.7620
 9774TIP3    H250738   5.759   0.756  12.603 -0.3134  3.4557  1.0976
 9775TIP3   OH250739   6.380   0.752  13.876  0.1075 -0.6979  0.2524
 9775TIP3    H150740   6.440   0.682  13.903 -0.0903 -0.9930 -0.0651
 9775TIP3    H250741   6.437   0.824  13.852  0.4120 -1.3739 -1.1894
 9776TIP3   OH250742   0.064   3.200   1.033  0.0501 -0.4390  0.3935
 9776TIP3    H150743   0.078   3.280   0.983  0.3964 -0.1308  0.9705
 9776TIP3    H250744   0.017   3.229   1.112  1.5229 -0.5540  1.3460
 9777TIP3   OH250745   0.208   2.009  16.016 -0.0953  0.6365  0.9525
 9777TIP3    H150746   0.291   2.047  16.043  0.5493 -0.2632  0.2734
 9777TIP3    H250747   0.228   1.918  15.996 -1.1151  0.5570  0.1982
 9778TIP3   OH250748   3.396   2.210  15.374  0.6491 -0.0321 -0.0963
 9778TIP3    H150749   3.435   2.198  15.287  0.7489  0.7213 -0.1608
 9778TIP3    H250750   3.469   2.238  15.429  0.2309  1.2749 -0.1897
 9779TIP3   OH250751   0.601   6.254   3.997 -0.1037  0.6437  0.4848
 9779TIP3    H150752   0.519   6.252   4.045  0.9174  0.2163  2.3161
 9779TIP3    H250753   0.612   6.164   3.964  0.4862  0.1887  1.8433
 9780TIP3   OH250754   2.182   2.607   5.429  0.3599  0.0640 -0.4955
 9780TIP3    H150755   2.244   2.545   5.392  0.1554 -1.4604  1.5009
 9780TIP3    H250756   2.235   2.683   5.453  1.1724 -0.5587 -0.2737
 9781TIP3   OH250757   2.631   4.759  14.600  0.2481  0.1101 -0.5401
 9781TIP3    H150758   2.538   4.774  14.616  0.8972  1.7206  2.1846
 9781TIP3    H250759   2.643   4.665  14.614 -0.7702  0.0816  0.1839
 9782TIP3   OH250760   1.225   2.558   1.105 -0.2359 -0.1414 -0.3753
 9782TIP3    H150761   1.292   2.553   1.036 -0.9634  0.5339 -1.1597
 9782TIP3    H250762   1.194   2.649   1.101 -2.4336 -0.8785 -1.2388
 9783TIP3   OH250763   3.735   4.530  11.644  0.9238 -0.1878  0.4341
 9783TIP3    H150764   3.765   4.523  11.735 -1.2263  0.3159  1.2420
 9783TIP3    H250765   3.766   4.616  11.616  0.2604  0.3382  1.2518
 9784TIP3   OH250766   6.341   6.443  12.388  0.1227  0.3131  0.1631
 9784TIP3    H150767   6.261   6.494  12.398  0.7600  1.1496  1.2536
 9784TIP3    H250768   6.311   6.352  12.386 -1.0252  0.6830 -1.7450
 9785TIP3   OH250769   5.146   2.173   4.238  0.4651  0.3145 -0.4544
 9785TIP3    H150770   5.186   2.107   4.183  0.8021 -0.8225  1.0758
 9785TIP3    H250771   5.078   2.213   4.184  0.1453 -1.4064 -1.3685
 9786TIP3   OH250772   3.960   6.005   5.805  0.3810  0.4216 -0.2439
 9786TIP3    H150773   3.913   5.969   5.729 -1.9738 -0.4511  1.4783
 9786TIP3    H250774   4.031   5.943   5.821  0.1924 -0.0196 -1.0567
 9787TIP3   OH250775   1.430   1.648   2.199  0.3174 -0.0657 -0.3086
 9787TIP3    H150776   1.516   1.681   2.177 -0.0473  0.1495 -1.4603
 9787TIP3    H250777   1.445   1.588   2.272  1.3965  0.1615 -0.3371
 9788TIP3   OH250778   5.715   4.861  14.183 -0.0781 -1.0188 -0.6764
 9788TIP3    H150779   5.662   4.799  14.234 -0.5021 -2.0218 -2.2735
 9788TIP3    H250780   5.805   4.846  14.214 -0.5704  0.1926  1.5409
 9789TIP3   OH250781   0.342   4.732  16.891 -0.4111 -0.2510  0.2634
 9789TIP3    H150782   0.274   4.696  16.834 -1.1271  1.4858 -0.0304
 9789TIP3    H250783   0.419   4.738  16.835 -1.2053  1.8003 -0.7347
 9790TIP3   OH250784   5.952   2.906   5.033 -0.3562 -0.1654  0.5682
 9790TIP3    H150785   5.936   2.944   5.119 -0.4238 -1.1137  0.9943
 9790TIP3    H250786   5.989   2.820   5.052 -0.7687 -0.5532 -0.3387
 9791TIP3   OH250787   4.891   4.604   3.346  0.2667 -0.1654  0.2016
 9791TIP3    H150788   4.875   4.576   3.436  0.4630  0.0188  0.2938
 9791TIP3    H250789   4.820   4.665   3.326 -0.8842 -1.6278 -0.4147
 9792TIP3   OH250790   3.347   4.516  15.509 -0.1004 -0.5489 -0.6839
 9792TIP3    H150791   3.370   4.609  15.501 -2.5532  0.0729 -1.5059
 9792TIP3    H250792   3.334   4.503  15.602  1.2634 -0.3674 -0.4453
 9793TIP3   OH250793   4.812   3.536  13.395  0.0694  0.5100 -0.3189
 9793TIP3    H150794   4.901   3.502  13.395 -0.2480 -0.4001 -1.7882
 9793TIP3    H250795   4.818   3.619  13.442  1.7698  0.6548 -0.7352
 9794TIP3   OH250796   6.509   3.667  16.215 -0.3781  0.2918  0.2846
 9794TIP3    H150797   6.442   3.735  16.219 -1.7560 -0.9492 -0.4601
 9794TIP3    H250798   6.460   3.585  16.217  1.0332 -0.6736 -1.4768
 9795TIP3   OH250799   4.784   5.571   2.737  0.5639  0.1331 -0.2815
 9795TIP3    H150800   4.837   5.650   2.724  0.5104  0.1902 -0.1622
 9795TIP3    H250801   4.832   5.519   2.801  1.4799 -0.7541 -1.6341
 9796TIP3   OH250802   2.268   5.994   2.724 -0.1411 -0.1888 -0.0450
 9796TIP3    H150803   2.325   5.963   2.793 -1.4241 -1.1384  0.6368
 9796TIP3    H250804   2.264   6.089   2.736  0.0474 -0.2918  0.8803
 9797TIP3   OH250805   4.755   5.722  12.375 -0.5923  0.0647 -0.0254
 9797TIP3    H150806   4.783   5.791  12.316 -0.7465  0.4149  0.3066
 9797TIP3    H250807   4.705   5.767  12.443 -1.2825 -0.4526 -0.1776
 9798TIP3   OH250808   6.665   4.141   1.421 -0.0208  0.2595  0.6745
 9798TIP3    H150809   6.579   4.150   1.463 -1.3758  1.3856 -2.0831
 9798TIP3    H250810   6.697   4.230   1.412 -0.5256  0.2574 -1.9375
 9799TIP3   OH250811   0.463   0.137  15.940  0.0714  0.4120 -0.0301
 9799TIP3    H150812   0.416   0.170  15.864  1.4305 -3.0178 -2.6333
 9799TIP3    H250813   0.536   0.198  15.953 -1.5349  2.3801  0.1998
 9800TIP3   OH250814   3.717   0.008  15.615  0.4577 -0.0275 -0.0883
 9800TIP3    H150815   3.692   0.050  15.532  0.0608 -0.3652 -0.1435
 9800TIP3    H250816   3.634  -0.015  15.656  0.5851  1.5539  1.1521
 9801TIP3   OH250817   5.745   1.034  11.724 -0.4554  0.0860  0.3921
 9801TIP3    H150818   5.739   0.995  11.812 -1.2382  0.2771  0.4259
 9801TIP3    H250819   5.762   1.127  11.740 -0.0113  0.0158  0.3324
 9802TIP3   OH250820   5.194   5.246   5.146 -0.1200 -0.1536  0.3386
 9802TIP3    H150821   5.120   5.241   5.085  0.3441 -0.4840 -0.2012
 9802TIP3    H250822   5.199   5.338   5.171  2.4917  1.0194 -3.6561
 9803TIP3   OH250823   1.884   6.765  10.503  0.9771 -0.7616 -0.1722
 9803TIP3    H150824   1.904   6.693  10.443  2.2899 -1.6553  1.2579
 9803TIP3    H250825   1.967   6.782  10.548  0.2440  0.4418  0.7993
 9804TIP3   OH250826   2.514   3.810   2.002  0.5150 -0.3787  0.0446
 9804TIP3    H150827   2.545   3.899   2.015  2.2404 -0.7549 -1.1396
 9804TIP3    H250828   2.437   3.820   1.946 -0.6036  0.4696  1.6663
 9805TIP3   OH250829   5.545   1.152   5.322  0.6073  0.0213  0.0808
 9805TIP3    H150830   5.591   1.108   5.394  0.8940 -0.2003 -0.2288
 9805TIP3    H250831   5.557   1.093   5.248  1.9942  1.1442 -0.6462
 9806TIP3   OH250832   0.176   3.098  14.182  0.6557 -0.1036 -0.4406
 9806TIP3    H150833   0.162   3.106  14.276  0.6919 -0.8235 -0.3618
 9806TIP3    H250834   0.248   3.158  14.162 -0.2787  1.1102 -0.2592
 9807TIP3   OH250835   0.387   6.734   3.720 -0.4791 -0.1365  0.3738
 9807TIP3    H150836   0.437   6.812   3.742 -1.6128  0.2788  1.6201
 9807TIP3    H250837   0.418   6.667   3.782  0.3655 -0.6352 -0.5742
 9808TIP3   OH250838   2.826   1.016  13.392 -0.0663  0.1306  0.1417
 9808TIP3    H150839   2.829   1.004  13.297 -1.1881  1.1230 -0.0527
 9808TIP3    H250840   2.746   0.971  13.420  0.8637 -1.1717  0.8134
 9809TIP3   OH250841   3.873   2.089   4.584 -0.8077 -0.5586  0.8194
 9809TIP3    H150842   3.929   2.160   4.616 -0.2713 -0.7615  0.3363
 9809TIP3    H250843   3.784   2.115   4.609 -0.8091  1.0624 -0.7636
 9810TIP3   OH250844   5.713   6.280   5.896  0.6535  0.8356 -0.0825
 9810TIP3    H150845   5.659   6.297   5.819  2.1455  0.1973 -1.3015
 9810TIP3    H250846   5.802   6.275   5.863  1.2699 -0.0288  1.6103
 9811TIP3   OH250847   5.529   1.995   4.044  0.2347 -0.2355  0.1183
 9811TIP3    H150848   5.500   1.994   3.953  2.7757 -0.7526 -0.7585
 9811TIP3    H250849   5.453   1.962   4.094 -2.5276  3.3703 -1.2655
 9812TIP3   OH250850   6.264   1.893   3.340  0.1963  0.7528  0.6412
 9812TIP3    H150851   6.175   1.915   3.365 -0.3453 -0.9613  0.3014
 9812TIP3    H250852   6.318   1.959   3.384 -0.9950  0.0126  3.4122
 9813TIP3   OH250853   3.195   0.383   0.397  0.4460 -0.2286  0.1986
 9813TIP3    H150854   3.215   0.301   0.352  1.6147  1.0990 -1.8998
 9813TIP3    H250855   3.112   0.412   0.358  0.1306 -0.3261  0.7945
 9814TIP3   OH250856   3.100   2.023   5.893 -0.0293  0.3885  0.2295
 9814TIP3    H150857   3.058   1.950   5.848 -1.2912  2.5801 -2.5560
 9814TIP3    H250858   3.038   2.096   5.881  1.6879  2.2057  1.7603
 9815TIP3   OH250859   4.439   5.808   3.070  0.1450  0.2595  0.0212
 9815TIP3    H150860   4.503   5.803   3.140  1.0458  2.0727 -0.5971
 9815TIP3    H250861   4.463   5.737   3.010  1.6751  0.9547 -0.2461
 9816TIP3   OH250862   5.106   2.650  11.624  0.1224  0.0651  0.1435
 9816TIP3    H150863   5.075   2.624  11.710  1.9476  2.6364  1.7305
 9816TIP3    H250864   5.200   2.669  11.636  0.0040  2.5201 -1.8079
 9817TIP3   OH250865   0.892   2.812   1.165 -0.1082  0.2458  0.1367
 9817TIP3    H150866   0.882   2.743   1.232  0.4338 -2.0858 -2.0194
 9817TIP3    H250867   0.803   2.838   1.143 -0.5183 -1.9092 -1.0094
 9818TIP3   OH250868   2.847   2.150   1.315 -0.0269 -0.1841  0.0677
 9818TIP3    H150869   2.875   2.230   1.271 -1.2930  1.1944  1.6106
 9818TIP3    H250870   2.775   2.117   1.261  1.1821 -0.9248 -1.1524
 9819TIP3   OH250871   5.245   5.972  16.267 -0.5242  0.4204  0.4504
 9819TIP3    H150872   5.201   5.991  16.184  0.6357  0.0324 -0.2754
 9819TIP3    H250873   5.271   6.058  16.301  1.0872  0.4832 -0.7966
 9820TIP3   OH250874   0.460   3.714   4.258 -0.1602 -0.4623  0.0136
 9820TIP3    H150875   0.386   3.689   4.203 -1.2677 -1.5234  1.8485
 9820TIP3    H250876   0.491   3.631   4.296  0.3916  0.2244  1.1248
 9821TIP3   OH250877   2.764   5.933  16.312  0.3450  0.4913  0.4510
 9821TIP3    H150878   2.787   5.960  16.223  0.0585 -1.2234 -0.1779
 9821TIP3    H250879   2.718   6.009  16.349  1.0403  1.4689 -0.6109
 9822TIP3   OH250880   4.880   0.021  14.677 -0.5128  0.6828 -0.4598
 9822TIP3    H150881   4.963   0.022  14.629 -0.4330 -0.4910 -0.3704
 9822TIP3    H250882   4.838  -0.061  14.651 -0.2776 -0.2183  1.7566
 9823TIP3   OH250883   3.471   6.160   0.767 -0.3709 -0.0796 -0.1298
 9823TIP3    H150884   3.417   6.123   0.837 -3.2917 -0.7976 -2.5644
 9823TIP3    H250885   3.520   6.084   0.733  0.4978  0.1377  0.5708
 9824TIP3   OH250886   5.212   2.506   4.295  0.1338 -0.3262 -0.2585
 9824TIP3    H150887   5.119   2.523   4.310  0.3891  1.1616 -0.2041
 9824TIP3    H250888   5.251   2.506   4.383  0.1600 -1.2419 -0.2568
 9825TIP3   OH250889   4.754   0.865  12.120  0.2583 -0.3149 -0.1018
 9825TIP3    H150890   4.661   0.874  12.141  0.4090 -1.0506  0.9373
 9825TIP3    H250891   4.800   0.899  12.196  0.8397 -0.5093 -0.3573
 9826TIP3   OH250892   5.801   5.578   0.511  0.1636 -0.2858  0.5675
 9826TIP3    H150893   5.853   5.506   0.548  0.6431 -0.1007  0.2664
 9826TIP3    H250894   5.841   5.594   0.425  0.8381  1.1333  1.1193
 9827TIP3   OH250895   6.689   0.742   0.514  0.0842 -0.5043  0.4709
 9827TIP3    H150896   6.619   0.730   0.450 -0.0711  1.1866  0.2898
 9827TIP3    H250897   6.719   0.653   0.534  0.1356 -1.0717 -1.9256
 9828TIP3   OH250898   3.242   2.093  13.150  0.2971 -0.4244  0.4545
 9828TIP3    H150899   3.166   2.128  13.196  0.7403  2.0746 -0.5468
 9828TIP3    H250900   3.317   2.118  13.204  0.6672  0.8654 -0.5828
 9829TIP3   OH250901   4.881   5.509   5.232  0.6288 -0.3949 -0.0244
 9829TIP3    H150902   4.796   5.479   5.199  0.5444  0.1593 -0.3129
 9829TIP3    H250903   4.940   5.501   5.158  0.4793  0.6784 -0.2677
 9830TIP3   OH250904   6.495   3.254  16.166 -0.8505  0.8062  0.2415
 9830TIP3    H150905   6.504   3.324  16.101  1.6661 -0.0705 -0.4782
 9830TIP3    H250906   6.494   3.174  16.114 -1.0809  0.1815  1.1863
 9831TIP3   OH250907   6.284   2.257   3.204  0.0916 -0.5573 -0.4559
 9831TIP3    H150908   6.326   2.207   3.274  1.9123  0.7365 -0.5346
 9831TIP3    H250909   6.347   2.255   3.132 -0.7252  0.0709 -1.2099
 9832TIP3   OH250910   4.604   4.747  12.756  0.3640  0.3084  0.2924
 9832TIP3    H150911   4.511   4.749  12.780  0.1026  0.8465 -0.7283
 9832TIP3    H250912   4.605   4.769  12.663  1.4876 -0.1167  0.1935
 9833TIP3   OH250913   3.636   1.068   6.479 -0.3604  0.5154  0.4422
 9833TIP3    H150914   3.595   1.074   6.392 -1.2894 -0.7583  0.7644
 9833TIP3    H250915   3.599   1.141   6.528 -0.4004  0.8025 -0.0057
 9834TIP3   OH250916   4.442   1.830  11.763  0.4994 -0.4310 -0.6180
 9834TIP3    H150917   4.468   1.739  11.782 -0.3330 -0.3186  1.2724
 9834TIP3    H250918   4.365   1.821  11.707  0.7128 -0.8739 -0.8532
 9835TIP3   OH250919   1.566   0.453  14.177 -0.3531  0.0208  0.2465
 9835TIP3    H150920   1.562   0.487  14.266  1.2482  1.1952 -0.0900
 9835TIP3    H250921   1.538   0.362  14.185 -4.3553  1.1031  1.2780
 9836TIP3   OH250922   5.825   2.019   6.382 -0.7521 -0.0915 -0.1672
 9836TIP3    H150923   5.807   1.938   6.333  1.4088 -0.6781 -0.1124
 9836TIP3    H250924   5.749   2.075   6.365 -0.0497 -0.1043 -4.5820
 9837TIP3   OH250925   4.349   0.704   4.159  1.0232 -0.6827 -0.7183
 9837TIP3    H150926   4.261   0.730   4.132  0.4022  0.0813  1.7289
 9837TIP3    H250927   4.404   0.779   4.139  0.5853 -0.1463  0.0159
 9838TIP3   OH250928   6.163   2.792  13.484  0.0561 -0.7098 -0.7195
 9838TIP3    H150929   6.075   2.817  13.512 -0.6698 -2.6040 -1.0873
 9838TIP3    H250930   6.205   2.759  13.563 -0.2959 -1.6428 -0.9078
 9839TIP3   OH250931   3.901   5.227   2.109  0.0674 -0.1915 -0.1010
 9839TIP3    H150932   3.867   5.316   2.115  1.9551  0.5170  0.6447
 9839TIP3    H250933   3.897   5.206   2.016 -0.9299  0.4419 -0.2135
 9840TIP3   OH250934   1.513   6.230   0.953  0.7919  0.5703 -0.6563
 9840TIP3    H150935   1.532   6.138   0.973 -1.7288  0.3446  1.3027
 9840TIP3    H250936   1.590   6.261   0.906  2.5727 -2.0048  0.3219
 9841TIP3   OH250937   4.530   3.189  15.463 -0.0906  0.0239 -0.1313
 9841TIP3    H150938   4.538   3.112  15.519  1.5962 -0.6336 -1.1935
 9841TIP3    H250939   4.525   3.263  15.523  0.2023 -0.7684  0.8833
 9842TIP3   OH250940   3.146   2.911   0.632 -0.1577  0.7280  0.4671
 9842TIP3    H150941   3.132   3.004   0.614  0.0728  0.7569  0.4433
 9842TIP3    H250942   3.138   2.904   0.728  0.5375  0.8913  0.5409
 9843TIP3   OH250943   6.245   2.485  16.900  0.3691 -0.4757  0.7828
 9843TIP3    H150944   6.321   2.528  16.861 -0.0685  0.3366  0.7998
 9843TIP3    H250945   6.258   2.493  16.995  0.5827 -0.9126  0.7891
 9844TIP3   OH250946   3.476   1.753  14.336 -0.0888  0.0260 -0.5766
 9844TIP3    H150947   3.531   1.733  14.261  0.7580  0.3875 -0.0712
 9844TIP3    H250948   3.489   1.847  14.350  0.5026 -0.2105  0.5781
 9845TIP3   OH250949   5.503   5.341   0.251 -0.7130  0.1542  0.0369
 9845TIP3    H150950   5.472   5.251   0.236  0.3568 -0.0681 -1.0538
 9845TIP3    H250951   5.468   5.391   0.178 -1.2000  0.6013  0.5750
 9846TIP3   OH250952   5.498   5.842  13.804  0.8720 -0.7849  0.0457
 9846TIP3    H150953   5.424   5.903  13.807  1.2893 -0.3263  1.8472
 9846TIP3    H250954   5.573   5.896  13.781  1.1878 -0.6669  1.3326
 9847TIP3   OH250955   4.069   4.008  16.335 -0.0316  0.0745 -0.2895
 9847TIP3    H150956   4.067   4.041  16.245 -1.8304  0.2876 -0.2040
 9847TIP3    H250957   4.095   4.083  16.388 -1.3094  0.6454 -0.4114
 9848TIP3   OH250958   4.597   3.717   1.149  0.6854 -0.3248  0.0282
 9848TIP3    H150959   4.525   3.674   1.103  0.6538 -2.1704  1.6580
 9848TIP3    H250960   4.639   3.772   1.083 -1.6857  0.1615 -1.1761
 9849TIP3   OH250961   4.967   6.116   1.113 -0.6133 -0.3155  0.1732
 9849TIP3    H150962   4.923   6.197   1.089 -3.0128 -1.3902  0.6537
 9849TIP3    H250963   4.997   6.131   1.203  0.0842  0.4459 -0.1719
 9850TIP3   OH250964   2.225   0.820  12.703  0.0018 -0.8840  0.3864
 9850TIP3    H150965   2.241   0.737  12.657  1.3076  0.4396 -1.7119
 9850TIP3    H250966   2.283   0.816  12.779  1.5927 -1.1191 -0.7756
 9851TIP3   OH250967   0.590   6.015   5.742  0.3290  0.2285  0.2350
 9851TIP3    H150968   0.661   6.025   5.805  0.3348 -0.1932  0.2966
 9851TIP3    H250969   0.510   6.016   5.795  0.3944 -1.4031  0.3943
 9852TIP3   OH250970   5.146   2.725  15.946  0.0121  0.5557  0.5142
 9852TIP3    H150971   5.193   2.694  15.868  1.2451  2.4944  0.4213
 9852TIP3    H250972   5.176   2.667  16.016  0.4273  0.0438 -0.0776
 9853TIP3   OH250973   5.409   3.552  14.913 -0.0548  0.2252 -0.7214
 9853TIP3    H150974   5.315   3.563  14.926 -0.4233 -2.3578 -0.6514
 9853TIP3    H250975   5.440   3.513  14.995  1.2169  1.5480 -0.5361
 9854TIP3   OH250976   3.030   6.159   1.311 -0.0952 -0.4946  0.1498
 9854TIP3    H150977   3.125   6.165   1.323 -0.1261 -0.0575  0.2021
 9854TIP3    H250978   2.995   6.228   1.367 -0.2410  1.6387 -2.3803
 9855TIP3   OH250979   0.947   3.604  14.260 -0.4440 -0.8197 -0.8198
 9855TIP3    H150980   1.035   3.572  14.278  0.4005  1.4831 -0.5124
 9855TIP3    H250981   0.909   3.620  14.346  0.7117  2.7434 -0.7872
 9856TIP3   OH250982   4.181   4.688   6.138  0.2415  0.5756 -0.8200
 9856TIP3    H150983   4.165   4.765   6.193 -0.1118  0.0589 -0.1888
 9856TIP3    H250984   4.107   4.685   6.078  0.5649  1.0718 -1.2521
 9857TIP3   OH250985   6.271   4.339  14.999 -0.3961 -1.1195  0.0477
 9857TIP3    H150986   6.335   4.324  15.068 -0.5866  1.0348  0.7499
 9857TIP3    H250987   6.186   4.343  15.044 -0.4060  1.4491 -0.0584
 9858TIP3   OH250988   1.660   1.750   4.859  0.8081  0.2250  0.2262
 9858TIP3    H150989   1.571   1.763   4.892  0.1084 -2.7681 -0.1203
 9858TIP3    H250990   1.652   1.759   4.764  1.0381  0.7055  0.2519
 9859TIP3   OH250991   1.317   3.988  12.213  0.5243  0.4423  0.2330
 9859TIP3    H150992   1.318   4.073  12.168 -1.1670  0.5237  0.2872
 9859TIP3    H250993   1.318   3.924  12.142  0.3098  0.5312  0.1488
 9860TIP3   OH250994   1.457   5.635   0.389 -0.2540  0.3305 -0.2207
 9860TIP3    H150995   1.511   5.645   0.311  0.5728 -0.6101  0.2006
 9860TIP3    H250996   1.520   5.630   0.461 -0.8980 -0.7102  0.2969
 9861TIP3   OH250997   3.652   5.097   0.254  0.1959  0.0472  0.3108
 9861TIP3    H150998   3.619   5.071   0.168  0.7728  1.2973 -0.3167
 9861TIP3    H250999   3.573   5.123   0.303 -0.0933 -0.3149  0.0442
 9862TIP3   OH251000   3.821   2.050   5.979  0.5445  0.4945 -0.8721
 9862TIP3    H151001   3.734   2.036   5.943 -0.5403  1.7982  1.0357
 9862TIP3    H251002   3.806   2.094   6.063  3.0051 -0.0310 -0.0464
 9863TIP3   OH251003   1.345   1.742  14.045 -0.3429 -0.2883  0.7796
 9863TIP3    H151004   1.274   1.768  13.986  0.8727 -2.1873 -1.7201
 9863TIP3    H251005   1.304   1.681  14.106 -1.3340  0.6101  1.0530
 9864TIP3   OH251006   1.174   0.249  11.893 -0.0712  0.2396 -0.1287
 9864TIP3    H151007   1.217   0.307  11.830  1.7563 -1.1220 -0.2150
 9864TIP3    H251008   1.131   0.309  11.954 -1.3637  1.6056 -2.2417
 9865TIP3   OH251009   2.302   5.074  15.795 -0.1912 -0.6292  0.4417
 9865TIP3    H151010   2.331   5.005  15.735  0.9496  0.7595 -0.6770
 9865TIP3    H251011   2.365   5.072  15.867 -1.5575 -2.2929  1.6784
 9866TIP3   OH251012   2.337   0.265  11.473  0.2412 -0.4168 -0.3920
 9866TIP3    H151013   2.300   0.180  11.499 -0.1713 -0.0785  0.1505
 9866TIP3    H251014   2.287   0.329  11.524  2.6387 -0.0003  1.6503
 9867TIP3   OH251015   3.152   6.131   5.289 -0.2362 -0.1083 -0.0370
 9867TIP3    H151016   3.224   6.191   5.269 -0.4785 -0.1764 -1.1486
 9867TIP3    H251017   3.073   6.182   5.277 -0.4742 -0.7954 -1.6639
 9868TIP3   OH251018   4.857   3.039   1.490 -0.5598  0.5786 -0.5230
 9868TIP3    H151019   4.935   3.094   1.478  0.0479 -0.1902 -0.1908
 9868TIP3    H251020   4.794   3.095   1.534 -0.1807  1.2012 -0.7609
 9869TIP3   OH251021   1.897   5.606  16.839 -0.5257 -0.7023 -0.6244
 9869TIP3    H151022   1.853   5.612  16.923  0.1989 -3.3254  0.0515
 9869TIP3    H251023   1.887   5.692  16.800 -1.0193  0.5667  2.0723
 9870TIP3   OH251024   2.366   3.537  16.497  0.1960 -0.0202 -0.3416
 9870TIP3    H151025   2.355   3.442  16.505 -1.6851  0.3061  1.9754
 9870TIP3    H251026   2.459   3.552  16.512  0.2216 -1.3753  1.1057
 9871TIP3   OH251027   5.645   4.642   1.074  0.2276  0.0411 -0.2765
 9871TIP3    H151028   5.586   4.596   1.014  0.1880  1.1153 -1.0743
 9871TIP3    H251029   5.718   4.581   1.087  0.3076 -0.1566 -1.5355
 9872TIP3   OH251030   6.105   4.291   0.598  0.7653  0.0294 -0.0565
 9872TIP3    H151031   6.180   4.338   0.562  0.7878  0.3804  0.4377
 9872TIP3    H251032   6.031   4.314   0.542  1.2157 -1.1386 -1.1880
 9873TIP3   OH251033   5.332   1.464   1.130 -0.1080 -0.3037 -0.3186
 9873TIP3    H151034   5.276   1.525   1.082  1.3829  1.0336 -0.4513
 9873TIP3    H251035   5.287   1.380   1.123 -2.1937  0.7389 -0.2108
 9874TIP3   OH251036   0.290   1.057  15.084  0.8830  0.2228 -0.0656
 9874TIP3    H151037   0.199   1.030  15.097  1.2351 -0.7615  0.4752
 9874TIP3    H251038   0.311   1.026  14.996  0.5428  0.9412 -0.4124
 9875TIP3   OH251039   4.113   6.693   3.940 -0.2685  0.3301  0.2972
 9875TIP3    H151040   4.157   6.608   3.946  0.2829  0.5252 -0.8174
 9875TIP3    H251041   4.031   6.680   3.988 -0.2551 -0.8762  0.0309
 9876TIP3   OH251042   3.341   0.254   5.370  0.2139  0.3039 -0.0399
 9876TIP3    H151043   3.292   0.267   5.451 -0.3901  0.9270 -0.4975
 9876TIP3    H251044   3.356   0.342   5.336 -0.0289  0.0241 -0.8896
 9877TIP3   OH251045   1.440   2.861   5.090  0.5782  0.3892 -0.1402
 9877TIP3    H151046   1.374   2.802   5.054  1.0918 -1.8822  2.2456
 9877TIP3    H251047   1.523   2.824   5.059  0.9011 -0.1692  1.2945
 9878TIP3   OH251048   5.622   5.964  13.564 -0.1747 -0.0895  0.0944
 9878TIP3    H151049   5.609   6.003  13.477  1.5507  0.6210  0.1074
 9878TIP3    H251050   5.718   5.958  13.573 -0.3517 -1.7626  1.2587
 9879TIP3   OH251051   0.441   0.854  14.526 -0.0106 -0.5539 -0.2519
 9879TIP3    H151052   0.523   0.870  14.479 -0.5022 -0.1821 -1.0036
 9879TIP3    H251053   0.374   0.855  14.458 -0.7974  0.4517  0.5094
 9880TIP3   OH251054   4.308   3.284  16.016 -0.4332  0.1293 -0.1659
 9880TIP3    H151055   4.349   3.339  16.083  1.3891  0.2960 -1.3531
 9880TIP3    H251056   4.219   3.318  16.008 -0.5854  0.3211  1.8963
 9881TIP3   OH251057   4.026   4.493   1.992  0.2383  0.1023 -0.1632
 9881TIP3    H151058   4.022   4.408   1.948 -0.5956  0.2361 -0.3736
 9881TIP3    H251059   4.006   4.474   2.083  0.7422 -0.0130 -0.0733
 9882TIP3   OH251060   3.578   5.476   1.912 -0.3292 -0.3735  0.4750
 9882TIP3    H151061   3.624   5.554   1.944 -0.8850 -0.9837  2.9758
 9882TIP3    H251062   3.645   5.408   1.909  0.2740  0.2512 -2.2192
 9883TIP3   OH251063   6.249   1.360   3.023 -0.3719  0.0261 -0.1852
 9883TIP3    H151064   6.155   1.350   3.031 -0.2417 -1.5672 -0.3832
 9883TIP3    H251065   6.272   1.312   2.943  0.6307  0.2345 -0.0384
 9884TIP3   OH251066   1.120   1.299  17.127  0.5445 -0.0600 -0.6609
 9884TIP3    H151067   1.067   1.222  17.145  2.2615 -1.2015 -0.2450
 9884TIP3    H251068   1.064   1.373  17.149 -0.6382 -1.2140  0.3332
 9885TIP3   OH251069   6.422   2.470   4.788  0.2306 -0.3951 -0.4984
 9885TIP3    H151070   6.441   2.448   4.880  0.0997 -2.7846 -0.9657
 9885TIP3    H251071   6.360   2.542   4.794  1.6463  0.7707  1.2324
 9886TIP3   OH251072   4.258   1.435  15.714  1.0098 -0.6132 -0.1565
 9886TIP3    H151073   4.261   1.518  15.667  0.4751 -0.7967 -0.5194
 9886TIP3    H251074   4.284   1.458  15.804 -2.3306  0.6281  0.6629
 9887TIP3   OH251075   1.739   1.699   3.177 -0.1597  0.6355 -0.0344
 9887TIP3    H151076   1.796   1.741   3.112 -0.6743 -0.3296 -1.1587
 9887TIP3    H251077   1.657   1.682   3.129 -0.6199  0.0652  0.9229
 9888TIP3   OH251078   1.379   6.472   4.141  0.2601  0.2963  0.3952
 9888TIP3    H151079   1.308   6.530   4.169 -1.4219 -0.0887 -2.5904
 9888TIP3    H251080   1.453   6.531   4.127 -1.0809  1.6859 -1.4751
 9889TIP3   OH251081   2.339   2.126  14.113 -0.0030 -0.4604  0.3559
 9889TIP3    H151082   2.269   2.174  14.069  0.5558  0.5986  0.5824
 9889TIP3    H251083   2.372   2.065  14.047 -1.4885 -1.3793  0.4219
 9890TIP3   OH251084   2.964   6.248  16.350 -0.4846 -0.8168 -0.6694
 9890TIP3    H151085   2.881   6.250  16.303 -0.1843 -1.0085 -1.2246
 9890TIP3    H251086   2.996   6.338  16.345 -0.7904 -0.6832 -0.2130
 9891TIP3   OH251087   1.758   1.977   3.089  0.1727  0.1206  0.0163
 9891TIP3    H151088   1.840   1.962   3.137  1.2333  2.4568 -0.8934
 9891TIP3    H251089   1.770   2.063   3.049 -2.7260  0.4806 -0.2427
 9892TIP3   OH251090   2.105   1.795   0.221 -0.3917  0.9397  0.1415
 9892TIP3    H151091   2.034   1.845   0.182 -0.8117 -0.2640 -0.7012
 9892TIP3    H251092   2.062   1.742   0.289 -0.5479 -0.6465 -1.1362
 9893TIP3   OH251093   5.834   5.703   5.956 -0.1346  0.3465  0.3193
 9893TIP3    H151094   5.763   5.754   5.994  0.1754 -0.0622  1.4749
 9893TIP3    H251095   5.912   5.756   5.969 -0.3089  1.2505 -1.8251
 9894TIP3   OH251096   3.364   6.241  11.203  0.1814 -0.0633 -0.5706
 9894TIP3    H151097   3.381   6.164  11.148  1.7766  0.2557 -0.5732
 9894TIP3    H251098   3.268   6.248  11.205  0.0442 -0.9673 -2.0631
 9895TIP3   OH251099   3.264   5.443   3.919  0.0454  0.0392 -0.2156
 9895TIP3    H151100   3.232   5.518   3.870 -0.6013 -0.1579 -0.1094
 9895TIP3    H251101   3.238   5.367   3.866  1.0964 -0.1044 -0.5589
 9896TIP3   OH251102   0.697   3.558   2.916  0.3043 -0.4600 -0.1680
 9896TIP3    H151103   0.667   3.497   2.849  0.2311 -0.6533  0.0411
 9896TIP3    H251104   0.630   3.555   2.984  0.0472  0.2272 -0.3795
 9897TIP3   OH251105   3.477   0.127   0.473 -0.0409  0.0932 -0.1117
 9897TIP3    H151106   3.455   0.167   0.557 -0.9642 -0.5947 -0.0095
 9897TIP3    H251107   3.572   0.131   0.469 -0.0761  1.8964  0.0779
 9898TIP3   OH251108   5.140   3.597   6.582  0.5898  0.1102 -0.5141
 9898TIP3    H151109   5.059   3.548   6.589  1.3983 -1.1551  0.4813
 9898TIP3    H251110   5.157   3.603   6.487 -0.8662  0.8130 -0.7578
 9899TIP3   OH251111   5.763   3.570   2.310  1.1223  0.2286  0.7143
 9899TIP3    H151112   5.776   3.484   2.349  1.0247  0.1338  0.5392
 9899TIP3    H251113   5.721   3.622   2.378  2.1559  0.4607  1.1992
 9900TIP3   OH251114   1.300   0.909   3.622 -0.6530  0.0418  0.3382
 9900TIP3    H151115   1.307   0.828   3.673 -0.1334 -0.2266 -0.1495
 9900TIP3    H251116   1.230   0.958   3.665  0.0129 -0.0109  1.5306
 9901TIP3   OH251117   5.683   1.628   2.426 -0.0678  0.2476 -0.7042
 9901TIP3    H151118   5.613   1.651   2.366  0.8912 -0.1004 -2.0062
 9901TIP3    H251119   5.709   1.539   2.400 -0.7478 -0.6070  1.3345
 9902TIP3   OH251120   6.764   3.694  16.941 -0.0979 -0.5644  0.1460
 9902TIP3    H151121   6.688   3.705  16.884  0.2824  0.8859 -0.1194
 9902TIP3    H251122   6.813   3.622  16.901 -0.9290 -0.9920 -0.1210
 9903TIP3   OH251123   0.946   6.205  10.178  0.2100 -0.7304 -0.1525
 9903TIP3    H151124   0.905   6.288  10.153 -1.8541 -1.8555 -0.7107
 9903TIP3    H251125   0.926   6.196  10.271  1.1790 -0.2066  0.1112
 9904TIP3   OH251126   4.293   2.735   5.045  0.7651 -0.0491  0.0493
 9904TIP3    H151127   4.275   2.642   5.054 -0.3707  0.0835 -0.6721
 9904TIP3    H251128   4.210   2.778   5.067  1.0130  0.7448 -0.5239
 9905TIP3   OH251129   1.100   0.745  14.835  0.0344  0.5389  0.7767
 9905TIP3    H151130   1.071   0.836  14.834 -0.8629  0.2597 -0.4429
 9905TIP3    H251131   1.072   0.709  14.751  0.2564 -0.9101  1.2835
 9906TIP3   OH251132   3.939   2.433   4.690 -0.2087  0.0594  0.5334
 9906TIP3    H151133   3.908   2.416   4.779  0.0715  1.9601  1.0482
 9906TIP3    H251134   4.021   2.482   4.702 -0.3473  0.6601 -0.7509
 9907TIP3   OH251135   1.368   1.887  16.808  0.1619 -0.8496 -0.2620
 9907TIP3    H151136   1.315   1.966  16.824 -1.4948 -2.1824  1.2970
 9907TIP3    H251137   1.424   1.879  16.885 -0.4781 -1.7634  0.1270
 9908TIP3   OH251138   0.929   3.223  14.206  0.1772  0.5500 -0.8888
 9908TIP3    H151139   0.942   3.294  14.269  1.1767  0.7058 -1.2513
 9908TIP3    H251140   0.848   3.181  14.233  1.0712  0.0042  1.0754
 9909TIP3   OH251141   4.798   3.523  13.105  0.0918 -0.0067  0.7103
 9909TIP3    H151142   4.794   3.522  13.200  0.7195  0.5059  0.7513
 9909TIP3    H251143   4.736   3.591  13.079  0.8542  0.7583  0.8298
 9910TIP3   OH251144   3.823   4.676  15.660  0.0161 -0.1197 -0.2506
 9910TIP3    H151145   3.752   4.699  15.719  0.9594  0.4515  0.7124
 9910TIP3    H251146   3.809   4.731  15.583  0.4616  1.4288  0.7273
 9911TIP3   OH251147   1.840   5.181  15.607  0.1555  0.0057 -0.0165
 9911TIP3    H151148   1.930   5.200  15.631  0.1738  0.0743 -0.1375
 9911TIP3    H251149   1.823   5.236  15.531  0.6060 -1.3511 -1.1513
 9912TIP3   OH251150   5.328   3.329   0.333 -0.6206  0.2443 -0.5570
 9912TIP3    H151151   5.305   3.346   0.242  0.6952 -0.5746 -1.0699
 9912TIP3    H251152   5.251   3.285   0.369 -0.9511  0.0906 -1.4249
 9913TIP3   OH251153   2.993   4.158  13.713 -0.0406 -0.4271 -0.3608
 9913TIP3    H151154   2.994   4.183  13.621 -0.3093 -1.2498 -0.6008
 9913TIP3    H251155   2.972   4.238  13.760  2.6567  0.6182 -0.7802
 9914TIP3   OH251156   3.998   6.337  11.641 -0.3140  0.0862 -0.7607
 9914TIP3    H151157   3.937   6.273  11.677 -0.1742  0.2845 -0.1491
 9914TIP3    H251158   4.030   6.385  11.718  0.2417  0.3063 -1.1219
 9915TIP3   OH251159   1.213   6.614  13.981 -0.3571 -0.1512  0.4823
 9915TIP3    H151160   1.274   6.541  13.971  0.1647  0.2424  0.7634
 9915TIP3    H251161   1.211   6.632  14.075  0.2449  0.8007  0.3306
 9916TIP3   OH251162   6.465   5.421  14.928 -0.1726 -0.1399 -0.5834
 9916TIP3    H151163   6.442   5.402  14.837 -0.8980 -0.7419 -0.2865
 9916TIP3    H251164   6.402   5.487  14.955 -1.5661 -1.7314  0.2068
 9917TIP3   OH251165   4.504   3.397   5.146 -0.2811  0.2468 -0.1685
 9917TIP3    H151166   4.420   3.442   5.140 -1.1274 -1.1499  0.5514
 9917TIP3    H251167   4.525   3.397   5.240  0.5027  0.5402 -0.3387
 9918TIP3   OH251168   5.486   2.164   2.708  0.1932 -0.1470 -0.1481
 9918TIP3    H151169   5.574   2.155   2.672  0.1991  0.6442 -0.3443
 9918TIP3    H251170   5.493   2.125   2.796  0.6899 -0.2427 -0.2241
 9919TIP3   OH251171   4.867   3.444   5.570  0.4290  0.6981  0.0443
 9919TIP3    H151172   4.954   3.475   5.593  0.1560  0.4646  1.5084
 9919TIP3    H251173   4.833   3.404   5.650  0.4023 -2.5974 -1.4242
 9920TIP3   OH251174   6.088   2.567   1.097 -0.5824  0.1823 -0.2196
 9920TIP3    H151175   6.155   2.566   1.029 -0.0622  1.4479  0.2444
 9920TIP3    H251176   6.120   2.505   1.163  0.2965  0.9916  0.1331
 9921TIP3   OH251177   2.127   1.547  11.754 -0.2285 -0.1325 -0.2159
 9921TIP3    H151178   2.087   1.559  11.840 -0.3802 -1.2330 -0.1215
 9921TIP3    H251179   2.206   1.602  11.756 -0.6405  0.4535  0.3343
 9922TIP3   OH251180   0.421   3.239   2.219  0.5740  0.0244  0.3346
 9922TIP3    H151181   0.387   3.155   2.251  0.6323 -0.0432  0.2164
 9922TIP3    H251182   0.486   3.265   2.284 -0.4576  0.6716  1.1418
 9923TIP3   OH251183   3.648   6.534   6.107 -0.0567 -0.6407  0.4113
 9923TIP3    H151184   3.684   6.524   6.195  0.1970 -0.3967  0.3341
 9923TIP3    H251185   3.670   6.623   6.082  0.7293 -1.0142 -0.2797
 9924TIP3   OH251186   5.733   1.901   0.295 -0.7380  0.3346 -0.8014
 9924TIP3    H151187   5.809   1.916   0.239  0.8614  1.3377  1.5112
 9924TIP3    H251188   5.662   1.949   0.251  0.5654  1.5346 -1.6870
 9925TIP3   OH251189   1.708   3.645  16.698  0.3443  0.2594 -0.1145
 9925TIP3    H151190   1.794   3.633  16.658  1.6377 -0.3551  2.6574
 9925TIP3    H251191   1.726   3.660  16.790 -2.5717 -1.0669  0.7941
 9926TIP3   OH251192   0.945   5.103  11.684 -0.0847  0.4872  0.6279
 9926TIP3    H151193   0.983   5.088  11.598  0.2060 -0.7743  0.9560
 9926TIP3    H251194   0.994   5.178  11.719 -1.3119  2.0647 -0.9198
 9927TIP3   OH251195   1.944   2.339  11.229  0.4397  0.5338 -0.3036
 9927TIP3    H151196   1.877   2.358  11.294 -0.3780 -0.5358 -0.7837
 9927TIP3    H251197   1.908   2.373  11.147 -0.5275 -1.7911 -0.9543
 9928TIP3   OH251198   5.048   2.580   2.898 -0.3752  0.4496  0.7383
 9928TIP3    H151199   5.124   2.522   2.908 -0.7189 -0.6839 -2.3051
 9928TIP3    H251200   4.973   2.520   2.898 -0.7724  0.8429 -2.0996
 9929TIP3   OH251201   4.314   6.401   4.331 -0.6645 -0.5668 -0.0867
 9929TIP3    H151202   4.390   6.454   4.355  0.4773 -1.4589 -1.5798
 9929TIP3    H251203   4.240   6.463   4.333  0.2477  0.5340  0.4614
 9930TIP3   OH251204   5.813   3.151   0.688  0.2803  0.0890  0.2777
 9930TIP3    H151205   5.746   3.127   0.624 -0.1454  0.4228  0.5946
 9930TIP3    H251206   5.886   3.184   0.635  0.5294 -1.0447 -0.1144
 9931TIP3   OH251207   3.599   0.507   3.976  0.0040 -0.0152  0.4919
 9931TIP3    H151208   3.534   0.571   4.005  0.4862  0.4414  0.5860
 9931TIP3    H251209   3.664   0.505   4.046  0.9123  0.7220 -0.2932
 9932TIP3   OH251210   4.974   5.853   2.997 -0.0206 -0.2784 -0.3448
 9932TIP3    H151211   4.969   5.815   2.910  0.3969 -1.2079  0.0253
 9932TIP3    H251212   4.888   5.892   3.012 -0.8372 -2.0318 -0.3140
 9933TIP3   OH251213   6.058   3.483   3.971  0.5132  0.3765  0.0114
 9933TIP3    H151214   6.042   3.397   3.932  0.4615 -0.2649  1.4128
 9933TIP3    H251215   6.092   3.464   4.058  1.9019  1.7744 -0.1844
 9934TIP3   OH251216   4.257   1.381  12.795 -0.3264  0.2656 -0.0272
 9934TIP3    H151217   4.272   1.286  12.791  0.2287  0.2623  1.4301
 9934TIP3    H251218   4.163   1.391  12.783 -0.6983 -0.6583  1.7581
 9935TIP3   OH251219   1.322   1.637   1.835  0.0716 -0.9692  0.4787
 9935TIP3    H151220   1.290   1.576   1.901 -0.3330 -1.2739 -0.0032
 9935TIP3    H251221   1.349   1.583   1.762  0.0465 -0.5979  0.1894
 9936TIP3   OH251222   1.143   0.960   1.557  0.0498 -0.5166  0.5450
 9936TIP3    H151223   1.111   0.997   1.475 -1.2477 -1.4872  0.5878
 9936TIP3    H251224   1.125   1.026   1.623 -2.6225 -1.2763  0.6930
 9937TIP3   OH251225   2.230   0.136  13.521 -0.5237 -0.2581  0.3107
 9937TIP3    H151226   2.186   0.138  13.606 -1.5300 -0.1923 -0.1978
 9937TIP3    H251227   2.282   0.056  13.523 -1.4941 -0.8984  0.5304
 9938TIP3   OH251228   1.224   4.213  14.130 -0.3833  0.2650  0.3195
 9938TIP3    H151229   1.257   4.229  14.042  0.9813  2.7740  1.1864
 9938TIP3    H251230   1.285   4.149  14.167  0.8424  1.3924  0.3492
 9939TIP3   OH251231   5.731   1.824   6.225  0.3263  0.3861  0.0297
 9939TIP3    H151232   5.655   1.792   6.274 -1.0724  1.7923 -1.1192
 9939TIP3    H251233   5.788   1.747   6.215 -0.4771 -0.4836  1.7070
 9940TIP3   OH251234   0.765   4.648   6.795 -0.0376  0.5238 -0.0213
 9940TIP3    H151235   0.792   4.735   6.825  1.3666  0.0691  0.1187
 9940TIP3    H251236   0.827   4.588   6.837 -1.8978 -0.7095  1.0660
 9941TIP3   OH251237   0.431   1.051  17.035  0.3429  0.6418  0.3649
 9941TIP3    H151238   0.349   1.086  16.999  1.2085  1.9213 -0.4311
 9941TIP3    H251239   0.403   0.983  17.096 -1.4846  3.0434  2.4455
 9942TIP3   OH251240   6.362   3.124   1.356  0.2974  0.1721  0.4499
 9942TIP3    H151241   6.415   3.159   1.285  0.8846  0.0144  0.8021
 9942TIP3    H251242   6.420   3.127   1.433 -0.6276  1.2620  1.1472
 9943TIP3   OH251243   3.900   0.283  15.559 -0.2503 -0.0410  0.2529
 9943TIP3    H151244   3.956   0.218  15.603 -0.5890  0.3874  1.3556
 9943TIP3    H251245   3.961   0.339  15.512  0.1281 -0.5050  0.1779
 9944TIP3   OH251246   3.257   4.493   4.025  0.2083  0.0034  0.0006
 9944TIP3    H151247   3.352   4.487   4.031  0.2478 -0.2724 -0.7370
 9944TIP3    H251248   3.239   4.586   4.010  0.0879  0.7855  3.9868
 9945TIP3   OH251249   5.367   5.372   0.010  0.1212  0.4497  0.0018
 9945TIP3    H151250   5.434   5.316  -0.030  0.3536  0.6787  0.0650
 9945TIP3    H251251   5.284   5.338  -0.023  0.3120  0.7472 -0.8225
 9946TIP3   OH251252   4.211   5.910   3.220  0.0517 -0.2976  0.0516
 9946TIP3    H151253   4.292   5.880   3.177  1.4097  1.3208  1.3420
 9946TIP3    H251254   4.217   6.006   3.219 -1.4033 -0.1598  1.0217
 9947TIP3   OH251255   3.353   4.020  16.789 -0.3913  0.1967  0.1634
 9947TIP3    H151256   3.334   4.019  16.883  3.0765  1.9162  1.0285
 9947TIP3    H251257   3.402   3.939  16.775  1.9445  1.4592  0.6381
 9948TIP3   OH251258   3.359   1.189   2.800  0.4518 -0.0696 -0.2848
 9948TIP3    H151259   3.331   1.103   2.766  0.5353 -0.4079  0.4917
 9948TIP3    H251260   3.334   1.187   2.892  1.1472  0.4535 -0.0860
 9949TIP3   OH251261   1.043   2.536   4.585  0.0524 -0.3719  0.2611
 9949TIP3    H151262   1.054   2.578   4.500 -1.1332  1.0752  0.7759
 9949TIP3    H251263   1.013   2.447   4.565 -1.2223  0.2783 -0.8276
 9950TIP3   OH251264   6.369   2.690   3.723 -0.4463  0.0868  1.0601
 9950TIP3    H151265   6.462   2.704   3.744  0.2199 -1.0092 -0.8971
 9950TIP3    H251266   6.355   2.743   3.644 -1.1349 -0.6992  0.6415
 9951TIP3   OH251267   2.473   6.070  16.747 -0.0490  0.2664  0.1797
 9951TIP3    H151268   2.549   6.125  16.766 -0.5628  1.4861 -1.0955
 9951TIP3    H251269   2.445   6.097  16.660 -0.0600 -2.3919 -0.7378
 9952TIP3   OH251270   5.552   0.040  15.046  0.3837 -0.2081 -0.2056
 9952TIP3    H151271   5.566   0.120  14.996  0.3857 -0.9532 -1.4250
 9952TIP3    H251272   5.476   0.060  15.101  0.3442  0.5994 -0.5318
 9953TIP3   OH251273   3.258   2.510   4.424  0.4349 -0.3091 -0.6066
 9953TIP3    H151274   3.265   2.448   4.497  0.5120  0.8682  0.4173
 9953TIP3    H251275   3.194   2.575   4.453  0.9532  0.5411 -1.3103
 9954TIP3   OH251276   3.720   0.808   4.350 -0.1568  0.2031 -1.0056
 9954TIP3    H151277   3.691   0.887   4.396  1.7160  1.2492 -1.5185
 9954TIP3    H251278   3.715   0.739   4.417  2.0349  1.5834  0.7142
 9955TIP3   OH251279   2.481   4.805  14.369  0.0298  0.7041  0.0916
 9955TIP3    H151280   2.553   4.811  14.432  1.0547  3.3543 -1.1719
 9955TIP3    H251281   2.524   4.807  14.283 -1.3807 -1.7961 -0.7772
 9956TIP3   OH251282   5.638   2.858  12.710 -0.0118  0.1827  0.1854
 9956TIP3    H151283   5.674   2.905  12.635 -1.7462  1.9767  0.3875
 9956TIP3    H251284   5.706   2.866  12.777  1.1218 -0.5482 -0.8316
 9957TIP3   OH251285   1.121   6.203  15.428  0.2934 -0.2316 -0.3795
 9957TIP3    H151286   1.200   6.237  15.386 -0.8906  0.2723 -2.3077
 9957TIP3    H251287   1.100   6.123  15.380 -0.9049  0.1598 -0.5504
 9958TIP3   OH251288   0.750   4.772   1.760  0.6922  0.0413  0.2686
 9958TIP3    H151289   0.655   4.760   1.766  0.8306 -0.6336  1.3005
 9958TIP3    H251290   0.766   4.860   1.794  0.5532 -0.3190  1.2795
 9959TIP3   OH251291   0.543   6.763  11.486 -0.0651  0.1060 -0.9328
 9959TIP3    H151292   0.451   6.789  11.487  0.0794  0.6247 -0.7147
 9959TIP3    H251293   0.545   6.684  11.433 -0.3298  1.3821 -2.9885
 9960TIP3   OH251294   5.691   2.398   0.706 -0.2455 -0.1517  0.3822
 9960TIP3    H151295   5.703   2.452   0.628  1.1615  0.0433  0.7036
 9960TIP3    H251296   5.733   2.448   0.776  0.2796 -1.2434  0.8633
 9961TIP3   OH251297   5.192   5.867   2.186 -0.0763 -0.2525 -0.7379
 9961TIP3    H151298   5.181   5.934   2.119  0.0285 -0.2265 -0.7292
 9961TIP3    H251299   5.275   5.888   2.227 -0.8415  0.6147  0.4170
 9962TIP3   OH251300   0.637   1.046   3.202  0.0848  0.0261 -0.6864
 9962TIP3    H151301   0.654   0.973   3.143 -0.5124 -0.9320  0.2780
 9962TIP3    H251302   0.720   1.094   3.206  0.4054 -0.4363 -1.5435
 9963TIP3   OH251303   4.338   1.103   6.394  0.2314  0.0461 -1.0711
 9963TIP3    H151304   4.397   1.033   6.368 -0.1365  0.2253 -2.4890
 9963TIP3    H251305   4.396   1.172   6.426  0.8327  0.2368 -2.4884
 9964TIP3   OH251306   3.815   4.274   5.611 -0.4394 -0.2377 -0.3472
 9964TIP3    H151307   3.735   4.247   5.566 -0.4337  0.2481 -0.6539
 9964TIP3    H251308   3.786   4.299   5.699 -0.6478  0.0818 -0.5058
 9965TIP3   OH251309   0.466   3.720   0.468  0.2339 -0.5500 -0.1572
 9965TIP3    H151310   0.408   3.644   0.465  1.2321 -1.3744  0.4353
 9965TIP3    H251311   0.513   3.710   0.551  1.7986 -0.3837 -0.9788
 9966TIP3   OH251312   2.911   5.926   1.653 -0.2608  0.2378 -1.0444
 9966TIP3    H151313   2.870   5.944   1.568  0.6127 -1.7688 -1.9766
 9966TIP3    H251314   2.990   5.979   1.653 -0.3453  0.3691 -1.4309
 9967TIP3   OH251315   0.346   6.040   4.739 -0.3631  0.3543 -0.3331
 9967TIP3    H151316   0.257   6.073   4.749 -0.0071  0.6794  3.5149
 9967TIP3    H251317   0.337   5.945   4.742 -0.5498  0.3499  3.2635
 9968TIP3   OH251318   2.848   3.888  13.212  0.0725 -0.2727  0.1634
 9968TIP3    H151319   2.837   3.920  13.301  2.1078 -1.5860  0.9435
 9968TIP3    H251320   2.852   3.967  13.158 -0.8767  0.5432  1.2454
 9969TIP3   OH251321   3.550   0.043  16.649  0.6538  0.3066 -0.3208
 9969TIP3    H151322   3.602  -0.006  16.713 -0.3622 -1.6876 -0.9110
 9969TIP3    H251323   3.575   0.006  16.564 -0.6650  0.2840 -0.7316
 9970TIP3   OH251324   3.243   1.380  13.780 -0.1679 -0.1061  0.3005
 9970TIP3    H151325   3.275   1.414  13.864 -2.9636 -1.2593  2.0008
 9970TIP3    H251326   3.255   1.286  13.786 -2.1511 -0.4115  0.3314
 9971TIP3   OH251327   0.512   6.075  11.773  0.1496  0.2239  0.0535
 9971TIP3    H151328   0.417   6.084  11.779 -0.1069 -1.9206  0.1601
 9971TIP3    H251329   0.544   6.164  11.761 -1.5537  1.5126  3.6457
 9972TIP3   OH251330   1.302   4.469   4.043  0.4086  0.2657 -0.3103
 9972TIP3    H151331   1.265   4.384   4.020 -0.1357 -1.2107  4.7111
 9972TIP3    H251332   1.251   4.532   3.993 -1.0602 -2.2238 -2.1701
 9973TIP3   OH251333   2.310   1.386  14.700 -0.1731  0.0406 -0.0758
 9973TIP3    H151334   2.288   1.478  14.684 -0.1183  0.2556  0.9991
 9973TIP3    H251335   2.243   1.337  14.652 -0.6606  0.6547 -0.0463
 9974TIP3   OH251336   6.052   2.024  14.388  0.2597 -0.4252 -0.3721
 9974TIP3    H151337   6.009   2.040  14.304 -1.1131  0.6039  0.4894
 9974TIP3    H251338   6.095   2.107  14.409 -0.4269 -0.2744  0.5002
 9975TIP3   OH251339   4.561   0.244  13.899 -0.1459  0.4500  0.2647
 9975TIP3    H151340   4.525   0.283  13.819  2.2170  0.2153 -1.0148
 9975TIP3    H251341   4.627   0.307  13.929 -0.2126  0.0052  1.3698
 9976TIP3   OH251342   3.311   2.510  15.654 -0.3313  0.1030 -0.1039
 9976TIP3    H151343   3.349   2.428  15.683  0.6448  1.0552  1.4501
 9976TIP3    H251344   3.217   2.492  15.644 -0.2581 -0.9926  1.0163
 9977TIP3   OH251345   5.669   1.676   5.050  0.3526  0.1445  0.3482
 9977TIP3    H151346   5.599   1.742   5.046 -1.2767 -1.4629  1.0081
 9977TIP3    H251347   5.655   1.623   4.971  0.3923 -0.5831  0.8246
 9978TIP3   OH251348   0.292   5.681  11.762 -0.0444  0.0793 -0.5509
 9978TIP3    H151349   0.240   5.719  11.691 -1.0751  0.4156  0.3532
 9978TIP3    H251350   0.379   5.721  11.752 -0.8702  2.1228 -0.1198
 9979TIP3   OH251351   6.152   2.183  11.085  0.1523 -0.1053  0.1771
 9979TIP3    H151352   6.165   2.224  11.171 -1.2945  0.2837  0.2378
 9979TIP3    H251353   6.150   2.089  11.104  2.3005 -0.1910  0.2008
 9980TIP3   OH251354   3.418   5.841   4.315 -0.6007 -0.1393  0.1374
 9980TIP3    H151355   3.360   5.890   4.257  0.4931  0.1029 -0.7826
 9980TIP3    H251356   3.407   5.883   4.400  0.7684  2.1762 -0.7448
 9981TIP3   OH251357   2.092   5.152  15.379 -0.0682 -0.0720 -0.8241
 9981TIP3    H151358   2.184   5.133  15.395 -0.1409 -0.8584 -1.2794
 9981TIP3    H251359   2.047   5.070  15.402 -0.6441  0.2805 -0.6828
 9982TIP3   OH251360   6.295   3.529  16.503  0.1736 -0.0740  0.6390
 9982TIP3    H151361   6.338   3.456  16.549 -2.0295 -1.0579  1.3122
 9982TIP3    H251362   6.321   3.518  16.412  0.5754 -1.2003  0.8613
 9983TIP3   OH251363   3.761   2.606   1.036 -0.3455  0.0183  0.1513
 9983TIP3    H151364   3.819   2.681   1.051  1.3927 -1.5611  1.9166
 9983TIP3    H251365   3.682   2.626   1.086  0.9107 -0.1286  2.3492
 9984TIP3   OH251366   1.125   4.763  15.449  0.1152  0.3535 -0.2029
 9984TIP3    H151367   1.177   4.736  15.525  1.4593  0.0523 -1.1763
 9984TIP3    H251368   1.191   4.788  15.383 -1.0294  1.9652 -0.7903
 9985TIP3   OH251369   3.298   5.523   5.542 -0.0543 -0.3345 -0.2664
 9985TIP3    H151370   3.223   5.470   5.515 -0.8455  0.1117  0.9607
 9985TIP3    H251371   3.260   5.608   5.564  0.8348 -0.0608  0.2397
 9986TIP3   OH251372   0.368   3.410   4.007 -0.6191 -0.1427 -0.4383
 9986TIP3    H151373   0.389   3.321   3.979 -0.9534 -0.3835  0.0689
 9986TIP3    H251374   0.280   3.404   4.044 -1.2841  0.6936 -1.7774
 9987TIP3   OH251375   0.905   2.520  13.293  0.0275 -0.4346  0.4454
 9987TIP3    H151376   0.900   2.454  13.363  1.4590 -0.6292  0.3914
 9987TIP3    H251377   0.869   2.476  13.216  0.1281 -0.8384  0.6271
 9988TIP3   OH251378   6.040   3.105  14.348 -0.4515  0.0923 -0.1755
 9988TIP3    H151379   5.970   3.164  14.319 -0.4218 -0.3578 -1.1927
 9988TIP3    H251380   6.058   3.049  14.272  0.5524 -0.2430  0.2879
 9989TIP3   OH251381   4.545   6.185  16.748 -0.2407  0.3198  0.1281
 9989TIP3    H151382   4.640   6.179  16.764 -0.0123  2.1040 -0.3021
 9989TIP3    H251383   4.538   6.239  16.669 -1.6459  2.6715  1.7429
 9990TIP3   OH251384   3.254   2.781   1.616  0.2105  0.1292 -1.0737
 9990TIP3    H151385   3.327   2.753   1.672 -0.6469  0.5103  0.2795
 9990TIP3    H251386   3.283   2.864   1.578  1.3467 -0.7921 -2.3165
 9991TIP3   OH251387   2.647   1.773  14.612  0.8659 -0.4920 -0.0471
 9991TIP3    H151388   2.612   1.685  14.620 -0.9995  0.2086  0.0762
 9991TIP3    H251389   2.613   1.805  14.529  0.8221  0.3769  0.2875
 9992TIP3   OH251390   4.880   6.406   0.573 -0.1066  0.2374  0.6778
 9992TIP3    H151391   4.867   6.447   0.487 -0.2417 -0.7563  0.2030
 9992TIP3    H251392   4.827   6.327   0.570  1.2674 -0.7454  1.0002
 9993TIP3   OH251393   6.218   5.141  11.781 -0.4241 -0.3243  0.6458
 9993TIP3    H151394   6.220   5.119  11.688  0.5278 -0.0850  0.5970
 9993TIP3    H251395   6.308   5.125  11.811 -0.6640 -0.1649  1.4683
 9994TIP3   OH251396   0.552   2.480  17.089  0.3901  0.2472  0.3454
 9994TIP3    H151397   0.593   2.395  17.077  1.1525  0.5868  0.5143
 9994TIP3    H251398   0.618   2.544  17.061  0.1388  0.8199  1.0230
 9995TIP3   OH251399   1.783   4.782  10.698 -0.4716  0.4040 -0.8987
 9995TIP3    H151400   1.812   4.847  10.634 -1.4849  0.6754 -1.1082
 9995TIP3    H251401   1.725   4.831  10.757 -1.7211 -0.4137 -1.4051
 9996TIP3   OH251402   3.865   6.477  14.362 -0.5516  0.0378  0.5805
 9996TIP3    H151403   3.911   6.395  14.379 -1.0350  0.0438  2.1077
 9996TIP3    H251404   3.783   6.468  14.410 -0.6166  1.3997  0.7566
 9997TIP3   OH251405   6.748   0.552  15.846 -0.1285  0.5469  0.3100
 9997TIP3    H151406   6.829   0.602  15.833  2.2079 -2.4902  1.9081
 9997TIP3    H251407   6.710   0.545  15.758  0.8848  2.7204 -0.3524
 9998TIP3   OH251408   6.746   6.340  14.141 -0.1392 -0.2897  0.2405
 9998TIP3    H151409   6.813   6.272  14.145  0.1844 -0.0516 -0.7545
 9998TIP3    H251410   6.751   6.384  14.225  0.0185 -1.1421  0.6876
 9999TIP3   OH251411   2.585   2.379  11.948  0.4146 -0.1247  0.0121
 9999TIP3    H151412   2.656   2.404  11.889  0.4551 -0.9822 -0.3209
 9999TIP3    H251413   2.600   2.285  11.964  0.3449  0.0603  1.2999
10000TIP3   OH251414   0.885   5.857   3.164 -0.2084 -1.0922 -0.3087
10000TIP3    H151415   0.947   5.930   3.166 -0.4493 -0.8616 -0.8965
10000TIP3    H251416   0.799   5.899   3.167 -0.3459 -1.3682 -0.3913
10001TIP3   OH251417   5.368   5.428  13.233  0.2896 -0.3817 -0.0620
10001TIP3    H151418   5.299   5.409  13.169  1.5167  0.6472 -1.7927
10001TIP3    H251419   5.414   5.345  13.244 -0.1042 -0.6402 -0.3194
10002TIP3   OH251420   4.413   2.123   3.110  0.1964  0.1228  0.0092
10002TIP3    H151421   4.378   2.040   3.077 -2.1388  0.1642  2.1490
10002TIP3    H251422   4.479   2.098   3.175  1.3899  0.0282 -1.1865
10003TIP3   OH251423   0.641   0.084  12.193  0.3979  0.3840  0.1414
10003TIP3    H151424   0.573   0.070  12.128 -0.1554  3.0761 -0.0034
10003TIP3    H251425   0.706   0.138  12.149  0.9120  0.7265  1.2698
10004TIP3   OH251426   4.793   6.729  13.532  0.0888 -0.0018  0.1696
10004TIP3    H151427   4.745   6.791  13.476  0.1386  0.0199  0.1513
10004TIP3    H251428   4.732   6.709  13.603  0.2642  0.4793  0.4630
10005TIP3   OH251429   3.869   5.323   3.088 -0.3167  0.3437  0.3892
10005TIP3    H151430   3.838   5.315   3.178  3.2464 -1.1618  1.6402
10005TIP3    H251431   3.867   5.233   3.054  0.2981  0.5955 -0.3249
10006TIP3   OH251432   3.645   3.834  11.858  0.5533  0.1400 -0.0587
10006TIP3    H151433   3.650   3.923  11.894 -1.1533  0.2809 -0.1004
10006TIP3    H251434   3.603   3.845  11.773  0.8192 -0.6578 -0.2978
10007TIP3   OH251435   5.944   4.192  16.128 -0.4825 -0.2441 -0.3477
10007TIP3    H151436   5.961   4.139  16.206  1.3716 -0.4920 -0.8758
10007TIP3    H251437   5.959   4.282  16.156  0.8622 -0.3862 -0.5633
10008TIP3   OH251438   2.308   5.888  15.112 -0.0553 -0.4882 -0.4120
10008TIP3    H151439   2.372   5.919  15.048  0.9541  0.7481  1.1507
10008TIP3    H251440   2.262   5.967  15.141  0.0937 -0.9083  1.0275
10009TIP3   OH251441   3.889   5.030   3.830  0.0822 -0.3957  0.0009
10009TIP3    H151442   3.851   4.944   3.852 -2.0401  0.3947 -0.3526
10009TIP3    H251443   3.849   5.090   3.892  1.2820  0.4190  0.0152
10010TIP3   OH251444   4.205   3.020   1.316  0.3098  0.2045 -0.1293
10010TIP3    H151445   4.221   2.929   1.288  1.3310  0.5582 -0.7429
10010TIP3    H251446   4.110   3.028   1.318  0.2074 -0.8570 -0.1637
10011TIP3   OH251447   3.105   3.710  12.040  0.4425  0.1713 -0.2067
10011TIP3    H151448   3.160   3.658  12.099  0.6663  0.9885  0.3141
10011TIP3    H251449   3.019   3.709  12.080  0.6147  0.7991  0.1867
10012TIP3   OH251450   0.770   3.692  11.799  0.1711 -0.3731  0.3247
10012TIP3    H151451   0.762   3.610  11.750  0.3453  0.4744 -1.1467
10012TIP3    H251452   0.862   3.695  11.825  0.3044 -0.3478 -0.1461
10013TIP3   OH251453   3.606   2.362   1.000  0.2300  0.2502  0.0305
10013TIP3    H151454   3.702   2.366   0.993  0.2216 -1.4893 -3.0256
10013TIP3    H251455   3.590   2.321   1.084  2.0849  1.7112  1.1847
10014TIP3   OH251456   2.159   4.759   0.250 -0.2166 -0.2317  0.4586
10014TIP3    H151457   2.232   4.778   0.310  0.7482  1.6969 -1.1918
10014TIP3    H251458   2.201   4.737   0.167 -1.5305 -1.5731  0.1075
10015TIP3   OH251459   0.780   2.107   4.181  0.2963  0.0234 -0.1213
10015TIP3    H151460   0.777   2.196   4.146  1.7026 -0.5612 -1.8991
10015TIP3    H251461   0.695   2.094   4.222 -0.3533  1.8023 -0.8112
10016TIP3   OH251462   5.215   4.500   2.041 -0.4098 -0.3374 -0.1232
10016TIP3    H151463   5.263   4.422   2.014  1.2975  0.4120  0.6122
10016TIP3    H251464   5.283   4.567   2.053 -1.8554  1.3844 -1.1286
10017TIP3   OH251465   2.834   3.455  14.718 -0.1792  0.3804  0.3901
10017TIP3    H151466   2.746   3.427  14.693 -0.3885  1.7828 -0.5546
10017TIP3    H251467   2.821   3.508  14.797 -0.0113 -0.4647  1.0031
10018TIP3   OH251468   1.023   3.180   1.714 -0.0008 -0.0809  0.1167
10018TIP3    H151469   1.026   3.205   1.807 -1.0860 -1.8253  0.6819
10018TIP3    H251470   1.109   3.202   1.680  0.0580  1.6456  1.2317
10019TIP3   OH251471   1.051   6.281  12.261  0.0233  0.0905 -0.5574
10019TIP3    H151472   1.089   6.234  12.187  2.3039  1.4275 -0.3262
10019TIP3    H251473   1.004   6.354  12.221 -1.0380 -0.6837 -0.7696
10020TIP3   OH251474   6.327   3.662   1.489 -0.0258  0.2092  0.0400
10020TIP3    H151475   6.256   3.653   1.552  1.0265 -0.5007  1.1790
10020TIP3    H251476   6.392   3.716   1.533  0.9667 -0.7490 -0.1874
10021TIP3   OH251477   6.389   0.309  12.928 -0.3159  0.6976 -0.4884
10021TIP3    H151478   6.466   0.364  12.914  0.4429  0.6845  2.9283
10021TIP3    H251479   6.318   0.355  12.883  0.8560  2.9539 -0.1486
10022TIP3   OH251480   5.068   5.784   5.719 -0.5140  0.3758  0.1608
10022TIP3    H151481   5.081   5.696   5.682 -1.8160 -0.1370  0.8576
10022TIP3    H251482   4.996   5.821   5.668 -0.4772  0.7384  0.3709
10023TIP3   OH251483   1.963   3.334   3.896 -0.3626  0.0290  0.4536
10023TIP3    H151484   1.882   3.358   3.941 -0.7787 -1.1569  0.3709
10023TIP3    H251485   2.009   3.417   3.883 -1.5161  0.7058  0.5946
10024TIP3   OH251486   0.714   6.671   1.855  0.5623  0.5759 -0.2377
10024TIP3    H151487   0.715   6.762   1.884  1.1332  0.7245 -0.6957
10024TIP3    H251488   0.710   6.676   1.759 -1.4957  0.0989 -0.2392
10025TIP3   OH251489   0.461   0.062  10.685  0.6107  0.3235  0.7236
10025TIP3    H151490   0.401  -0.010  10.662 -0.5286  0.9644  1.5733
10025TIP3    H251491   0.548   0.028  10.663  0.1342 -1.4074  1.3126
10026TIP3   OH251492   0.053   2.691   2.405 -0.1640 -0.0640  0.3861
10026TIP3    H151493   0.062   2.741   2.324  2.3952  1.7433  1.6590
10026TIP3    H251494   0.008   2.750   2.465  1.4520  0.1604  1.4231
10027TIP3   OH251495   3.009   2.860   5.999 -0.0125  0.6737  0.5482
10027TIP3    H151496   3.068   2.801   6.046  0.4517  0.8397  0.1779
10027TIP3    H251497   2.936   2.873   6.059 -0.4332 -0.7821  0.3958
10028TIP3   OH251498   4.039   0.335  11.931 -0.5578 -0.0548 -0.5064
10028TIP3    H151499   4.079   0.422  11.919 -0.1258 -0.1461  0.2217
10028TIP3    H251500   4.106   0.274  11.901 -0.3895 -0.1830  0.1181
10029TIP3   OH251501   3.199   5.423   0.798 -0.2955  0.0903  0.1536
10029TIP3    H151502   3.134   5.481   0.838  0.2298  0.4363  0.5299
10029TIP3    H251503   3.156   5.338   0.793 -0.6962  0.2637  0.6073
10030TIP3   OH251504   2.767   0.331   0.449 -0.0083 -0.9340  0.5347
10030TIP3    H151505   2.709   0.302   0.379 -0.3650  0.7959  0.0863
10030TIP3    H251506   2.709   0.349   0.523 -0.2854  1.8574 -0.2452
10031TIP3   OH251507   1.360   2.348  13.585 -0.0769  0.3345  0.0535
10031TIP3    H151508   1.292   2.293  13.624 -0.2084  1.4043  1.4071
10031TIP3    H251509   1.405   2.387  13.660  1.1660  0.6924 -0.8484
10032TIP3   OH251510   0.875   0.579   0.195 -0.4188 -0.2187  0.3944
10032TIP3    H151511   0.914   0.499   0.229  0.4833 -0.0135 -0.1369
10032TIP3    H251512   0.808   0.549   0.133 -1.9484 -0.5944  2.1144
10033TIP3   OH251513   3.690   4.437  10.694 -0.5189  0.0530  0.1217
10033TIP3    H151514   3.751   4.419  10.765 -0.3439 -1.3256 -0.3423
10033TIP3    H251515   3.734   4.402  10.616 -0.9631  0.9918 -0.5631
10034TIP3   OH251516   6.645   4.380  11.701  0.2672 -0.1128 -0.0650
10034TIP3    H151517   6.684   4.301  11.663 -0.8650 -0.3921 -0.6951
10034TIP3    H251518   6.676   4.452  11.646 -3.3149 -0.7306 -3.3082
10035TIP3   OH251519   0.136   3.800  16.052 -0.5441  0.0090  0.0091
10035TIP3    H151520   0.096   3.714  16.057  1.1180 -0.7920  0.2591
10035TIP3    H251521   0.099   3.839  15.973 -0.9072 -1.1656 -0.4249
10036TIP3   OH251522   1.177   3.317  12.835  0.6804  0.1487  0.2093
10036TIP3    H151523   1.133   3.396  12.804 -0.0698 -0.1912  0.3812
10036TIP3    H251524   1.260   3.316  12.788 -0.2219 -0.1137 -1.4828
10037TIP3   OH251525   4.601   0.623  12.281 -0.2313 -0.3029  0.2408
10037TIP3    H151526   4.607   0.709  12.324 -1.0134  0.2762 -0.7671
10037TIP3    H251527   4.587   0.561  12.353  0.1375  0.4304  0.9641
10038TIP3   OH251528   1.460   3.618  11.490  0.2344  0.1474  0.4507
10038TIP3    H151529   1.508   3.683  11.440 -0.2185  0.8028  0.8518
10038TIP3    H251530   1.491   3.534  11.456  0.1826  0.5716 -0.6722
10039TIP3   OH251531   2.484   1.048   1.741  0.4424  0.1185 -0.3830
10039TIP3    H151532   2.546   0.984   1.706 -0.3460 -1.6154  1.1868
10039TIP3    H251533   2.535   1.100   1.802  0.5750 -0.7151  0.2356
10040TIP3   OH251534   5.530   6.605   1.263  0.6386  0.2321  0.4905
10040TIP3    H151535   5.518   6.530   1.205 -0.9453 -0.4738  1.6578
10040TIP3    H251536   5.616   6.591   1.304  1.1247 -0.0019 -0.5698
10041TIP3   OH251537   6.771   4.835  15.560  0.1295  0.3449  0.3762
10041TIP3    H151538   6.859   4.838  15.598  0.2725 -3.2826  0.6706
10041TIP3    H251539   6.781   4.784  15.480 -1.7593 -0.6449  0.7108
10042TIP3   OH251540   3.974   0.046   6.617  0.3642 -0.4426 -0.2353
10042TIP3    H151541   4.066   0.021   6.623  0.1569 -1.2957 -0.3861
10042TIP3    H251542   3.972   0.138   6.641  1.4024 -0.1203 -1.3017
10043TIP3   OH251543   2.368   0.247   0.861  0.5364 -0.3320 -0.5078
10043TIP3    H151544   2.336   0.264   0.950  1.4899  1.8394 -0.5268
10043TIP3    H251545   2.301   0.283   0.804  1.0929  0.5943 -0.6011
10044TIP3   OH251546   0.116   1.944  12.417 -0.2847 -0.7158  0.2150
10044TIP3    H151547   0.046   1.995  12.458 -0.8353 -1.2963  0.0191
10044TIP3    H251548   0.197   1.989  12.442 -0.6206 -0.8705  1.6563
10045TIP3   OH251549   2.276   4.558   1.709  0.0455 -0.0016  0.0100
10045TIP3    H151550   2.239   4.486   1.760 -0.7024  1.4900  1.6857
10045TIP3    H251551   2.367   4.532   1.695  0.3042 -0.5087  2.1561
10046TIP3   OH251552   5.455   2.279  15.322 -0.4890  0.2508  0.1570
10046TIP3    H151553   5.462   2.318  15.409  0.8465 -0.7949  0.5446
10046TIP3    H251554   5.365   2.245  15.318 -0.1261 -1.0196  1.7273
10047TIP3   OH251555   5.159   1.268  16.804  0.1350  0.3570  0.3036
10047TIP3    H151556   5.229   1.308  16.856 -1.5171  0.2725  2.7520
10047TIP3    H251557   5.128   1.195  16.857 -0.7230 -0.6432 -1.4919
10048TIP3   OH251558   6.617   1.468  15.589  0.5288 -0.2663  0.1677
10048TIP3    H151559   6.646   1.378  15.603 -0.2052 -0.4834  0.3494
10048TIP3    H251560   6.659   1.518  15.658  1.1585 -0.4174 -0.0970
10049TIP3   OH251561   1.561   3.174  13.781  0.4920  0.6467  0.2914
10049TIP3    H151562   1.569   3.232  13.857  1.6860  0.0451  0.6466
10049TIP3    H251563   1.589   3.228  13.707  0.1263  0.9804  0.3932
10050TIP3   OH251564   0.449   2.883   4.602 -0.0180 -0.2668  0.2626
10050TIP3    H151565   0.421   2.795   4.576 -1.8844  0.2564  0.3549
10050TIP3    H251566   0.373   2.920   4.646  0.5170  1.6158 -0.3053
10051TIP3   OH251567   4.913   5.447   3.740 -0.0569  0.0988 -0.8386
10051TIP3    H151568   4.934   5.391   3.665 -0.7268 -2.0198  0.4883
10051TIP3    H251569   4.821   5.470   3.726 -0.5334 -1.2625 -0.1263
10052TIP3   OH251570   1.298   4.418   4.726  0.2471 -0.4463  0.2345
10052TIP3    H151571   1.244   4.478   4.777 -1.0848 -1.4826  0.1249
10052TIP3    H251572   1.251   4.408   4.643  2.8255  1.9129 -1.6681
10053TIP3   OH251573   6.023   1.037  14.676 -0.1657 -0.0970  0.2669
10053TIP3    H151574   6.105   1.085  14.661 -1.5384  2.5726  0.7459
10053TIP3    H251575   5.984   1.029  14.590 -0.0442 -0.1085  0.2127
10054TIP3   OH251576   5.982   5.073   4.340  0.0709  0.6283 -0.0438
10054TIP3    H151577   6.008   5.159   4.374 -0.8168  0.4567  1.1171
10054TIP3    H251578   6.001   5.013   4.412 -2.5343  0.3567  0.4979
10055TIP3   OH251579   2.106   4.006   4.016 -0.5090  0.2198  0.2948
10055TIP3    H151580   2.165   4.049   3.954 -1.4209 -0.3030 -0.9603
10055TIP3    H251581   2.026   3.991   3.967 -1.5469  0.4849  1.8308
10056TIP3   OH251582   3.415   4.318  10.850 -0.1702 -0.2602 -0.3740
10056TIP3    H151583   3.432   4.224  10.849 -0.1516 -0.2891  1.0838
10056TIP3    H251584   3.332   4.328  10.895 -0.4865  0.3891 -1.0798
10057TIP3   OH251585   0.792   3.211   2.993 -0.1329  0.1081 -0.4725
10057TIP3    H151586   0.729   3.203   2.921  0.6335 -0.5929 -1.0813
10057TIP3    H251587   0.846   3.132   2.987  1.5236  1.2083 -0.6760
10058TIP3   OH251588   3.973   0.317   1.088  0.6742  0.2685  0.1357
10058TIP3    H151589   3.947   0.301   1.179 -1.1831 -0.6929 -0.5217
10058TIP3    H251590   3.940   0.405   1.069  0.5720  0.2498  0.2228
10059TIP3   OH251591   3.069   2.848  15.351  0.5630  0.8325  0.2148
10059TIP3    H151592   2.986   2.890  15.329  0.7665  0.8431 -0.5608
10059TIP3    H251593   3.045   2.756  15.367  0.7393  0.1420 -2.8342
10060TIP3   OH251594   1.932   5.363  15.418  0.3025  0.1917  0.3557
10060TIP3    H151595   1.994   5.290  15.411  1.6850  1.2979  0.5178
10060TIP3    H251596   1.982   5.439  15.389 -1.5191  0.8900 -1.1253
10061TIP3   OH251597   4.704   2.948  12.276 -0.1607  0.0971  0.7696
10061TIP3    H151598   4.746   2.994  12.349  0.7556  0.4220  0.0729
10061TIP3    H251599   4.711   3.010  12.203 -1.1204 -0.1905  0.4230
10062TIP3   OH251600   1.693   3.081   4.816 -0.3887 -0.5071 -0.1252
10062TIP3    H151601   1.636   3.005   4.823 -0.1954 -0.5408  1.4221
10062TIP3    H251602   1.781   3.046   4.827 -0.3546  0.0236  1.6711
10063TIP3   OH251603   1.618   4.215  12.815 -0.0224  0.1137  0.2651
10063TIP3    H151604   1.661   4.153  12.756 -2.6319 -0.2190 -1.4622
10063TIP3    H251605   1.591   4.287  12.758 -2.8022 -0.2980  0.9430
10064TIP3   OH251606   1.675   3.063  15.431 -0.9086 -0.2899 -0.2376
10064TIP3    H151607   1.763   3.097  15.417 -1.3172  0.4802 -0.9771
10064TIP3    H251608   1.637   3.056  15.343 -1.9259  0.3150  0.1329
10065TIP3   OH251609   2.317   5.391   1.102  0.0780  0.3247 -0.3094
10065TIP3    H151610   2.290   5.427   1.186 -0.4037 -1.4108  0.3281
10065TIP3    H251611   2.347   5.466   1.052  3.6751  1.1445  2.6022
10066TIP3   OH251612   1.531   0.892   0.771 -0.6774  0.0618 -0.0596
10066TIP3    H151613   1.507   0.811   0.816 -0.0996 -1.3925 -2.2123
10066TIP3    H251614   1.471   0.898   0.697 -0.9759  1.8574  0.2782
10067TIP3   OH251615   4.169   1.418  11.115 -0.9710 -0.6233 -0.0097
10067TIP3    H151616   4.077   1.431  11.091 -1.4315 -1.3040  1.2725
10067TIP3    H251617   4.182   1.323  11.113  0.1860 -0.4764 -1.7481
10068TIP3   OH251618   0.611   2.914  13.685 -0.3025  0.2079 -0.2488
10068TIP3    H151619   0.599   2.934  13.592 -2.2780 -2.2508 -0.6306
10068TIP3    H251620   0.524   2.921  13.723  0.6109  2.1081  1.7265
10069TIP3   OH251621   3.680   4.472   5.406  0.1064  0.0243 -0.1618
10069TIP3    H151622   3.753   4.454   5.346 -0.0454 -0.0315 -0.3326
10069TIP3    H251623   3.664   4.389   5.449  0.4492  0.1531  0.2208
10070TIP3   OH251624   1.967   4.298  14.209  0.7798  0.3272  0.0569
10070TIP3    H151625   2.032   4.366  14.188  3.9724 -1.9131  1.7904
10070TIP3    H251626   1.969   4.239  14.134  0.9263  0.1679  0.1831
10071TIP3   OH251627   4.412   4.264  12.717  0.0278 -0.2962 -0.3754
10071TIP3    H151628   4.467   4.199  12.672  1.1239 -0.0602  0.5794
10071TIP3    H251629   4.474   4.329  12.749 -0.7810 -0.1424  0.9385
10072TIP3   OH251630   5.651   4.075   4.271 -0.2595 -0.4674  0.2293
10072TIP3    H151631   5.736   4.084   4.313  0.5999  1.1953 -1.6724
10072TIP3    H251632   5.603   4.154   4.297 -0.9684 -1.0487  0.7178
10073TIP3   OH251633   3.235   5.948  12.396 -0.3948 -0.1796  0.2469
10073TIP3    H151634   3.282   5.896  12.461 -1.4796 -2.3074 -0.5864
10073TIP3    H251635   3.290   5.944  12.318 -0.8918 -0.8488 -0.0795
10074TIP3   OH251636   6.633   3.552   3.748  0.2120  0.0968  0.6557
10074TIP3    H151637   6.587   3.631   3.776  0.2370  0.0765  0.7518
10074TIP3    H251638   6.564   3.492   3.720  0.1912  0.1385  0.6173
10075TIP3   OH251639   5.615   1.325  10.545  0.6727  0.4236 -0.1441
10075TIP3    H151640   5.541   1.348  10.490  0.9910 -1.5040 -1.4996
10075TIP3    H251641   5.680   1.393  10.528  0.4357  0.3365 -1.5067
10076TIP3   OH251642   5.878   1.132  13.897 -0.0432  0.3928  0.1013
10076TIP3    H151643   5.906   1.042  13.916 -1.6729 -0.3494 -0.7980
10076TIP3    H251644   5.784   1.126  13.885 -0.2348  2.3024  0.3079
10077TIP3   OH251645   2.555   4.120  12.899 -0.1082 -0.2013 -0.3856
10077TIP3    H151646   2.470   4.151  12.929  0.3682  1.7481 -0.8483
10077TIP3    H251647   2.565   4.160  12.812  0.9700 -0.9598 -0.6298
10078TIP3   OH251648   2.019   2.511   4.743  0.1089 -0.8224  0.3589
10078TIP3    H151649   1.946   2.573   4.745  0.0998 -0.6975 -1.6670
10078TIP3    H251650   2.068   2.535   4.664  0.2711 -3.1957 -0.3379
10079TIP3   OH251651   5.548   6.574  15.919 -0.1626  0.1858  0.3191
10079TIP3    H151652   5.497   6.494  15.908  1.4621 -0.7340 -1.0278
10079TIP3    H251653   5.483   6.645  15.922 -1.5380 -1.0176 -0.1860
10080TIP3   OH251654   2.925   3.739  17.101  0.0879  0.0878  0.5788
10080TIP3    H151655   2.964   3.663  17.144 -0.5305 -0.4458  0.2226
10080TIP3    H251656   2.914   3.712  17.010  0.9447  1.0331  0.1723
10081TIP3   OH251657   0.972   1.766  14.322  0.5910 -0.0993  0.0981
10081TIP3    H151658   1.005   1.683  14.290 -1.0937 -0.9248  0.3761
10081TIP3    H251659   0.919   1.801  14.249  0.3197  0.1383  0.4039
10082TIP3   OH251660   2.834   2.035  14.580 -0.4918 -0.1190 -0.0187
10082TIP3    H151661   2.745   2.065  14.598  0.5685  2.5479  1.3624
10082TIP3    H251662   2.869   2.010  14.666  0.6920  0.7656 -0.2154
10083TIP3   OH251663   4.176   2.796   2.354 -0.0876 -0.4410 -0.4097
10083TIP3    H151664   4.198   2.728   2.290 -0.8257 -0.4707 -0.6419
10083TIP3    H251665   4.089   2.826   2.328 -0.3431 -0.3612  0.5000
10084TIP3   OH251666   0.656   6.100   0.661  0.1950 -0.2224 -0.4299
10084TIP3    H151667   0.650   6.080   0.755  0.9461  1.0735 -0.0737
10084TIP3    H251668   0.575   6.065   0.624  0.0127 -1.0175  0.6417
10085TIP3   OH251669   5.516   6.442  12.958  0.1043  0.1997 -0.4630
10085TIP3    H151670   5.518   6.507  12.888  0.2127  0.4231 -0.2507
10085TIP3    H251671   5.601   6.448  13.000  0.0135  0.1133 -0.2640
10086TIP3   OH251672   0.456   2.115   2.580 -0.0497  0.0217 -0.0071
10086TIP3    H151673   0.437   2.206   2.557 -0.1559 -0.3749 -1.5628
10086TIP3    H251674   0.482   2.119   2.672  1.3464  1.8275 -0.4136
10087TIP3   OH251675   0.167   6.534   2.186  0.1437  0.3477 -0.2706
10087TIP3    H151676   0.194   6.495   2.103 -0.8398 -3.0306  0.8240
10087TIP3    H251677   0.090   6.586   2.163  0.2974  0.0407 -1.5824
10088TIP3   OH251678   0.805   5.485  17.197 -0.4594 -0.3503 -0.0636
10088TIP3    H151679   0.819   5.490  17.292  0.2322  0.1125 -0.1762
10088TIP3    H251680   0.797   5.392  17.179  1.2697 -0.6016  0.2284
10089TIP3   OH251681   6.136   4.788   4.234 -0.2796 -0.2909 -0.2180
10089TIP3    H151682   6.089   4.771   4.152  0.8544  1.4145 -1.2784
10089TIP3    H251683   6.219   4.740   4.224 -0.7874 -1.4050  0.6659
10090TIP3   OH251684   4.956   2.035  13.216  0.3458 -0.3070 -0.2602
10090TIP3    H151685   5.000   2.035  13.131  3.3076 -0.4979  1.1269
10090TIP3    H251686   4.964   2.126  13.247  0.1199 -0.4448  0.2136
10091TIP3   OH251687   5.529   6.500   0.230 -0.1300  0.3951 -0.5479
10091TIP3    H151688   5.543   6.471   0.140 -0.0178 -0.5258 -0.2470
10091TIP3    H251689   5.440   6.472   0.251  0.0636  0.0479 -0.1717
10092TIP3   OH251690   2.373   6.269  10.827 -0.0148 -0.3218  0.5705
10092TIP3    H151691   2.427   6.325  10.883 -0.5161 -0.6889  1.4455
10092TIP3    H251692   2.419   6.186  10.824  0.9475  0.2143 -1.0704
10093TIP3   OH251693   5.914   3.600  12.090  0.0288  0.0910  0.2342
10093TIP3    H151694   5.847   3.545  12.049 -1.5853  2.3478 -0.3190
10093TIP3    H251695   5.996   3.554  12.072 -1.1227 -1.5307 -1.2009
10094TIP3   OH251696   6.047   3.101  12.972  0.4064 -0.4667  0.2344
10094TIP3    H151697   6.133   3.129  12.940  1.1418 -1.0382  1.6210
10094TIP3    H251698   5.989   3.175  12.954  1.5734  0.6308  0.8054
10095TIP3   OH251699   1.592   1.701   4.576 -0.2505  0.4877 -0.3387
10095TIP3    H151700   1.586   1.696   4.480 -0.6204 -1.7938 -0.2545
10095TIP3    H251701   1.516   1.753   4.602 -1.3960 -0.6750 -1.2012
10096TIP3   OH251702   4.135   3.681   4.197 -0.0784 -0.4956 -0.1972
10096TIP3    H151703   4.185   3.757   4.168 -0.2976 -0.4858 -0.5542
10096TIP3    H251704   4.052   3.717   4.229 -0.5818 -0.6528 -1.2642
10097TIP3   OH251705   5.767   2.225  11.619  0.0322  0.0735  0.3237
10097TIP3    H151706   5.773   2.276  11.538  1.2828 -1.3094 -0.4889
10097TIP3    H251707   5.857   2.202  11.641 -0.1718  1.1544  2.6508
10098TIP3   OH251708   1.529   2.842   0.224 -0.4438 -0.2821  0.0984
10098TIP3    H151709   1.563   2.813   0.139 -1.2136 -1.7445  0.2468
10098TIP3    H251710   1.494   2.930   0.207  1.3184  0.3324 -0.5638
10099TIP3   OH251711   6.670   5.556  15.663  0.3778  0.0111  0.1660
10099TIP3    H151712   6.589   5.509  15.683 -1.4367  1.9291 -2.0725
10099TIP3    H251713   6.709   5.574  15.748 -1.4995 -1.0672  1.3242
10100TIP3   OH251714   3.516   5.086   3.423  0.0360 -0.1215 -0.4141
10100TIP3    H151715   3.572   5.008   3.430 -1.8736 -1.5925 -0.6828
10100TIP3    H251716   3.512   5.120   3.512 -1.4335 -2.1220  0.3750
10101TIP3   OH251717   6.577   5.226   4.261 -0.6483 -0.0144 -0.1591
10101TIP3    H151718   6.602   5.180   4.181 -0.9141  0.6665 -0.6426
10101TIP3    H251719   6.532   5.305   4.231  0.6422  1.0667  0.6169
10102TIP3   OH251720   4.990   2.945   2.436 -0.1901 -0.4382  0.4454
10102TIP3    H151721   4.918   2.976   2.491 -2.4482 -0.1095 -2.4778
10102TIP3    H251722   4.994   3.008   2.364  2.2503 -1.1651 -0.1317
10103TIP3   OH251723   3.567   3.220  17.175 -0.3751 -0.0509  0.1593
10103TIP3    H151724   3.599   3.175  17.253  0.3222  1.2902  0.6846
10103TIP3    H251725   3.641   3.272  17.145 -1.3006  1.1615 -0.0857
10104TIP3   OH251726   3.448   2.853   4.663  0.2029 -0.1522  0.0175
10104TIP3    H151727   3.403   2.885   4.585  1.6551 -0.0182 -0.7858
10104TIP3    H251728   3.519   2.799   4.630  0.7636 -0.2141  1.2566
10105TIP3   OH251729   0.401   4.974   0.659 -0.1231  0.3283 -0.0521
10105TIP3    H151730   0.377   5.065   0.677 -1.4014 -0.3795  2.2448
10105TIP3    H251731   0.457   4.949   0.732 -0.6986 -1.0311 -0.0559
10106TIP3   OH251732   5.386   4.691  14.311 -0.4633 -0.1508  0.0713
10106TIP3    H151733   5.382   4.698  14.406 -0.7728  2.7256 -0.0534
10106TIP3    H251734   5.475   4.721  14.288 -0.2768 -1.1297 -0.5424
10107TIP3   OH251735   1.427   0.980  16.790 -0.2877  0.5941 -1.0686
10107TIP3    H151736   1.340   0.968  16.829 -1.0240  1.8661 -2.2391
10107TIP3    H251737   1.479   1.018  16.861 -0.9645  0.7480 -0.6361
10108TIP3   OH251738   4.910   4.912  12.947  0.3354 -0.4929  0.0478
10108TIP3    H151739   4.917   4.907  12.851 -1.9955 -1.1226 -0.1463
10108TIP3    H251740   4.904   5.006  12.965 -0.0030 -0.4033 -0.5087
10109TIP3   OH251741   3.537   0.088   6.095 -0.1779 -0.0493  0.5916
10109TIP3    H151742   3.536   0.048   6.182  2.8715 -2.5693 -0.3314
10109TIP3    H251743   3.492   0.026   6.039 -0.8387  0.8623  0.0790
10110TIP3   OH251744   5.710   3.585  12.481 -0.1965 -0.5547 -0.0184
10110TIP3    H151745   5.659   3.666  12.484  0.4123 -0.0316 -2.0173
10110TIP3    H251746   5.692   3.549  12.394  1.2534 -1.3968  0.0041
10111TIP3   OH251747   2.839   5.479   1.630  0.1356 -0.1007 -0.0546
10111TIP3    H151748   2.928   5.446   1.617 -0.5216 -2.0544  0.0615
10111TIP3    H251749   2.826   5.476   1.725 -0.2605 -0.4352 -0.1168
10112TIP3   OH251750   3.931   4.497   3.632  0.5709 -0.1497 -0.5807
10112TIP3    H151751   3.956   4.587   3.652  0.6655 -0.1448 -0.7214
10112TIP3    H251752   3.854   4.506   3.575 -1.0880 -0.1679  1.5325
10113TIP3   OH251753   0.186   3.153  12.983 -0.1829 -0.0565  0.2702
10113TIP3    H151754   0.277   3.156  12.953 -0.2959 -0.0827 -0.0785
10113TIP3    H251755   0.167   3.244  13.010  0.4028 -0.3394  1.7469
10114TIP3   OH251756   0.870   2.178   5.469  0.1049  0.8016  0.4133
10114TIP3    H151757   0.910   2.095   5.443 -0.0437  0.5847  0.8582
10114TIP3    H251758   0.943   2.240   5.472  0.1920  0.7213 -0.0651
10115TIP3   OH251759   4.766   2.176   5.416 -0.4802 -0.2307  0.2906
10115TIP3    H151760   4.831   2.152   5.481  0.0739  1.1593  0.2910
10115TIP3    H251761   4.779   2.270   5.403 -2.3243  0.0372  0.1046
10116TIP3   OH251762   0.255   1.764   2.330  0.4017  0.2978  0.0459
10116TIP3    H151763   0.335   1.808   2.358  1.0153 -0.9924  0.3774
10116TIP3    H251764   0.282   1.709   2.257 -0.3740  0.5345 -0.4310
10117TIP3   OH251765   5.835   6.395  12.893  0.0605  0.4390  0.5302
10117TIP3    H151766   5.828   6.327  12.960 -2.4891  0.7064  0.6339
10117TIP3    H251767   5.815   6.350  12.811  0.6117  0.6356  0.2801
10118TIP3   OH251768   0.559   5.751  10.714  0.2424  0.2918 -0.0840
10118TIP3    H151769   0.537   5.659  10.698 -2.1503  0.7844 -0.0138
10118TIP3    H251770   0.609   5.777  10.636 -0.0127 -0.7754 -0.6259
10119TIP3   OH251771   5.322   6.496  13.152  0.1434  0.5648 -0.8241
10119TIP3    H151772   5.268   6.571  13.128 -3.1840 -1.7174 -1.1827
10119TIP3    H251773   5.364   6.470  13.070 -0.9105  0.4450 -1.3477
10120TIP3   OH251774   5.287   2.452  12.596 -0.5401 -0.1927  0.2252
10120TIP3    H151775   5.339   2.523  12.632  0.8296 -1.3066  0.5435
10120TIP3    H251776   5.226   2.494  12.535 -0.9993  1.4130  1.7331
10121TIP3   OH251777   2.244   4.470  12.411  0.0615 -0.3812  0.0396
10121TIP3    H151778   2.339   4.480  12.419 -0.0212  0.5245  0.0577
10121TIP3    H251779   2.226   4.487  12.318  0.0487 -1.8459 -0.2409
10122TIP3   OH251780   5.739   1.829  13.022 -0.0983  0.4204 -0.2127
10122TIP3    H151781   5.764   1.921  13.010 -0.9462  0.6154 -0.5693
10122TIP3    H251782   5.820   1.785  13.046  0.1387  1.4441  0.9903
10123TIP3   OH251783   6.727   4.605   2.337 -0.0762 -0.5439  0.3732
10123TIP3    H151784   6.812   4.567   2.314  0.7047  0.7861  0.9377
10123TIP3    H251785   6.748   4.671   2.403 -1.5437 -0.1214  0.4419
10124TIP3   OH251786   3.903   1.194   6.558  0.1227  0.2368 -0.1485
10124TIP3    H151787   3.833   1.140   6.521  0.2890  0.1249 -0.3006
10124TIP3    H251788   3.859   1.276   6.581 -0.4250 -0.4179  1.3275
10125TIP3   OH251789   3.932   6.511   5.056 -0.0398  0.0980  0.0912
10125TIP3    H151790   3.853   6.458   5.067  0.9407 -1.3209  0.5915
10125TIP3    H251791   3.931   6.538   4.964 -0.2408 -1.3548 -0.3559
10126TIP3   OH251792   5.608   6.342  15.428 -0.0487 -0.0278  0.2102
10126TIP3    H151793   5.544   6.410  15.409 -2.5749 -1.9854  1.1298
10126TIP3    H251794   5.652   6.372  15.508  0.8936  1.7518 -0.9125
10127TIP3   OH251795   4.820   1.152   3.098 -0.6399  0.1704  0.0293
10127TIP3    H151796   4.735   1.110   3.106 -0.4242  0.0028  1.9419
10127TIP3    H251797   4.838   1.154   3.004 -2.0444 -1.1988 -0.2950
10128TIP3   OH251798   5.456   6.413  17.209 -0.2620  0.1152 -0.8469
10128TIP3    H151799   5.406   6.348  17.160 -1.2824  0.9294 -0.9263
10128TIP3    H251800   5.415   6.497  17.186  0.0068  0.6325  0.4780
10129TIP3   OH251801   6.704   3.964  11.550 -0.1820  0.6488 -0.1274
10129TIP3    H151802   6.722   3.889  11.494  2.1633  1.3593 -0.4701
10129TIP3    H251803   6.739   3.938  11.636  0.7433  1.3440 -0.2753
10130TIP3   OH251804   2.424   2.146  13.524 -0.0050  0.5603 -0.3303
10130TIP3    H151805   2.474   2.065  13.522 -0.5694  0.2074 -0.2983
10130TIP3    H251806   2.432   2.182  13.436 -0.6983 -0.1180 -0.6840
10131TIP3   OH251807   6.643   5.784  13.919 -0.0273  0.3488 -0.4492
10131TIP3    H151808   6.644   5.802  14.013  0.8659  0.2995 -0.4432
10131TIP3    H251809   6.729   5.745  13.901  0.6031  2.1660 -1.6182
10132TIP3   OH251810   5.832   0.200  12.040  0.0560 -0.4950 -0.2469
10132TIP3    H151811   5.762   0.210  11.976  0.5653 -0.0858 -0.7537
10132TIP3    H251812   5.794   0.148  12.110 -0.4622 -1.0948 -0.9636
10133TIP3   OH251813   1.781   5.389   1.215 -0.5325 -0.8520 -0.2560
10133TIP3    H151814   1.868   5.354   1.199 -0.3722 -0.2601 -0.7038
10133TIP3    H251815   1.793   5.452   1.286 -0.4897 -0.3434 -0.7117
10134TIP3   OH251816   2.924   6.337  16.070  0.0777 -0.4304  0.5760
10134TIP3    H151817   2.969   6.357  15.987  0.6067 -0.4980  0.8435
10134TIP3    H251818   2.899   6.245  16.062  1.2913 -0.8208  1.0143
10135TIP3   OH251819   5.234   4.006   0.555  0.2482 -0.0317  0.5736
10135TIP3    H151820   5.300   3.956   0.603  0.3259  0.0391  0.5402
10135TIP3    H251821   5.163   4.019   0.618  0.1385 -0.3594  0.5222
10136TIP3   OH251822   1.540   3.816   0.095 -0.3385  0.5695  0.6216
10136TIP3    H151823   1.626   3.847   0.067 -0.5911  0.7675  0.0396
10136TIP3    H251824   1.480   3.888   0.075 -0.6243  0.4806  1.1336
10137TIP3   OH251825   5.082   4.529  15.435  0.1006 -0.3811  0.2336
10137TIP3    H151826   5.151   4.508  15.373 -0.7055  2.3952 -1.8239
10137TIP3    H251827   5.003   4.535  15.381 -0.6596  2.0688  1.4636
10138TIP3   OH251828   1.750   0.753   0.205  0.3141  0.2834  0.1610
10138TIP3    H151829   1.674   0.758   0.147  0.0900  0.7180  0.4888
10138TIP3    H251830   1.785   0.842   0.206  1.3099 -0.0797 -0.6267
10139TIP3   OH251831   1.898   0.486   1.051  0.0964 -0.3820 -0.0857
10139TIP3    H151832   1.941   0.433   1.118  1.1254 -0.8212 -1.0581
10139TIP3    H251833   1.967   0.546   1.021 -1.0170  1.4986  0.9267
10140TIP3   OH251834   3.028   5.743  16.340 -0.1206 -0.0854  0.2548
10140TIP3    H151835   2.947   5.739  16.390  0.0718  1.7938  0.8206
10140TIP3    H251836   3.036   5.836  16.316  2.2284 -0.0776  0.8442
10141TIP3   OH251837   3.829   3.568  11.676  0.1760  0.0348 -0.6466
10141TIP3    H151838   3.841   3.663  11.675  0.1197  0.0409 -0.7809
10141TIP3    H251839   3.848   3.542  11.766 -0.4009  0.2524 -0.4551
10142TIP3   OH251840   1.994   0.027  16.482 -0.2188  0.1771  0.6105
10142TIP3    H151841   1.998   0.122  16.491 -0.7868  0.2239  0.4602
10142TIP3    H251842   2.085  -0.002  16.479 -0.0357  0.8033 -0.2289
10143TIP3   OH251843   4.882   1.131   1.476  0.4714  0.2401 -0.3833
10143TIP3    H151844   4.946   1.079   1.524 -0.7719 -0.4312  0.5871
10143TIP3    H251845   4.881   1.093   1.388  2.4007  1.1655 -0.8618
10144TIP3   OH251846   2.667   2.806  10.818  0.1132 -0.3149 -0.3235
10144TIP3    H151847   2.667   2.751  10.740  2.9692 -3.2896  1.5171
10144TIP3    H251848   2.754   2.795  10.855 -0.4548  2.5781  2.2656
10145TIP3   OH251849   2.429   3.882  15.833 -0.2130  0.8389 -0.7080
10145TIP3    H151850   2.421   3.959  15.888 -2.0494 -0.2330  0.6774
10145TIP3    H251851   2.345   3.877  15.787  0.1490  0.0443 -1.3116
10146TIP3   OH251852   3.905   4.407  15.275  0.2721 -0.2282 -0.5587
10146TIP3    H151853   3.951   4.363  15.347  0.2436 -0.0505 -0.4312
10146TIP3    H251854   3.868   4.335  15.223 -3.2966 -0.3994  1.8905
10147TIP3   OH251855   4.360   5.308   4.423 -0.2297 -0.1123  0.0996
10147TIP3    H151856   4.335   5.218   4.403  0.1734 -0.4551  1.0746
10147TIP3    H251857   4.349   5.316   4.518  2.7952 -0.1441  0.5545
10148TIP3   OH251858   6.081   2.684   3.725  0.1438  0.0661  0.0401
10148TIP3    H151859   6.056   2.607   3.776  1.8900  0.3901  1.4686
10148TIP3    H251860   6.176   2.679   3.717  0.2100  1.6013 -0.6362
10149TIP3   OH251861   3.374   4.791   3.703  0.1301  0.0901  0.0264
10149TIP3    H151862   3.317   4.721   3.671  2.2819 -1.9368  0.3481
10149TIP3    H251863   3.455   4.783   3.651  0.6382  2.0715  0.3898
10150TIP3   OH251864   2.397   6.324  13.277 -0.1931  0.0779 -0.2388
10150TIP3    H151865   2.483   6.318  13.235  0.2054 -1.0057  0.6654
10150TIP3    H251866   2.348   6.387  13.224  0.8773  0.0807 -1.2586
10151TIP3   OH251867   4.710   1.850  13.184 -0.8460  0.6139 -0.0344
10151TIP3    H151868   4.802   1.878  13.191 -0.7427  0.3460 -0.2929
10151TIP3    H251869   4.667   1.891  13.259 -0.5973  1.0653 -0.1332
10152TIP3   OH251870   2.827   0.839  15.785 -0.1395  0.4852 -0.6516
10152TIP3    H151871   2.873   0.919  15.759 -1.8784  2.9088  2.8464
10152TIP3    H251872   2.889   0.793  15.842 -0.6872  1.9752  1.2617
10153TIP3   OH251873   5.823   2.942  12.931  0.4838 -0.0550  0.2286
10153TIP3    H151874   5.759   3.001  12.971  0.3872 -2.0911  3.5144
10153TIP3    H251875   5.908   2.978  12.956  0.4325 -0.9006  1.7435
10154TIP3   OH251876   5.560   2.595  11.054  0.1873  0.1115  0.5318
10154TIP3    H151877   5.471   2.588  11.018  0.4193 -0.2114  0.0048
10154TIP3    H251878   5.568   2.687  11.079  0.3435  0.5979 -1.1610
10155TIP3   OH251879   0.453   4.896  11.929 -0.0780  0.8090 -0.0254
10155TIP3    H151880   0.518   4.923  11.864 -0.7293  0.9312 -0.6477
10155TIP3    H251881   0.397   4.973  11.939  0.0857  0.8265  0.7709
10156TIP3   OH251882   6.081   4.834  14.663  0.3637  0.2713 -0.2656
10156TIP3    H151883   6.126   4.755  14.693 -0.0752  0.7917  1.9655
10156TIP3    H251884   6.148   4.883  14.615  1.3929 -0.2432  0.5944
10157TIP3   OH251885   4.495   4.723   5.082 -0.7489  0.2936  0.8103
10157TIP3    H151886   4.461   4.799   5.128 -1.7561  0.9144 -0.8979
10157TIP3    H251887   4.580   4.706   5.124 -0.2989  2.5997  0.9853
10158TIP3   OH251888   6.653   3.500   4.220 -1.0713  0.0456  0.0549
10158TIP3    H151889   6.587   3.565   4.198 -0.8654  0.2888  0.1598
10158TIP3    H251890   6.721   3.548   4.266 -0.2235  0.0483 -1.1352
10159TIP3   OH251891   4.214   2.896   5.327  0.0830 -0.1751  0.4554
10159TIP3    H151892   4.237   2.937   5.410  0.7097 -1.7270  1.0731
10159TIP3    H251893   4.125   2.863   5.340  0.7804 -1.8683  1.1093
10160TIP3   OH251894   0.427   2.293  14.335 -0.2161 -0.1099  0.3620
10160TIP3    H151895   0.339   2.318  14.305 -0.3457  0.7569  1.3984
10160TIP3    H251896   0.444   2.351  14.410  1.6198  0.4007 -0.3840
10161TIP3   OH251897   0.862   2.993  14.797  0.1094 -0.0072 -0.1675
10161TIP3    H151898   0.922   2.918  14.799  0.0547 -0.0494  1.3925
10161TIP3    H251899   0.777   2.956  14.822 -0.0449  0.4766  0.0332
10162TIP3   OH251900   1.768   1.361   0.271  0.5129 -0.7361 -0.1029
10162TIP3    H151901   1.754   1.414   0.193 -1.4898  0.1649  0.7777
10162TIP3    H251902   1.683   1.364   0.317  0.8441 -3.2989  0.8421
10163TIP3   OH251903   1.438   5.933   2.078  0.8016  0.4484  0.1847
10163TIP3    H151904   1.457   5.914   1.986  0.5892  0.8408  0.0584
10163TIP3    H251905   1.344   5.918   2.087  0.9138 -0.1342  0.4768
10164TIP3   OH251906   4.854   1.824  16.597 -0.2744  0.0140  0.6303
10164TIP3    H151907   4.878   1.802  16.507  0.9175  1.2664  0.5986
10164TIP3    H251908   4.937   1.818  16.646 -1.0101 -1.2502  1.7978
10165TIP3   OH251909   6.482   2.096  14.841  0.4856 -0.0220 -0.0879
10165TIP3    H151910   6.513   2.023  14.788  1.5704  1.1471 -1.1320
10165TIP3    H251911   6.430   2.055  14.910  0.8525 -1.7470 -0.7801
10166TIP3   OH251912   6.736   2.602   4.885  0.7524 -0.0466  0.5114
10166TIP3    H151913   6.693   2.539   4.827  2.2961  0.7951 -1.7267
10166TIP3    H251914   6.795   2.548   4.938 -2.1852 -1.0968  3.0014
10167TIP3   OH251915   2.520   3.298  11.962 -0.3043 -0.0146  0.2317
10167TIP3    H151916   2.555   3.217  11.926  0.2562  0.0806  0.5494
10167TIP3    H251917   2.444   3.270  12.012 -0.7054 -0.2223 -0.4809
10168TIP3   OH251918   4.326   1.289   0.029  0.3747 -0.2868 -0.0403
10168TIP3    H151919   4.267   1.218   0.003  1.3049 -1.1900  0.2466
10168TIP3    H251920   4.354   1.328  -0.054 -0.8738  0.3884 -0.1712
10169TIP3   OH251921   1.365   4.103   3.772  0.4125  0.7588 -0.5757
10169TIP3    H151922   1.295   4.096   3.836  0.7137 -0.0111 -0.3262
10169TIP3    H251923   1.323   4.086   3.688  0.3646 -0.0617 -0.3904
10170TIP3   OH251924   0.498   2.039  16.088  0.4155  0.0289 -0.1529
10170TIP3    H151925   0.509   1.991  16.170  1.6015  0.6072  0.0528
10170TIP3    H251926   0.563   2.109  16.093 -0.0644  0.5627 -1.2302
10171TIP3   OH251927   1.494   2.932   2.232 -0.2829  0.2058  0.3317
10171TIP3    H151928   1.461   2.846   2.260 -1.6464  0.3171 -0.8073
10171TIP3    H251929   1.589   2.924   2.234 -0.3901 -1.0634  1.0470
10172TIP3   OH251930   0.282   4.341  16.465  0.8645 -0.1004 -0.4640
10172TIP3    H151931   0.323   4.258  16.493  1.1541  0.1610 -0.1052
10172TIP3    H251932   0.206   4.350  16.522  0.8521 -0.1029 -0.4802
10173TIP3   OH251933   4.278   3.466  13.707 -0.2103 -0.0487  0.6399
10173TIP3    H151934   4.239   3.498  13.626 -0.5944 -2.4347 -0.2013
10173TIP3    H251935   4.309   3.545  13.752  0.2998  1.3352 -1.9594
10174TIP3   OH251936   0.078   3.602   1.640 -0.2113 -0.1265  0.5636
10174TIP3    H151937   0.150   3.541   1.652 -0.0227 -0.2735 -1.0985
10174TIP3    H251938   0.106   3.682   1.684 -0.4992 -1.1924  2.8418
10175TIP3   OH251939   0.029   2.708   0.193 -0.3777  0.5779  0.3848
10175TIP3    H151940   0.067   2.655   0.123 -1.2837 -1.1946  1.1720
10175TIP3    H251941   0.060   2.797   0.176  0.1044  0.0385 -1.7596
10176TIP3   OH251942   5.785   5.790   1.526  0.7121 -0.7232  1.0175
10176TIP3    H151943   5.800   5.881   1.554 -0.2288 -0.1784 -0.1510
10176TIP3    H251944   5.692   5.775   1.543  0.2897 -0.6298 -0.9898
10177TIP3   OH251945   5.004   0.344  14.157  0.1863  0.0935 -0.6114
10177TIP3    H151946   5.097   0.365  14.165  0.7233 -2.5522  1.2082
10177TIP3    H251947   4.959   0.417  14.200  1.6732 -0.2175  1.6455
10178TIP3   OH251948   5.750   4.797  11.089  0.3573  0.8005 -0.4916
10178TIP3    H151949   5.834   4.756  11.069  1.0602  0.2868  2.9596
10178TIP3    H251950   5.686   4.725  11.085  1.1156 -0.1919  2.5724
10179TIP3   OH251951   2.311   4.732  13.186 -0.4653 -0.4279 -0.1531
10179TIP3    H151952   2.332   4.675  13.112  1.8905  0.8341 -0.5424
10179TIP3    H251953   2.248   4.794  13.151  1.0190  0.4800 -1.3065
10180TIP3   OH251954   2.402   3.210   5.522 -0.6123 -0.1575  0.1499
10180TIP3    H151955   2.475   3.178   5.574  0.0110  1.2992  0.2187
10180TIP3    H251956   2.349   3.261   5.583 -2.5056 -2.3045  0.4477
10181TIP3   OH251957   2.902   1.327  16.482  0.2475 -0.0263  0.5989
10181TIP3    H151958   2.981   1.354  16.529  1.0368  0.1159 -0.7632
10181TIP3    H251959   2.831   1.372  16.527  1.3477  3.3492 -0.7043
10182TIP3   OH251960   5.448   4.764  14.573 -0.2687 -0.5882  0.1956
10182TIP3    H151961   5.416   4.683  14.612  0.4686 -0.7644  0.4661
10182TIP3    H251962   5.541   4.747  14.555  0.0670  0.4062  0.8580
10183TIP3   OH251963   3.925   2.235   4.979 -0.1096 -0.1304  0.0335
10183TIP3    H151964   3.874   2.307   4.943  2.2017  1.1000 -1.0151
10183TIP3    H251965   3.860   2.169   5.003 -2.1649  1.3991 -0.9995
10184TIP3   OH251966   2.854   1.026  12.062 -0.2740  0.0473  0.7171
10184TIP3    H151967   2.861   1.036  12.157 -2.1623  0.5205  0.8452
10184TIP3    H251968   2.766   1.057  12.041  0.5471  1.1524 -1.3612
10185TIP3   OH251969   6.682   3.589   6.653  0.4971  0.1565 -0.7341
10185TIP3    H151970   6.619   3.554   6.716  0.4370  0.7603 -0.4485
10185TIP3    H251971   6.765   3.592   6.702  0.4535  0.6145 -0.6816
10186TIP3   OH251972   4.859   3.497   2.099  0.0280  0.3678 -0.0841
10186TIP3    H151973   4.812   3.444   2.161  2.8974 -2.3949 -0.0183
10186TIP3    H251974   4.798   3.510   2.026 -2.5077  1.5581  2.0825
10187TIP3   OH251975   2.465   1.965   5.763  0.0570  0.7100  0.4952
10187TIP3    H151976   2.371   1.978   5.756  0.1789  1.6767  0.4774
10187TIP3    H251977   2.478   1.917   5.845 -0.3166  2.1993  1.4515
10188TIP3   OH251978   3.369   1.432  12.039  0.1683 -0.1293 -0.3196
10188TIP3    H151979   3.320   1.514  12.040 -0.0038 -0.2143  1.0926
10188TIP3    H251980   3.310   1.369  11.998  0.2117  0.3875 -1.1980
10189TIP3   OH251981   3.753   1.914  13.410 -0.6418 -0.1494 -0.0198
10189TIP3    H151982   3.710   1.868  13.482  0.3431  0.5244  1.0336
10189TIP3    H251983   3.716   1.874  13.331 -1.5889 -1.0586  0.8433
10190TIP3   OH251984   1.690   4.493  16.678  0.6630  0.1721  0.3389
10190TIP3    H151985   1.676   4.427  16.611  1.2675 -0.0308  0.4043
10190TIP3    H251986   1.678   4.577  16.633  2.1943  0.0740 -0.3247
10191TIP3   OH251987   3.380   0.915  15.388 -0.3983 -0.3496 -0.1208
10191TIP3    H151988   3.326   0.989  15.413  0.8080  0.2244  0.9039
10191TIP3    H251989   3.469   0.940  15.413  0.1227 -1.9160 -0.2539
10192TIP3   OH251990   3.719   0.781   0.551  0.0552 -0.5525 -0.7561
10192TIP3    H151991   3.634   0.755   0.515  0.8702  0.4905 -3.7435
10192TIP3    H251992   3.734   0.869   0.518  1.4588  0.0953  1.3832
10193TIP3   OH251993   6.401   1.432   2.494  0.4057  0.0556 -0.6637
10193TIP3    H151994   6.311   1.462   2.498  0.3910 -0.1151  0.8327
10193TIP3    H251995   6.450   1.498   2.543  0.4150 -2.0608  2.4750
10194TIP3   OH251996   5.752   0.220   3.203  0.6128 -0.8101 -0.3242
10194TIP3    H151997   5.673   0.242   3.253  1.7092  1.2007  0.6749
10194TIP3    H251998   5.822   0.217   3.268  1.3305 -3.0961 -1.1073
10195TIP3   OH251999   0.820   5.782   5.036 -0.2926 -0.5724 -0.3893
10195TIP3    H152000   0.760   5.713   5.007 -0.4344 -0.7611  0.3393
10195TIP3    H252001   0.774   5.826   5.107 -0.0410  0.0290 -0.5952
10196TIP3   OH252002   5.911   2.974   5.293 -0.1912 -0.1077 -0.6600
10196TIP3    H152003   5.831   3.026   5.285 -0.2935 -0.2894 -0.8265
10196TIP3    H252004   5.889   2.904   5.354 -0.0943 -0.0360 -0.5418
10197TIP3   OH252005   1.373   4.205  16.084 -0.6335  0.3513 -0.6169
10197TIP3    H152006   1.377   4.215  16.179  0.6686 -1.6171 -0.4198
10197TIP3    H252007   1.443   4.261  16.051 -0.8037  0.6918 -0.4140
10198TIP3   OH252008   1.928   3.591  14.922 -0.0663  0.1723 -0.1808
10198TIP3    H152009   1.874   3.644  14.980 -0.7164 -0.5578 -0.1027
10198TIP3    H252010   1.918   3.632  14.836 -1.3837 -0.4030 -0.3224
10199TIP3   OH252011   3.177   0.591  13.473  0.0044  0.5078  0.2539
10199TIP3    H152012   3.157   0.527  13.541  2.5610  0.8759  1.4880
10199TIP3    H252013   3.203   0.670  13.520  0.5550  1.2175 -1.1622
10200TIP3   OH252014   6.726   5.104  14.019  0.0950 -0.7705  0.4108
10200TIP3    H152015   6.702   5.047  13.945 -0.8989 -0.5512  0.5502
10200TIP3    H252016   6.815   5.077  14.041 -0.8678 -3.4293  1.4940
10201TIP3   OH252017   1.389   1.161   3.104  0.5150 -0.2089 -0.3059
10201TIP3    H152018   1.409   1.206   3.022  1.0259  1.8257  0.8551
10201TIP3    H252019   1.472   1.161   3.152 -0.1085 -0.0306  0.8062
10202TIP3   OH252020   3.827   5.126   0.927  0.3250 -0.4247  0.2287
10202TIP3    H152021   3.764   5.198   0.925  1.1936  0.3317 -0.7896
10202TIP3    H252022   3.804   5.072   0.852  0.2214 -0.7457  0.4875
10203TIP3   OH252023   5.396   2.023  13.555 -0.2618 -0.0208  0.3228
10203TIP3    H152024   5.378   2.092  13.619  2.3462  0.4136  0.7143
10203TIP3    H252025   5.469   1.973  13.593 -0.3402 -1.3609 -1.1561
10204TIP3   OH252026   4.363   2.245  11.162 -0.1378  0.0288 -0.0168
10204TIP3    H152027   4.362   2.308  11.090 -0.0875 -1.8723 -1.7905
10204TIP3    H252028   4.433   2.183  11.139 -2.3891 -2.6511 -0.2532
10205TIP3   OH252029   1.984   0.251  14.963 -0.4070  0.7692  0.3013
10205TIP3    H152030   2.048   0.188  14.927 -0.9451  0.3291  0.1060
10205TIP3    H252031   1.934   0.201  15.026 -0.5715  1.1147  0.4472
10206TIP3   OH252032   2.381   5.774   3.170  0.1086 -0.3982  0.1782
10206TIP3    H152033   2.416   5.729   3.094  0.5515  1.7185 -0.9648
10206TIP3    H252034   2.294   5.804   3.143 -1.2221 -2.5647  1.7662
10207TIP3   OH252035   0.056   1.946   2.218  0.0798  0.4965  0.0065
10207TIP3    H152036   0.103   1.892   2.282  3.4365  1.9934 -0.9772
10207TIP3    H252037   0.041   1.888   2.144  3.4689  0.6428 -0.9603
10208TIP3   OH252038   4.447   3.671   4.802  0.2640 -0.0821 -0.2094
10208TIP3    H152039   4.433   3.750   4.750  0.0585  1.9871  2.7878
10208TIP3    H252040   4.541   3.671   4.821  0.2654 -0.5748 -0.2008
10209TIP3   OH252041   1.641   0.370  13.365 -0.4274 -0.0763  0.2707
10209TIP3    H152042   1.624   0.277  13.351 -0.0246  0.0708 -1.4422
10209TIP3    H252043   1.606   0.412  13.287  0.8581  1.0304  0.2642
10210TIP3   OH252044   1.582   0.563   4.704  0.2177  0.3491 -0.0297
10210TIP3    H152045   1.611   0.624   4.635 -1.2594 -0.0871 -1.0953
10210TIP3    H252046   1.544   0.490   4.655  1.6152 -1.2893  1.2279
10211TIP3   OH252047   5.323   3.623   4.998 -0.0583 -0.0322 -0.3517
10211TIP3    H152048   5.303   3.624   5.091 -1.6986  1.2041 -0.6747
10211TIP3    H252049   5.322   3.530   4.975 -1.0820 -0.2811  0.5912
10212TIP3   OH252050   4.055   2.779  16.506  0.0437 -0.1172 -0.1298
10212TIP3    H152051   3.969   2.820  16.503 -0.9804 -1.8541  2.2156
10212TIP3    H252052   4.068   2.743  16.419 -1.5048  0.3617 -0.5801
10213TIP3   OH252053   3.242   0.305   2.131  0.0286 -0.5005  0.0102
10213TIP3    H152054   3.221   0.363   2.057 -1.6134 -0.9440  0.0835
10213TIP3    H252055   3.326   0.337   2.163 -0.4045  1.3037 -0.4924
10214TIP3   OH252056   5.096   1.730  14.739 -0.1524  0.1582 -0.2802
10214TIP3    H152057   5.113   1.754  14.830 -0.9252  0.4094 -0.1883
10214TIP3    H252058   5.022   1.668  14.744  0.3215 -0.4563 -0.6828
10215TIP3   OH252059   2.931   1.073  12.692  0.1359  0.0226  0.4045
10215TIP3    H152060   2.874   1.109  12.760  2.2116  1.5124  1.4735
10215TIP3    H252061   2.968   1.150  12.649  0.3148 -0.9050 -1.1883
10216TIP3   OH252062   3.891   4.351  14.100  0.2676  0.5456 -0.2852
10216TIP3    H152063   3.853   4.319  14.182  1.2793 -1.4771 -0.5306
10216TIP3    H252064   3.984   4.363  14.120 -0.0424  3.4672 -0.2365
10217TIP3   OH252065   0.722   0.825  13.543 -0.0417 -0.2259 -0.2915
10217TIP3    H152066   0.657   0.890  13.571  1.3577  0.9512  0.3575
10217TIP3    H252067   0.713   0.754  13.606 -1.7623 -0.8314 -1.1493
10218TIP3   OH252068   0.215   5.579  14.511 -0.0723 -0.1008 -0.2191
10218TIP3    H152069   0.276   5.505  14.521  1.5136  1.2651  0.7668
10218TIP3    H252070   0.148   5.563  14.577  1.3009  0.2694  1.3318
10219TIP3   OH252071   1.265   2.997  11.965  0.2372  0.4226 -0.1785
10219TIP3    H152072   1.295   2.980  12.054  0.5241  2.8213  0.2676
10219TIP3    H252073   1.189   3.054  11.976 -0.5785 -0.3791 -1.4608
10220TIP3   OH252074   2.588   0.325  14.241  0.5021  0.5336 -0.3868
10220TIP3    H152075   2.533   0.247  14.252  0.1012  0.5298 -2.1123
10220TIP3    H252076   2.676   0.295  14.263  0.2764 -0.2810 -0.5496
10221TIP3   OH252077   3.316   4.948  15.740  0.1193 -0.2157  0.1296
10221TIP3    H152078   3.301   4.955  15.834 -2.2050 -0.3213 -0.1811
10221TIP3    H252079   3.360   5.030  15.716 -1.7145  1.0708  0.9108
10222TIP3   OH252080   2.083   2.606  12.868  0.3591  0.0370  0.0705
10222TIP3    H152081   2.163   2.659  12.872  1.8807 -2.0371 -0.8892
10222TIP3    H252082   2.085   2.553  12.948 -1.2286  1.4526  1.1007
10223TIP3   OH252083   4.254   1.790  13.048  0.7494 -0.5315 -0.3802
10223TIP3    H152084   4.299   1.872  13.073  0.3225  0.0583 -1.4715
10223TIP3    H252085   4.231   1.749  13.131  1.7452  0.0248  0.1945
10224TIP3   OH252086   1.840   2.953  13.165  0.5326  0.4295  0.3911
10224TIP3    H152087   1.903   3.025  13.170 -1.3882  2.0996  2.1871
10224TIP3    H252088   1.770   2.978  13.226 -0.4488 -2.7574  0.7268
10225TIP3   OH252089   0.880   3.525   5.693 -0.2255  0.8838 -0.4705
10225TIP3    H152090   0.826   3.579   5.752  0.6309  0.9935  0.2233
10225TIP3    H252091   0.930   3.468   5.752  0.8698  1.2089 -1.0662
10226TIP3   OH252092   2.092   4.209  14.532  0.0418  0.3913  0.1357
10226TIP3    H152093   2.181   4.208  14.498  0.2772  0.0390  0.7442
10226TIP3    H252094   2.036   4.211  14.454  0.5572 -0.9033 -0.2962
10227TIP3   OH252095   4.324   3.478  14.159  0.0897 -0.8019 -0.3798
10227TIP3    H152096   4.370   3.400  14.188 -1.0441 -0.9467  1.1420
10227TIP3    H252097   4.288   3.455  14.073  1.1604 -1.3521 -0.6880
10228TIP3   OH252098   3.858   5.973   2.136 -0.0497  0.0658  0.0422
10228TIP3    H152099   3.847   5.936   2.224  1.2305 -1.4744 -0.3892
10228TIP3    H252100   3.873   6.066   2.151  0.8842 -0.2857  1.5556
10229TIP3   OH252101   3.728   5.052  13.147 -0.0028  0.2714 -0.0587
10229TIP3    H152102   3.712   4.961  13.121 -0.8343  0.7304 -1.2459
10229TIP3    H252103   3.747   5.047  13.241 -2.4168 -0.8998  0.4627
10230TIP3   OH252104   2.724   0.188   3.440  0.6745  0.5272 -0.0470
10230TIP3    H152105   2.726   0.093   3.448 -0.0646  0.6493  2.6328
10230TIP3    H252106   2.808   0.217   3.475  0.7540  0.8791 -0.5193
10231TIP3   OH252107   0.191   3.969  15.607  0.2331 -0.2890  0.0983
10231TIP3    H152108   0.238   3.997  15.528 -2.6366 -1.3527 -2.1484
10231TIP3    H252109   0.173   4.051  15.654  0.2150  0.6407 -1.4396
10232TIP3   OH252110   5.699   3.834  13.672  0.0197 -0.1014  0.0669
10232TIP3    H152111   5.634   3.877  13.728 -0.3617 -1.9715  1.1640
10232TIP3    H252112   5.713   3.749  13.714  3.5433  0.3851  0.1735
10233TIP3   OH252113   4.958   3.042  14.599 -0.4378  0.4728  0.5433
10233TIP3    H152114   5.008   3.112  14.556  0.7174  0.0162  1.1289
10233TIP3    H252115   4.931   3.080  14.682  0.4466  0.1396  0.9939
10234TIP3   OH252116   5.519   5.220  10.798 -0.7339 -0.0077  0.0542
10234TIP3    H152117   5.590   5.243  10.738 -0.8927  0.9606  0.2277
10234TIP3    H252118   5.563   5.179  10.872 -0.2675  1.2475  0.4944
10235TIP3   OH252119   2.649   1.981   5.231 -0.0253 -0.5309 -0.6954
10235TIP3    H152120   2.576   2.022   5.277 -0.9032 -1.8894 -0.8276
10235TIP3    H252121   2.610   1.908   5.184  1.7316 -2.8026  1.1016
10236TIP3   OH252122   3.541   1.903   5.632 -0.1655  0.5107 -0.1865
10236TIP3    H152123   3.608   1.846   5.670  0.4289  1.0778 -0.3576
10236TIP3    H252124   3.589   1.961   5.573 -0.7995  0.9701 -0.2671
10237TIP3   OH252125   1.944   1.622  15.435  0.6139  0.0437 -0.0578
10237TIP3    H152126   2.026   1.666  15.456  0.6004 -0.0609  0.2327
10237TIP3    H252127   1.917   1.583  15.519  1.8186 -2.5315 -0.7742
10238TIP3   OH252128   6.054   2.555  12.056  0.0178 -0.3426  0.3963
10238TIP3    H152129   6.061   2.466  12.093  1.7206 -0.1944  0.4737
10238TIP3    H252130   6.116   2.556  11.984  2.5808  1.7412  2.4222
10239TIP3   OH252131   5.605   0.747   3.939  0.0992  0.1248  0.0481
10239TIP3    H152132   5.588   0.673   3.998  0.2243  0.9552  1.1709
10239TIP3    H252133   5.700   0.748   3.928  0.2353  0.8608  1.0871
10240TIP3   OH252134   1.317   3.435  15.482  0.8931  0.4325  0.0682
10240TIP3    H152135   1.395   3.470  15.440  0.7421 -1.4702 -2.0137
10240TIP3    H252136   1.287   3.366  15.422 -0.4037 -1.2512  2.4995
10241TIP3   OH252137   1.473   0.398  11.217  0.1546 -0.1791  0.1404
10241TIP3    H152138   1.511   0.485  11.230 -0.6844  0.1903  0.1870
10241TIP3    H252139   1.395   0.398  11.272 -1.0831 -0.1518 -1.5458
10242TIP3   OH252140   5.926   3.270  17.053 -0.0397 -0.3135 -0.7496
10242TIP3    H152141   5.943   3.239  16.964  0.3700 -0.9340 -0.4555
10242TIP3    H252142   6.009   3.261  17.099  0.2172  1.5907 -0.7517
10243TIP3   OH252143   3.388   3.170  15.573 -0.2360  0.1203  0.0392
10243TIP3    H152144   3.435   3.091  15.599 -0.5072 -0.4673 -1.1863
10243TIP3    H252145   3.304   3.138  15.540 -1.2137  1.0933  1.4549
10244TIP3   OH252146   4.730   2.110   2.906  0.2915 -0.1654  0.4240
10244TIP3    H152147   4.738   2.118   3.001  2.0352 -0.7207  0.3680
10244TIP3    H252148   4.810   2.064   2.880 -0.0866  0.1161 -1.3255
10245TIP3   OH252149   2.672   6.383   4.303 -0.5738 -0.1221  0.3216
10245TIP3    H152150   2.625   6.384   4.220 -0.6484  1.7663  0.3468
10245TIP3    H252151   2.739   6.316   4.292 -0.0511  0.6398 -1.5851
10246TIP3   OH252152   5.534   0.560  12.721 -0.3141  0.2155 -0.7010
10246TIP3    H152153   5.472   0.620  12.679  1.4364  2.2034 -0.6076
10246TIP3    H252154   5.619   0.604  12.716  0.8285 -1.6168  0.6997
10247TIP3   OH252155   0.943   2.691  16.082  0.2946  0.2731 -0.8059
10247TIP3    H152156   0.987   2.613  16.049  0.2235  0.1058 -0.5110
10247TIP3    H252157   0.953   2.685  16.177  1.1365  1.1160 -0.8197
10248TIP3   OH252158   3.459   0.114   2.411 -0.0246 -0.0968  0.3043
10248TIP3    H152159   3.456   0.207   2.435  0.1489  0.1862 -0.7023
10248TIP3    H252160   3.373   0.080   2.435 -0.8943  0.8567 -1.2916
10249TIP3   OH252161   6.728   0.370   0.023 -0.6154  0.3984  0.3606
10249TIP3    H152162   6.731   0.390  -0.070 -0.7033  1.8600  0.6594
10249TIP3    H252163   6.715   0.275   0.026 -1.2976  0.4131 -1.1201
10250TIP3   OH252164   6.177   0.370  16.617 -0.2661 -0.2984  0.2258
10250TIP3    H152165   6.225   0.293  16.587 -0.5524 -0.8121  1.0649
10250TIP3    H252166   6.084   0.346  16.608 -0.3656  0.1236  0.0659
10251TIP3   OH252167   0.819   3.835   5.176  0.1217  0.6539  0.1222
10251TIP3    H152168   0.749   3.898   5.155 -0.5549 -0.2485 -0.3902
10251TIP3    H252169   0.847   3.860   5.264 -0.4162  1.4192  0.0892
10252TIP3   OH252170   0.533   0.602   3.004 -0.3702 -0.0743  0.1030
10252TIP3    H152171   0.464   0.536   2.998  0.4906 -0.9109 -1.1570
10252TIP3    H252172   0.611   0.553   3.031 -0.2083  0.8389  1.4201
10253TIP3   OH252173   1.925   1.481  15.687 -0.7362 -0.4951 -0.2507
10253TIP3    H152174   1.855   1.465  15.749  1.0204 -2.0835  1.4671
10253TIP3    H252175   1.938   1.397  15.643  0.4351 -0.4113 -0.1094
10254TIP3   OH252176   0.166   5.373   1.738  0.4321 -0.1225  0.1302
10254TIP3    H152177   0.120   5.351   1.819 -0.0636  2.4521  0.6317
10254TIP3    H252178   0.107   5.347   1.668 -0.3571  0.1281  0.6913
10255TIP3   OH252179   3.781   0.365  11.825  0.1425 -0.2441 -0.4600
10255TIP3    H152180   3.751   0.447  11.865 -1.3296 -1.2463  0.5938
10255TIP3    H252181   3.835   0.324  11.893  0.7830 -0.2111 -0.9419
10256TIP3   OH252182   2.508   1.804   5.073 -0.0266 -0.1839 -0.1697
10256TIP3    H152183   2.440   1.774   5.013  0.6276 -3.0080  0.3144
10256TIP3    H252184   2.479   1.775   5.159 -0.0496  2.1189  0.6584
10257TIP3   OH252185   6.114   2.073   3.977  0.3040 -0.4135  0.3380
10257TIP3    H152186   6.072   2.113   4.053 -2.9258 -1.3875 -0.7549
10257TIP3    H252187   6.067   1.991   3.964  2.2286 -1.3211 -1.4534
10258TIP3   OH252188   6.285   3.872   4.818 -0.2605  0.1778  0.1374
10258TIP3    H152189   6.255   3.935   4.752  1.6683  0.0283 -0.9591
10258TIP3    H252190   6.252   3.787   4.787 -0.4258  0.2799  0.0347
10259TIP3   OH252191   6.715   2.447   6.251 -0.1293  0.1869 -0.3322
10259TIP3    H152192   6.676   2.423   6.167 -0.4025 -0.2772 -0.0789
10259TIP3    H252193   6.801   2.407   6.250  0.2926  1.0864 -0.8310
10260TIP3   OH252194   1.631   4.027   0.805 -0.2655 -0.1127 -0.0695
10260TIP3    H152195   1.567   3.956   0.806 -0.6926  0.2638  0.8398
10260TIP3    H252196   1.582   4.103   0.775 -0.0358 -0.0079 -0.1795
10261TIP3   OH252197   6.646   6.212  13.910 -0.2269 -0.1095 -0.1553
10261TIP3    H152198   6.672   6.263  13.986  0.9572  0.1414 -0.7155
10261TIP3    H252199   6.723   6.160  13.887 -0.5810 -0.2350 -1.1425
10262TIP3   OH252200   1.579   6.650   3.150 -0.5974  0.7837 -0.0622
10262TIP3    H152201   1.626   6.573   3.119 -0.0946  0.8699  0.4721
10262TIP3    H252202   1.517   6.617   3.215 -1.2859  0.6729 -0.7495
10263TIP3   OH252203   5.073   4.215   5.676 -0.7492  0.0658 -0.0118
10263TIP3    H152204   5.008   4.157   5.637 -0.2507 -0.6681  0.2148
10263TIP3    H252205   5.125   4.158   5.733 -0.0438  0.6701 -0.0271
10264TIP3   OH252206   5.453   1.302  12.641 -0.0968 -0.0787 -0.5266
10264TIP3    H152207   5.544   1.307  12.615 -0.0559 -0.8372 -0.5721
10264TIP3    H252208   5.425   1.393  12.651  0.2805  0.2018 -1.8338
10265TIP3   OH252209   4.650   4.854   6.914 -0.1355 -0.1081  0.0759
10265TIP3    H152210   4.647   4.919   6.844 -1.4929 -0.2973 -0.0588
10265TIP3    H252211   4.620   4.773   6.872 -0.7592 -0.2685  0.8281
10266TIP3   OH252212   6.269   2.336   1.954 -0.8983 -0.4976  0.5268
10266TIP3    H152213   6.328   2.262   1.967  1.2740  0.8479 -1.0603
10266TIP3    H252214   6.302   2.403   2.014 -1.9927 -0.3068  0.9470
10267TIP3   OH252215   0.557   3.426  11.069 -0.2556  0.5515  0.0211
10267TIP3    H152216   0.631   3.439  11.128  0.6853 -0.6267 -0.8363
10267TIP3    H252217   0.528   3.337  11.086 -0.9734  0.7321 -0.2152
10268TIP3   OH252218   4.307   4.974  16.489  0.4625  0.1671  0.5194
10268TIP3    H152219   4.366   4.910  16.450  0.2820  0.8262 -0.8994
10268TIP3    H252220   4.338   4.984  16.579  0.9134 -1.3832  0.5687
10269TIP3   OH252221   0.911   4.649   0.190  0.1951 -0.1791  0.1346
10269TIP3    H152222   0.971   4.577   0.206  0.2616  0.2315  1.9463
10269TIP3    H252223   0.959   4.727   0.220  0.2397  0.7008 -2.0169
10270TIP3   OH252224   1.467   5.038  16.628  0.0193  0.0122 -0.7496
10270TIP3    H152225   1.396   5.097  16.656  0.1824  1.2827 -2.7484
10270TIP3    H252226   1.422   4.959  16.599 -0.6346  0.8024 -1.9902
10271TIP3   OH252227   0.200   3.232  16.527  0.0366 -0.0759 -0.3323
10271TIP3    H152228   0.227   3.314  16.486  0.0570  0.6207  1.0258
10271TIP3    H252229   0.133   3.196  16.468  0.2614  0.7371 -1.1039
10272TIP3   OH252230   5.347   1.554  16.557  0.3616 -0.1864 -0.2982
10272TIP3    H152231   5.408   1.627  16.568  1.0936 -0.7834 -0.2598
10272TIP3    H252232   5.262   1.589  16.582  0.5159  0.9503 -1.2924
10273TIP3   OH252233   4.927   3.848  12.240  0.1822  0.2986  0.6820
10273TIP3    H152234   4.921   3.914  12.309 -0.4272  0.5925  0.3530
10273TIP3    H252235   4.972   3.775  12.282 -0.1092  0.4995  1.3731
10274TIP3   OH252236   0.985   3.600   2.121  0.0022  0.3561  0.2373
10274TIP3    H152237   1.036   3.652   2.058  0.5643 -0.2328  0.1963
10274TIP3    H252238   0.911   3.567   2.070 -0.0034  0.5773  0.1001
10275TIP3   OH252239   0.276   1.828  14.914  0.3896 -0.3731  0.2117
10275TIP3    H152240   0.343   1.762  14.895 -0.2894 -0.6194 -1.5198
10275TIP3    H252241   0.218   1.826  14.838 -1.7206 -0.3168  1.7047
10276TIP3   OH252242   0.963   2.069  12.748 -0.4173 -0.5461  0.5788
10276TIP3    H152243   0.907   2.134  12.704  0.5933  1.1958  1.7591
10276TIP3    H252244   0.982   2.004  12.680  0.9673  1.9456 -1.5746
10277TIP3   OH252245   4.884   4.661  14.184 -0.1911 -0.0514  0.3591
10277TIP3    H152246   4.962   4.686  14.234  0.5785  1.2831 -1.3938
10277TIP3    H252247   4.810   4.691  14.237  0.5248 -0.0857  1.3994
10278TIP3   OH252248   6.499   4.618   2.202  0.1801 -0.9056 -0.0952
10278TIP3    H152249   6.422   4.588   2.251 -0.1304  0.7431  0.4996
10278TIP3    H252250   6.570   4.612   2.265  0.0570 -0.1284  0.1225
10279TIP3   OH252251   5.947   6.435   4.949 -0.6196  0.1491  0.1116
10279TIP3    H152252   5.888   6.463   5.018 -0.1024  2.7044 -0.3794
10279TIP3    H252253   5.894   6.437   4.869 -0.2497  1.0935 -0.1227
10280TIP3   OH252254   2.714   2.854   1.466 -0.3281  0.2488 -0.5444
10280TIP3    H152255   2.689   2.935   1.422  1.0555 -0.0901 -2.0514
10280TIP3    H252256   2.799   2.873   1.505  1.8985 -1.3736 -4.0362
10281TIP3   OH252257   4.960   6.119   4.847  0.3607 -0.6579  0.0455
10281TIP3    H152258   4.928   6.095   4.934 -0.3153 -1.1323 -0.3267
10281TIP3    H252259   4.895   6.180   4.813  0.2297 -1.0574 -0.4279
10282TIP3   OH252260   1.461   0.988  12.040 -0.1844 -0.0876  0.1818
10282TIP3    H152261   1.506   0.961  11.960  0.9235 -2.0920  1.4100
10282TIP3    H252262   1.472   1.083  12.042  1.5529 -0.2093 -1.0373
10283TIP3   OH252263   1.199   0.066   1.757 -0.6815 -0.6072  0.2816
10283TIP3    H152264   1.166  -0.012   1.713 -0.8632 -2.8937  4.0544
10283TIP3    H252265   1.121   0.114   1.784 -0.5926  0.0709 -0.6128
10284TIP3   OH252266   4.991   5.304  13.214 -0.5586  0.2299 -0.6112
10284TIP3    H152267   4.907   5.298  13.169 -2.2549  1.0528  2.1642
10284TIP3    H252268   4.993   5.392  13.250  1.3966  0.1368 -0.3946
10285TIP3   OH252269   6.063   4.785   3.714  0.4447  0.0475  0.0927
10285TIP3    H152270   6.018   4.870   3.712  1.6749  0.7103 -0.3352
10285TIP3    H252271   6.034   4.740   3.634  0.9124  0.6809 -0.4470
10286TIP3   OH252272   6.492   5.292   0.805  0.1278  0.8451  0.0910
10286TIP3    H152273   6.530   5.260   0.888  0.1730 -1.0592 -0.6072
10286TIP3    H252274   6.546   5.368   0.782  2.8466 -1.0216 -0.2441
10287TIP3   OH252275   5.151   4.934   5.157 -0.4790  0.5907  0.2841
10287TIP3    H152276   5.176   5.026   5.155  1.0699  0.2526  1.6863
10287TIP3    H252277   5.217   4.892   5.212  0.0989 -1.7525 -1.9455
10288TIP3   OH252278   0.918   1.760  12.846  0.3941  0.6065 -0.4784
10288TIP3    H152279   0.843   1.735  12.900 -0.8254  1.0041 -1.9229
10288TIP3    H252280   0.988   1.778  12.910 -0.9006  0.8308  0.9508
10289TIP3   OH252281   5.768   5.295   0.959  0.0323  0.1323 -0.1732
10289TIP3    H152282   5.811   5.308   0.874  1.0046  3.2498  0.6580
10289TIP3    H252283   5.714   5.373   0.970  0.3732  0.0997  2.3016
10290TIP3   OH252284   3.201   3.399   1.782 -0.0469  0.2905 -0.7497
10290TIP3    H152285   3.137   3.470   1.788 -0.3033 -0.0521  0.9674
10290TIP3    H252286   3.242   3.396   1.868  0.3858 -1.2597 -0.9840
10291TIP3   OH252287   5.496   4.169  15.706 -0.6069 -0.4568  0.1548
10291TIP3    H152288   5.579   4.188  15.663 -1.1486 -0.0286 -0.7416
10291TIP3    H252289   5.520   4.135  15.792  0.4950 -0.6478 -0.2158
10292TIP3   OH252290   2.167   1.079   1.150  0.9264 -0.5891 -0.4985
10292TIP3    H152291   2.183   1.096   1.057 -0.2836  2.5559 -0.2669
10292TIP3    H252292   2.220   1.144   1.196  0.8888 -1.5620  0.9909
10293TIP3   OH252293   6.329   4.048   1.341 -0.0874 -0.7272 -0.0025
10293TIP3    H152294   6.262   4.013   1.400 -0.5584  1.3267  0.7617
10293TIP3    H252295   6.405   4.064   1.397  0.0142 -0.2616 -0.2651
10294TIP3   OH252296   2.952   6.015  11.057  0.3227  0.3944  0.2342
10294TIP3    H152297   2.878   6.074  11.048 -0.5649 -0.8401 -1.2600
10294TIP3    H252298   2.932   5.963  11.135 -1.9513 -1.8543 -1.6577
10295TIP3   OH252299   0.976   4.519   2.626 -0.1146  0.6288  0.3965
10295TIP3    H152300   0.952   4.533   2.535  0.1414  1.1770  0.4139
10295TIP3    H252301   1.029   4.595   2.650  1.4416 -0.4150  0.4260
10296TIP3   OH252302   2.415   5.973  12.578 -0.2479 -0.4772  0.0931
10296TIP3    H152303   2.489   5.979  12.517 -2.2285 -1.5569 -2.6316
10296TIP3    H252304   2.437   6.035  12.648  2.0933  1.0463 -1.8086
10297TIP3   OH252305   0.618   6.613  14.159 -0.1583  0.1707 -0.5815
10297TIP3    H152306   0.702   6.572  14.138 -0.0462  0.5132 -0.8218
10297TIP3    H252307   0.600   6.587  14.249 -0.3365 -0.8097 -0.8939
10298TIP3   OH252308   4.800   4.665   4.665  0.0001  0.1773 -0.3872
10298TIP3    H152309   4.862   4.643   4.735 -2.2444 -0.0448  1.6751
10298TIP3    H252310   4.813   4.758   4.650  1.5449 -0.0737 -0.8017
10299TIP3   OH252311   5.376   5.172   2.425  0.4607 -0.0948  0.3546
10299TIP3    H152312   5.419   5.186   2.509  1.1518  0.2576 -0.0472
10299TIP3    H252313   5.343   5.259   2.400 -0.0049 -0.2551  0.3980
10300TIP3   OH252314   2.315   5.845  13.234  0.1134  0.0205  0.2544
10300TIP3    H152315   2.360   5.855  13.150 -1.1442 -0.5937 -0.5102
10300TIP3    H252316   2.340   5.758  13.265  0.3680  0.1430  0.3974
10301TIP3   OH252317   1.175   6.404   2.350  0.5871 -0.6532 -0.0989
10301TIP3    H152318   1.215   6.469   2.407 -0.2593  1.1140 -1.4357
10301TIP3    H252319   1.111   6.359   2.406  0.5763  0.2624  0.6359
10302TIP3   OH252320   2.917   6.430   0.653  0.1372  0.0266  0.4936
10302TIP3    H152321   3.004   6.470   0.653 -0.7521  2.0950  0.8651
10302TIP3    H252322   2.907   6.395   0.564  1.6367 -1.0114  0.6957
10303TIP3   OH252323   0.931   5.909  12.862  0.6741  0.1681 -0.1690
10303TIP3    H152324   0.870   5.907  12.788  0.3980  0.6767  0.0417
10303TIP3    H252325   0.875   5.905  12.940  1.0025 -1.4516  0.0238
10304TIP3   OH252326   0.450   0.866   0.641  0.6538  0.0749 -0.5112
10304TIP3    H152327   0.452   0.962   0.638  1.6278  0.0393 -1.1815
10304TIP3    H252328   0.451   0.839   0.550 -1.1065 -0.5711 -0.3751
10305TIP3   OH252329   0.917   4.874  10.518  0.5397  0.3805  0.0120
10305TIP3    H152330   0.852   4.923  10.569  0.0233  0.9353 -1.1589
10305TIP3    H252331   0.922   4.789  10.560  0.5057  0.9909  1.3084
10306TIP3   OH252332   0.738   1.003  13.890 -0.0954  0.2746 -0.0630
10306TIP3    H152333   0.821   0.965  13.860 -0.9210 -1.4336 -0.3389
10306TIP3    H252334   0.753   1.097  13.892  2.4485 -0.0903  1.7754
10307TIP3   OH252335   4.846   6.192  12.977 -0.3476 -0.0390 -0.2253
10307TIP3    H152336   4.830   6.285  12.961 -0.9932 -0.3299 -1.3698
10307TIP3    H252337   4.768   6.162  13.023  0.8352  0.4500  2.2384
10308TIP3   OH252338   6.101   5.384  12.598 -0.1314  1.0299  0.1862
10308TIP3    H152339   6.138   5.403  12.685  0.5406  1.6302 -0.2221
10308TIP3    H252340   6.177   5.371  12.542 -0.5569  1.0151 -0.3971
10309TIP3   OH252341   5.414   6.301  14.027  0.1994  0.4303  0.5496
10309TIP3    H152342   5.476   6.253  13.971 -0.3288 -1.4670  1.4934
10309TIP3    H252343   5.339   6.317  13.970  0.4593  0.2802  0.1579
10310TIP3   OH252344   5.885   6.237  12.671 -0.4657  0.1085  0.0794
10310TIP3    H152345   5.877   6.331  12.653  0.1937  0.3158  0.8263
10310TIP3    H252346   5.951   6.207  12.607  2.0349  0.8886  2.1254
10311TIP3   OH252347   0.757   1.877   1.568 -0.6088  0.3062  0.2753
10311TIP3    H152348   0.699   1.839   1.634  0.7957 -1.9854  0.3359
10311TIP3    H252349   0.742   1.971   1.573 -2.3899 -0.0128  2.0719
10312TIP3   OH252350   4.414   2.818   4.043  0.2712  0.5057 -0.2870
10312TIP3    H152351   4.472   2.804   3.968  1.5423  1.2927  0.5136
10312TIP3    H252352   4.471   2.807   4.119 -1.1675 -1.1559  0.6224
10313TIP3   OH252353   2.928   1.972  17.140 -0.3538 -0.0837 -0.2389
10313TIP3    H152354   2.851   1.934  17.097 -0.7687  1.9269 -1.4111
10313TIP3    H252355   2.892   2.025  17.211 -0.2480  1.8596 -1.5463
10314TIP3   OH252356   4.950   3.423   4.767  1.1347  0.7694 -0.0075
10314TIP3    H152357   4.966   3.339   4.725  0.1355  1.5045 -1.9545
10314TIP3    H252358   4.857   3.421   4.789  1.3151  1.0154  0.8340
10315TIP3   OH252359   5.868   2.043   4.708 -0.0020 -0.3725  0.0539
10315TIP3    H152360   5.858   2.136   4.729  1.2142  0.0714 -1.1543
10315TIP3    H252361   5.904   2.004   4.787  1.1078  0.5404  0.0302
10316TIP3   OH252362   5.210   6.267  12.091 -0.4497 -0.2955 -0.0848
10316TIP3    H152363   5.207   6.338  12.028 -0.4945 -0.5149 -0.3310
10316TIP3    H252364   5.126   6.222  12.082 -0.8807  0.2909  0.8589
10317TIP3   OH252365   3.953   6.273   1.804  0.0588  0.6754  0.1524
10317TIP3    H152366   3.988   6.263   1.715 -0.6928 -1.7077  0.0398
10317TIP3    H252367   4.030   6.268   1.861  0.2741 -2.0360 -0.2190
10318TIP3   OH252368   0.716   3.959   1.645 -0.7666 -0.1896  1.0555
10318TIP3    H152369   0.727   3.883   1.702  2.1686  0.3891  1.4118
10318TIP3    H252370   0.724   4.034   1.703 -0.0819  0.3942  0.2295
10319TIP3   OH252371   6.252   1.810  11.495  0.5266 -0.5946  0.6926
10319TIP3    H152372   6.297   1.753  11.557  0.2130 -0.4525  1.0547
10319TIP3    H252373   6.171   1.835  11.539  0.6820  0.1768  0.5654
10320TIP3   OH252374   1.244   2.254   0.540  0.8593 -0.5187 -0.1130
10320TIP3    H152375   1.337   2.267   0.560  0.3474  0.3855  1.9023
10320TIP3    H252376   1.206   2.342   0.544 -0.4870 -1.1151  1.3997
10321TIP3   OH252377   1.296   0.314  13.339 -0.8540  0.3818 -0.3031
10321TIP3    H152378   1.264   0.229  13.309 -1.1489  0.2382  0.4051
10321TIP3    H252379   1.376   0.328  13.288 -0.8493 -0.2814 -0.4901
10322TIP3   OH252380   3.305   3.355   0.530 -0.0839  0.3660 -0.6424
10322TIP3    H152381   3.331   3.322   0.616 -0.0807  0.7483 -0.4953
10322TIP3    H252382   3.214   3.383   0.542  0.4245  1.9611 -0.3166
10323TIP3   OH252383   3.922   4.651  17.215  0.1880 -0.3693  0.1505
10323TIP3    H152384   3.949   4.663  17.124 -0.3533 -1.2595 -0.1421
10323TIP3    H252385   3.826   4.660  17.212  0.1339 -0.7812  0.5592
10324TIP3   OH252386   1.741   5.306  13.977  0.3653  0.0961 -0.0675
10324TIP3    H152387   1.829   5.285  14.007  0.4815 -0.7607 -0.9718
10324TIP3    H252388   1.731   5.258  13.895 -1.3616 -0.7802  0.6110
10325TIP3   OH252389   0.303   2.181  16.952  0.3316 -0.7651  0.5721
10325TIP3    H152390   0.214   2.190  16.920  0.6392 -1.2521 -0.4694
10325TIP3    H252391   0.308   2.239  17.028 -0.8615 -0.7403  0.6399
10326TIP3   OH252392   0.029   4.929  14.457 -0.4388  0.5778 -0.6094
10326TIP3    H152393  -0.049   4.983  14.446 -1.0416  0.0088  0.7543
10326TIP3    H252394   0.009   4.849  14.408  0.4658  1.5354 -2.6539
10327TIP3   OH252395   5.660   2.275  14.839 -0.7650  0.0880  0.5354
10327TIP3    H152396   5.700   2.194  14.870  0.0670 -0.7700 -2.4282
10327TIP3    H252397   5.711   2.298  14.761 -2.1291  2.4917  0.2643
10328TIP3   OH252398   6.154   5.066   4.598  0.3367 -0.2600 -0.2791
10328TIP3    H152399   6.232   5.050   4.544  0.3917  1.5760 -0.8306
10328TIP3    H252400   6.189   5.104   4.679  0.1849 -2.1483  0.7199
10329TIP3   OH252401   1.691   0.261  13.810 -0.7004 -0.0645  0.2325
10329TIP3    H152402   1.646   0.315  13.745  0.5576  0.4435 -0.2575
10329TIP3    H252403   1.732   0.325  13.869 -0.5417 -0.5026  0.5954
10330TIP3   OH252404   3.290   4.626  12.864  0.1670 -0.3529 -0.3443
10330TIP3    H152405   3.281   4.532  12.847  0.0424 -0.4116  0.0513
10330TIP3    H252406   3.317   4.632  12.956 -1.3707  0.0660  0.1028
10331TIP3   OH252407   5.781   1.113   4.677  0.0002  0.2927  0.1084
10331TIP3    H152408   5.777   1.209   4.672 -0.8097  0.2144 -1.1283
10331TIP3    H252409   5.734   1.083   4.600  1.6940 -1.0963 -0.4414
10332TIP3   OH252410   6.570   4.303  15.339  0.0250 -0.2803  0.8699
10332TIP3    H152411   6.530   4.283  15.254  0.9934 -0.8793  0.5415
10332TIP3    H252412   6.552   4.396  15.353 -1.6717 -0.5623  0.8499
10333TIP3   OH252413   5.891   4.484  13.866  0.0819 -0.0512 -0.3563
10333TIP3    H152414   5.901   4.392  13.842 -0.7537 -0.4423  0.7191
10333TIP3    H252415   5.861   4.526  13.785 -0.3324 -0.8833 -0.6534
10334TIP3   OH252416   1.148   6.234   5.231  0.1038 -0.0467  0.3997
10334TIP3    H152417   1.131   6.261   5.141 -0.9118 -1.2594  0.2043
10334TIP3    H252418   1.239   6.260   5.247  0.4127 -0.1328 -1.0910
10335TIP3   OH252419   3.733   4.442   0.289 -0.1558 -0.0482 -0.1069
10335TIP3    H152420   3.815   4.481   0.262 -0.2607 -0.5272 -1.1624
10335TIP3    H252421   3.758   4.366   0.342  0.0606  1.9969  2.9951
10336TIP3   OH252422   2.958   6.340   3.271  0.2316 -0.2744 -0.1406
10336TIP3    H152423   2.877   6.323   3.319 -0.1260 -1.4940 -1.1313
10336TIP3    H252424   3.027   6.324   3.335 -0.2773  0.5402  0.6502
10337TIP3   OH252425   5.566   2.239  13.850 -0.6815  0.0491  0.3279
10337TIP3    H152426   5.608   2.153  13.839  1.1480  0.3586  3.5618
10337TIP3    H252427   5.630   2.301  13.815 -0.9706  0.2322  0.1203
10338TIP3   OH252428   0.872   2.170  15.398 -0.1885  0.1827 -0.1049
10338TIP3    H152429   0.823   2.176  15.480  0.4523  0.9345  0.2283
10338TIP3    H252430   0.963   2.158  15.425  0.1963  1.6562 -0.6809
10339TIP3   OH252431   3.877   5.743   0.511  0.5133 -0.3434 -0.3953
10339TIP3    H152432   3.925   5.796   0.575  0.0561  0.7668 -0.9489
10339TIP3    H252433   3.945   5.705   0.455  0.7666  2.3237 -2.0337
10340TIP3   OH252434   1.167   2.897  16.174 -0.2209 -0.0250 -0.1745
10340TIP3    H152435   1.087   2.939  16.143 -0.3403 -0.2314 -0.1493
10340TIP3    H252436   1.173   2.816  16.122 -1.3304 -1.2452  1.5083
10341TIP3   OH252437   4.502   3.269   5.412 -0.1381 -0.4706  0.0876
10341TIP3    H152438   4.572   3.224   5.460  2.1470  0.3664 -2.2480
10341TIP3    H252439   4.469   3.203   5.351  1.6054  0.2231 -1.7124
10342TIP3   OH252440   0.574   4.605   6.628  0.1130 -0.2286  0.1593
10342TIP3    H152441   0.636   4.629   6.696  1.5147 -2.1099 -0.3769
10342TIP3    H252442   0.537   4.522   6.657 -0.0195 -0.5497 -0.8987
10343TIP3   OH252443   6.439   3.978   3.037 -0.3628 -0.0349 -0.3148
10343TIP3    H152444   6.391   4.047   3.083  1.1794 -0.4877  2.1264
10343TIP3    H252445   6.398   3.897   3.066  0.7613 -0.3381  0.4932
10344TIP3   OH252446   1.241   5.767   4.883  0.3019  0.1089  0.0741
10344TIP3    H152447   1.147   5.774   4.871  0.0376 -0.5299  1.5362
10344TIP3    H252448   1.269   5.701   4.819 -0.2676  0.1676 -0.2382
10345TIP3   OH252449   3.324   1.993   5.472 -0.2208 -0.2200 -0.0974
10345TIP3    H152450   3.294   2.069   5.523  1.3938  0.6991 -0.4374
10345TIP3    H252451   3.390   1.951   5.527 -0.4117 -0.8183 -0.3164
10346TIP3   OH252452   2.599   3.919  15.591  0.0057 -0.2452  0.6040
10346TIP3    H152453   2.532   3.958  15.535 -0.0645  1.4546  1.7825
10346TIP3    H252454   2.555   3.908  15.676  1.2212  1.1045  1.4599
10347TIP3   OH252455   3.293   6.659   0.090  0.6451 -0.5205  0.2039
10347TIP3    H152456   3.229   6.654   0.019  0.8446 -1.4470  0.0730
10347TIP3    H252457   3.365   6.710   0.054  0.3481 -0.1869  0.0701
10348TIP3   OH252458   5.897   2.100  11.315  0.0569  0.2531 -0.2028
10348TIP3    H152459   5.883   2.007  11.328 -2.3941  0.4537 -0.8218
10348TIP3    H252460   5.980   2.119  11.358  0.6598 -2.2088 -0.1544
10349TIP3   OH252461   1.118   6.270  14.444 -0.1466 -0.1201 -0.3791
10349TIP3    H152462   1.086   6.225  14.523 -2.5686  3.1795  0.7522
10349TIP3    H252463   1.075   6.224  14.372 -0.0408 -1.5240  0.4034
10350TIP3   OH252464   6.446   6.395   2.485  0.4361  0.0557  0.2059
10350TIP3    H152465   6.514   6.353   2.539  1.3306  1.1117 -0.0625
10350TIP3    H252466   6.373   6.408   2.545  0.5211 -0.9237  0.5536
10351TIP3   OH252467   1.617   2.217  15.564  0.5043  0.0018 -0.4643
10351TIP3    H152468   1.538   2.172  15.595  1.0328 -2.3375 -2.2129
10351TIP3    H252469   1.689   2.170  15.605  1.0410  1.5092  0.3703
10352TIP3   OH252470   3.029   1.894   4.578 -0.3979  0.1607 -0.0808
10352TIP3    H152471   2.952   1.871   4.631 -0.9032  1.4207 -0.2287
10352TIP3    H252472   3.103   1.880   4.637 -0.6177 -2.0475 -0.2509
10353TIP3   OH252473   3.442   0.071  17.028  0.2788  0.2308 -0.3957
10353TIP3    H152474   3.434   0.006  16.958 -0.0996  0.9830 -1.0835
10353TIP3    H252475   3.353   0.079  17.063  0.3929  0.1250 -0.0810
10354TIP3   OH252476   0.316   4.669   2.568 -0.0138  0.1806 -0.3453
10354TIP3    H152477   0.242   4.609   2.579 -0.1123  0.5527  1.3446
10354TIP3    H252478   0.393   4.616   2.590 -0.0835  0.5732  0.9484
10355TIP3   OH252479   5.460   1.807   1.118  0.0334  0.1368 -0.6178
10355TIP3    H152480   5.438   1.837   1.207  0.0582  1.5482 -1.0593
10355TIP3    H252481   5.548   1.771   1.127 -0.0461  0.0767 -0.0259
10356TIP3   OH252482   6.527   1.592  17.009 -0.0405 -0.4328  0.4445
10356TIP3    H152483   6.460   1.560  17.069  0.2110 -0.6025  0.6379
10356TIP3    H252484   6.607   1.548  17.037  0.3718  0.5895  0.8920
10357TIP3   OH252485   5.968   5.473   0.739 -0.1156  0.1035  0.3239
10357TIP3    H152486   5.975   5.378   0.745  0.2177  0.0947 -0.1952
10357TIP3    H252487   6.052   5.501   0.703 -0.1678  0.6068  0.5801
10358TIP3   OH252488   2.126   1.442   0.177  0.2317 -0.0828 -0.0935
10358TIP3    H152489   2.079   1.468   0.098  0.2010  0.8080  0.2049
10358TIP3    H252490   2.204   1.498   0.178 -0.2044  0.5560  0.9427
10359TIP3   OH252491   4.682   1.291   3.838 -0.1204  0.3538  0.2266
10359TIP3    H152492   4.759   1.242   3.809 -1.1593 -0.7529 -0.7779
10359TIP3    H252493   4.702   1.318   3.927  1.7117  0.7020 -0.2618
10360TIP3   OH252494   1.436   1.897  16.203  0.4784  0.1925 -0.4192
10360TIP3    H152495   1.426   1.903  16.298  0.4644 -0.7005 -0.3510
10360TIP3    H252496   1.529   1.908  16.188  0.5823 -0.3865 -0.2295
10361TIP3   OH252497   5.345   0.743   5.176 -0.6046 -0.0214 -0.3416
10361TIP3    H152498   5.429   0.712   5.144 -0.2759  0.8228 -0.3116
10361TIP3    H252499   5.340   0.710   5.266 -0.7231 -0.8466 -0.6421
10362TIP3   OH252500   6.067   2.482   2.694  0.6304  0.0025  0.3565
10362TIP3    H152501   6.126   2.555   2.710  0.6306  0.2559 -0.7157
10362TIP3    H252502   6.124   2.410   2.668  0.5566 -0.0894  0.4488
10363TIP3   OH252503   5.906   2.449   0.921  0.1538 -0.4870 -0.2894
10363TIP3    H152504   5.938   2.478   1.007 -4.0112  1.4483  0.8736
10363TIP3    H252505   5.974   2.476   0.860  3.3015 -1.9399  2.2663
10364TIP3   OH252506   3.286   5.352  13.527 -0.2881  0.0167 -0.0945
10364TIP3    H152507   3.366   5.378  13.574  0.2310 -1.5969  0.0060
10364TIP3    H252508   3.239   5.298  13.591  0.6142 -2.5465 -1.4567
10365TIP3   OH252509   4.945   4.680  12.495  0.3186  0.0983  0.1395
10365TIP3    H152510   4.988   4.653  12.413 -0.3097 -1.9294  0.4160
10365TIP3    H252511   4.942   4.600  12.547  1.8628  1.6065  2.7298
10366TIP3   OH252512   4.802   1.834   4.629 -0.3588  0.0297  0.3664
10366TIP3    H152513   4.748   1.755   4.638  1.1858 -1.0267  0.9612
10366TIP3    H252514   4.742   1.901   4.597 -1.7219 -1.4013 -0.2236
10367TIP3   OH252515   6.221   0.929  13.388 -0.3716 -0.1009  0.4399
10367TIP3    H152516   6.238   1.023  13.385  1.3889 -0.3763 -2.4646
10367TIP3    H252517   6.244   0.903  13.477  1.3740  1.8749  0.6460
10368TIP3   OH252518   4.693   0.342   6.629  0.0698 -0.5808  0.0266
10368TIP3    H152519   4.741   0.308   6.553  0.4243 -1.9867  0.8249
10368TIP3    H252520   4.653   0.264   6.668  2.5624 -0.5066  3.1168
10369TIP3   OH252521   6.138   1.404   1.852 -0.0141 -0.0178 -0.3846
10369TIP3    H152522   6.160   1.389   1.760 -0.3057 -1.8773 -0.1834
10369TIP3    H252523   6.205   1.465   1.883  1.1396 -0.7395 -1.3677
10370TIP3   OH252524   4.669   2.773   0.220  0.3770  0.3372 -0.0206
10370TIP3    H152525   4.697   2.723   0.143 -1.3613  0.4948 -0.8060
10370TIP3    H252526   4.695   2.719   0.294  1.0524 -0.3691 -0.7470
10371TIP3   OH252527   5.327   2.006  16.419  0.2155  0.0625 -0.2227
10371TIP3    H152528   5.255   1.973  16.365 -2.2594  3.4528  0.6410
10371TIP3    H252529   5.308   1.972  16.507 -1.0234  1.7016  0.2003
10372TIP3   OH252530   6.579   0.773   3.026 -0.1125 -0.1848  0.4636
10372TIP3    H152531   6.622   0.699   2.983 -0.9672 -0.0969 -0.6050
10372TIP3    H252532   6.600   0.762   3.118  1.7853 -0.3964  0.0560
10373TIP3   OH252533   1.513   2.123   0.354 -0.0325  0.2926  0.2349
10373TIP3    H152534   1.502   2.097   0.445 -2.7922 -1.5028 -0.4867
10373TIP3    H252535   1.463   2.204   0.346 -1.3802 -0.5377 -0.0353
10374TIP3   OH252536   5.752   6.270  14.555  0.5254 -0.0963 -0.7636
10374TIP3    H152537   5.709   6.304  14.634  1.3693 -2.5302  0.8180
10374TIP3    H252538   5.684   6.218  14.512  0.1315  1.0562 -1.6138
10375TIP3   OH252539   4.407   0.177  12.869 -0.4201  0.1097 -0.2528
10375TIP3    H152540   4.402   0.236  12.794  0.2723 -0.3599 -0.6809
10375TIP3    H252541   4.316   0.163  12.895 -0.5761  2.1830  0.5301
10376TIP3   OH252542   1.556   2.830   4.834  0.3718  0.5066 -0.1236
10376TIP3    H152543   1.488   2.828   4.767 -0.7961  0.4078  1.0243
10376TIP3    H252544   1.554   2.743   4.874  1.2183  0.4813 -0.1173
10377TIP3   OH252545   2.240   0.863   5.157  0.1524 -0.4614 -0.5389
10377TIP3    H152546   2.332   0.836   5.155  0.3828  0.2914 -2.3215
10377TIP3    H252547   2.198   0.801   5.216  2.0665  0.1030  1.5395
10378TIP3   OH252548   2.893   6.312   4.074  0.5127 -0.0733 -0.4399
10378TIP3    H152549   2.805   6.283   4.049  1.2718 -2.6206 -0.4063
10378TIP3    H252550   2.891   6.407   4.061 -2.3140  0.0023 -0.1569
10379TIP3   OH252551   5.712   4.861  16.756 -0.1242  0.0439  0.1948
10379TIP3    H152552   5.769   4.903  16.691  1.5439  1.2221  2.3192
10379TIP3    H252553   5.677   4.784  16.710  2.1144  0.0080 -1.6481
10380TIP3   OH252554   0.966   0.994  14.271 -0.5308 -0.1147 -0.5396
10380TIP3    H152555   1.059   1.006  14.289 -0.4304 -1.1947 -0.2787
10380TIP3    H252556   0.954   1.031  14.183  0.0245  0.5472 -0.3441
10381TIP3   OH252557   1.682   5.794  14.460  0.6255  0.0612 -0.2817
10381TIP3    H152558   1.622   5.741  14.407 -0.5893  2.1478 -1.1529
10381TIP3    H252559   1.655   5.777  14.550 -0.4152 -0.0471 -0.5975
10382TIP3   OH252560   0.194   6.373  16.680 -0.1077 -0.0790  0.6412
10382TIP3    H152561   0.116   6.428  16.681  0.1870  0.3546  1.5951
10382TIP3    H252562   0.259   6.423  16.730  0.9690 -0.1621 -0.6150
10383TIP3   OH252563   5.860   6.738  11.432  0.8584 -0.3223  0.3711
10383TIP3    H152564   5.918   6.721  11.506  0.9273  0.4206  0.5000
10383TIP3    H252565   5.918   6.774  11.364  1.0619 -2.4097 -0.6128
10384TIP3   OH252566   3.818   6.192  11.776  0.7527  0.2624 -0.1417
10384TIP3    H152567   3.780   6.105  11.788  0.3271  0.5446  0.6461
10384TIP3    H252568   3.745   6.246  11.746  0.4266  0.8628  1.6125
10385TIP3   OH252569   1.832   1.000   0.661  0.3096 -0.3239  0.0010
10385TIP3    H152570   1.907   0.979   0.606 -0.0279 -1.5448 -0.0290
10385TIP3    H252571   1.798   0.914   0.688 -0.8976  0.2133  0.2396
10386TIP3   OH252572   1.972   3.190   0.172 -0.1458  0.1430  0.3964
10386TIP3    H152573   2.044   3.150   0.220  1.2114 -3.1667 -3.7814
10386TIP3    H252574   2.014   3.252   0.113 -1.0051  0.0830 -0.2971
10387TIP3   OH252575   2.207   0.339  10.850  0.7143 -0.0096 -0.2775
10387TIP3    H152576   2.175   0.426  10.876 -1.3568 -1.1343  1.3501
10387TIP3    H252577   2.198   0.337  10.755 -1.2754  0.8634 -0.1570
10388TIP3   OH252578   6.597   6.624  11.377 -0.0674 -0.9151 -0.1276
10388TIP3    H152579   6.531   6.555  11.369 -0.7596 -0.1164 -1.7876
10388TIP3    H252580   6.672   6.592  11.326  0.2984 -1.1921  0.5678
10389TIP3   OH252581   4.907   3.115   3.183  0.3692 -0.1247 -0.1677
10389TIP3    H152582   4.950   3.171   3.248 -0.0363 -1.0533  0.9319
10389TIP3    H252583   4.969   3.045   3.167 -0.4072 -1.1042  0.9185
10390TIP3   OH252584   3.055   6.507  16.477 -0.0927  0.1608 -0.2158
10390TIP3    H152585   3.128   6.564  16.453 -0.6052  1.1979  0.5804
10390TIP3    H252586   3.095   6.438  16.530  0.2923  0.8840  0.4634
10391TIP3   OH252587   4.510   6.271  16.502 -0.6215  0.3089 -0.2549
10391TIP3    H152588   4.424   6.231  16.487 -1.1039  1.2200 -0.0048
10391TIP3    H252589   4.490   6.362  16.525  0.2503 -0.0567  2.2769
10392TIP3   OH252590   2.997   3.034  15.590 -0.9713 -0.1350 -0.2991
10392TIP3    H152591   3.052   3.053  15.514  1.2480 -2.5995  0.5442
10392TIP3    H252592   2.922   2.986  15.553 -0.2038 -0.8015 -1.0236
10393TIP3   OH252593   4.279   3.229   4.229  0.3358 -0.4479 -0.5275
10393TIP3    H152594   4.228   3.310   4.233  0.2830 -0.5205  0.7009
10393TIP3    H252595   4.356   3.251   4.176 -1.4983 -0.6659 -3.5332
10394TIP3   OH252596   1.125   2.614   3.475 -0.4969 -0.0019 -0.0053
10394TIP3    H152597   1.041   2.619   3.521 -0.3996 -1.9705  0.4906
10394TIP3    H252598   1.102   2.589   3.386 -0.5389  1.5950 -0.4724
10395TIP3   OH252599   4.955   5.641  15.228  0.3188  0.0266  0.1114
10395TIP3    H152600   5.005   5.719  15.253  1.2632 -1.0809  1.9135
10395TIP3    H252601   5.019   5.569  15.233 -0.8890 -1.0891  0.0367
10396TIP3   OH252602   3.762   4.103  17.194  0.1874 -0.2867  0.6003
10396TIP3    H152603   3.812   4.183  17.212  1.7051 -0.1397 -3.2070
10396TIP3    H252604   3.696   4.131  17.130  0.6394 -2.0007 -0.6651
10397TIP3   OH252605   6.002   5.145   6.536 -0.2299 -0.2265  0.1134
10397TIP3    H152606   6.065   5.135   6.608 -1.0242 -0.2201  0.8276
10397TIP3    H252607   5.917   5.139   6.579 -0.7444  1.9502 -0.5106
10398TIP3   OH252608   0.126   6.468   3.942 -0.1060  0.4291 -0.3544
10398TIP3    H152609   0.112   6.416   3.863  0.7251  0.2685 -0.4018
10398TIP3    H252610   0.067   6.543   3.932 -0.7743 -0.1218 -0.6261
10399TIP3   OH252611   2.825   0.988   2.889  0.2325 -0.3144 -0.2194
10399TIP3    H152612   2.780   1.068   2.864  1.0636 -0.0774 -1.0303
10399TIP3    H252613   2.834   0.993   2.984 -0.1615  0.3147 -0.2151
10400TIP3   OH252614   6.360   5.788   1.317  0.3796 -0.5503 -0.3458
10400TIP3    H152615   6.423   5.860   1.319  0.5535 -0.6389 -1.7703
10400TIP3    H252616   6.378   5.739   1.397  0.7777  0.5489  0.2584
10401TIP3   OH252617   5.722   1.893  14.314 -0.5466 -0.2544 -0.6584
10401TIP3    H152618   5.746   1.929  14.229 -0.4884 -1.4717 -1.1874
10401TIP3    H252619   5.740   1.799  14.306 -1.9260 -0.6219  0.1890
10402TIP3   OH252620   4.965   5.540  14.409  0.5774 -0.4199  0.2112
10402TIP3    H152621   4.962   5.467  14.471  0.6781  1.4602  2.5884
10402TIP3    H252622   4.873   5.561  14.392  0.5382 -1.4705 -1.0232
10403TIP3   OH252623   0.444   1.340  13.994 -0.0868  0.0197  0.8653
10403TIP3    H152624   0.392   1.260  13.998 -0.0574 -0.1928 -1.4938
10403TIP3    H252625   0.384   1.406  13.959  0.6934  0.2637 -0.0362
10404TIP3   OH252626   3.268   6.294   2.120 -0.5166  0.3116 -0.5522
10404TIP3    H152627   3.236   6.351   2.191 -1.0662  0.9043 -1.2515
10404TIP3    H252628   3.200   6.300   2.053 -0.9453 -1.7722 -0.3612
10405TIP3   OH252629   4.367   0.560  16.317 -0.3269  1.2554  0.3886
10405TIP3    H152630   4.447   0.519  16.350  0.2459  1.7877 -0.3371
10405TIP3    H252631   4.375   0.652  16.341 -0.0069  1.6099 -0.9957
10406TIP3   OH252632   3.122   4.608  11.489 -0.5572  0.3360  0.0810
10406TIP3    H152633   3.129   4.635  11.398 -0.6160  0.8802  0.2362
10406TIP3    H252634   3.196   4.548  11.502  0.0374  1.0131 -0.0633
10407TIP3   OH252635   0.879   5.618  14.939 -0.2106 -0.0702 -0.4901
10407TIP3    H152636   0.859   5.709  14.919  0.3674  0.6081  1.6600
10407TIP3    H252637   0.968   5.621  14.976  0.0934 -1.6206 -0.9979
10408TIP3   OH252638   4.608   6.152  15.944 -0.3461 -0.2028  0.6100
10408TIP3    H152639   4.516   6.128  15.958 -0.4970 -0.9363 -1.2931
10408TIP3    H252640   4.604   6.241  15.911 -0.4533 -0.4999 -0.2004
10409TIP3   OH252641   1.566   0.841  11.463 -0.1504  0.4629 -0.4323
10409TIP3    H152642   1.645   0.893  11.475 -0.9418  1.7462 -0.6274
10409TIP3    H252643   1.529   0.831  11.551 -0.1390  0.4515 -0.4286
10410TIP3   OH252644   6.641   2.156   0.672 -0.7386  0.1401  0.0381
10410TIP3    H152645   6.559   2.180   0.627 -1.3272  0.4274  1.2249
10410TIP3    H252646   6.704   2.146   0.601 -1.3645  1.6679 -0.8024
10411TIP3   OH252647   6.743   1.642  15.771  0.0650 -1.0799  0.3318
10411TIP3    H152648   6.811   1.708  15.786 -0.8066 -0.1072  0.0705
10411TIP3    H252649   6.664   1.679  15.809 -1.2372 -0.4236 -2.6934
10412TIP3   OH252650   3.487   2.751   4.033  0.5676 -0.4034 -0.1337
10412TIP3    H152651   3.404   2.798   4.024 -1.1048 -3.0970  0.0995
10412TIP3    H252652   3.527   2.758   3.946 -0.2899  0.2550 -0.4945
10413TIP3   OH252653   4.775   4.950   3.683 -0.0088  0.2215 -0.0467
10413TIP3    H152654   4.764   4.979   3.774  0.2501 -1.3531  0.5249
10413TIP3    H252655   4.690   4.915   3.658  0.0688  0.1555 -0.2179
10414TIP3   OH252656   2.332   4.482  13.803 -0.4705  0.9605  0.4483
10414TIP3    H152657   2.313   4.457  13.712  1.7063  0.3764  0.0900
10414TIP3    H252658   2.249   4.518  13.836 -1.6436  0.0910 -1.3806
10415TIP3   OH252659   4.690   1.147  13.999 -0.4447  0.1581  0.1149
10415TIP3    H152660   4.697   1.060  13.961  1.8191  0.5577 -0.5364
10415TIP3    H252661   4.600   1.174  13.982 -0.6177 -1.2596 -1.4704
10416TIP3   OH252662   5.744   1.190  14.582  0.1008 -0.0444  0.6604
10416TIP3    H152663   5.740   1.127  14.654 -2.5637  0.8074  1.3807
10416TIP3    H252664   5.822   1.165  14.533  0.2601 -2.6305  2.0340
10417TIP3   OH252665   5.086   5.314  15.558  0.1131  0.5105  0.3805
10417TIP3    H152666   5.177   5.289  15.575 -0.3961 -0.6355  1.5687
10417TIP3    H252667   5.077   5.400  15.598  0.7509  0.7610  0.0022
10418TIP3   OH252668   0.325   2.055   4.560  0.2074 -0.0036  0.2460
10418TIP3    H152669   0.417   2.052   4.585  0.4612 -2.1013 -0.7411
10418TIP3    H252670   0.287   1.977   4.601 -0.9393  0.3742 -0.0777
10419TIP3   OH252671   2.189   2.966   3.728 -0.2120 -0.1946  0.3048
10419TIP3    H152672   2.191   3.057   3.699 -0.7628 -0.9730 -2.4472
10419TIP3    H252673   2.280   2.936   3.719 -0.2440 -0.2266  0.0811
10420TIP3   OH252674   5.852   0.780   1.801  0.4673 -0.5617 -0.0128
10420TIP3    H152675   5.938   0.739   1.809  0.8173  0.1928  0.1579
10420TIP3    H252676   5.796   0.711   1.766  1.2128 -0.9672 -0.4374
10421TIP3   OH252677   2.641   0.782  10.792  0.0790  0.4444 -0.0582
10421TIP3    H152678   2.615   0.691  10.776 -1.6558  0.3738  2.5938
10421TIP3    H252679   2.566   0.834  10.763  0.3474  0.8950  0.0481
10422TIP3   OH252680   3.277   6.282   1.726  0.1419  0.1189 -1.1335
10422TIP3    H152681   3.301   6.257   1.815 -0.7243  0.6952 -0.7230
10422TIP3    H252682   3.311   6.371   1.717  1.3973 -0.4049 -1.8645
10423TIP3   OH252683   1.139   6.252   5.895  0.2558  0.2150 -0.3271
10423TIP3    H152684   1.105   6.309   5.965  0.0654 -0.4381  0.1242
10423TIP3    H252685   1.061   6.228   5.844  0.3401  0.3897 -0.5373
10424TIP3   OH252686   0.747   0.112   5.592  0.1316  0.4638 -0.0761
10424TIP3    H152687   0.777   0.038   5.645 -0.7377  0.0842 -0.0825
10424TIP3    H252688   0.657   0.088   5.566  1.2195 -0.4437 -3.5989
10425TIP3   OH252689   1.071   2.829  11.160 -0.1604 -0.4825  0.2011
10425TIP3    H152690   1.145   2.872  11.117  0.3490 -1.8679 -0.3679
10425TIP3    H252691   1.016   2.901  11.191 -0.1258  0.5711 -2.0325
10426TIP3   OH252692   2.115   5.814   3.090  0.1483 -0.2837 -0.3430
10426TIP3    H152693   2.081   5.727   3.067  0.0613 -0.3020 -0.1562
10426TIP3    H252694   2.049   5.875   3.057  0.1067 -0.3012 -0.2934
10427TIP3   OH252695   5.430   3.277  14.222 -0.0446  0.0313 -0.3732
10427TIP3    H152696   5.494   3.289  14.292 -0.8652  1.2056  0.2102
10427TIP3    H252697   5.474   3.220  14.158  0.1984 -2.3275  1.7411
10428TIP3   OH252698   5.736   6.119   0.076  0.2247  0.2249 -0.5006
10428TIP3    H152699   5.794   6.177   0.125  1.4599 -1.7422  0.4333
10428TIP3    H252700   5.713   6.170  -0.003  0.3778  2.3710  0.7542
10429TIP3   OH252701   5.156   5.789  14.963 -0.0877 -0.4415 -0.2966
10429TIP3    H152702   5.226   5.854  14.967  0.0219 -0.6233  0.8074
10429TIP3    H252703   5.193   5.716  14.914  0.8794 -1.0017  1.2395
10430TIP3   OH252704   5.042   0.157  16.071  0.3416 -0.0965 -0.0768
10430TIP3    H152705   5.100   0.094  16.115  1.2138  1.2825  0.8322
10430TIP3    H252706   5.072   0.158  15.980  1.0745 -0.1507  0.1616
10431TIP3   OH252707   5.373   4.652  16.899  0.5254 -0.2033 -0.3689
10431TIP3    H152708   5.341   4.564  16.919  2.5559 -0.8157  0.4897
10431TIP3    H252709   5.437   4.639  16.829  1.2070  0.4992  0.1033
10432TIP3   OH252710   0.352   2.236   3.401 -0.1374  0.0864  0.4973
10432TIP3    H152711   0.410   2.200   3.334 -0.7171 -1.7465  0.9130
10432TIP3    H252712   0.400   2.224   3.483 -0.6834 -0.6077  0.7360
10433TIP3   OH252713   0.105   1.509  11.195  0.0167  0.4096 -0.1980
10433TIP3    H152714   0.071   1.543  11.112 -1.1783 -0.9406 -0.3047
10433TIP3    H252715   0.173   1.447  11.169 -0.2989  0.0503 -0.1780
10434TIP3   OH252716   3.206   5.168  14.186  0.5967  0.0773  0.1034
10434TIP3    H152717   3.225   5.234  14.120 -1.1517  0.1330 -0.3944
10434TIP3    H252718   3.167   5.096  14.136 -0.3887 -0.0381  1.0228
10435TIP3   OH252719   2.527   3.770   6.359 -0.2586 -0.3286  0.0961
10435TIP3    H152720   2.517   3.688   6.311 -0.7427  0.1693 -0.6690
10435TIP3    H252721   2.549   3.742   6.448 -1.7611 -1.3400  0.2076
10436TIP3   OH252722   0.027   0.220  16.138  0.0486  0.1536  0.2895
10436TIP3    H152723  -0.034   0.259  16.076  0.0331  1.9026  1.3389
10436TIP3    H252724   0.041   0.288  16.204 -0.8849 -2.0137  2.9105
10437TIP3   OH252725   1.417   6.536   4.998 -0.5466  0.4424 -0.0382
10437TIP3    H152726   1.431   6.496   4.912  2.8058 -0.0843  0.6105
10437TIP3    H252727   1.474   6.614   4.998 -1.6367  1.2842  1.2015
10438TIP3   OH252728   4.715   3.964  11.631 -0.1674  0.0776 -0.1727
10438TIP3    H152729   4.677   4.019  11.700  1.5164  1.1032 -0.0042
10438TIP3    H252730   4.755   3.890  11.678  1.3569  0.9970  0.0535
10439TIP3   OH252731   0.662   5.651  15.929 -0.3772  0.2619  0.3128
10439TIP3    H152732   0.610   5.577  15.963  0.7857 -0.2162  1.1014
10439TIP3    H252733   0.690   5.622  15.842 -1.1798  0.4039  0.0001
10440TIP3   OH252734   4.336   2.299  13.829  0.2223  0.5954 -0.0253
10440TIP3    H152735   4.430   2.297  13.848  0.3396  3.0035 -0.0279
10440TIP3    H252736   4.332   2.302  13.733  0.4009  4.0650 -0.0393
10441TIP3   OH252737   5.673   0.580  13.729  0.2024  0.0001  0.1695
10441TIP3    H152738   5.749   0.561  13.674 -0.0864  0.2449 -0.3197
10441TIP3    H252739   5.683   0.672  13.754 -1.5593  1.0704 -2.5732
10442TIP3   OH252740   2.950   1.974  11.511 -0.5946  0.3358  0.4036
10442TIP3    H152741   3.011   1.965  11.438 -0.8060  1.2162  0.1003
10442TIP3    H252742   3.002   1.953  11.588  0.3543  1.8944  0.2325
10443TIP3   OH252743   2.853   4.284  15.939  0.6893 -0.4468 -0.0385
10443TIP3    H152744   2.898   4.293  16.023  0.2322 -0.3502  0.2007
10443TIP3    H252745   2.760   4.289  15.962  0.5393 -1.3727 -0.4360
10444TIP3   OH252746   5.736   1.389  11.490  0.3342  0.3704 -0.2073
10444TIP3    H152747   5.676   1.332  11.442  1.7046 -3.0658  1.7689
10444TIP3    H252748   5.813   1.397  11.433  0.8045 -1.2542  0.1640
10445TIP3   OH252749   6.137   4.731   2.837  0.7491 -0.2466 -0.4290
10445TIP3    H152750   6.077   4.686   2.778  0.3192 -0.0281 -0.1635
10445TIP3    H252751   6.191   4.785   2.779  0.4405 -0.1567 -0.6360
10446TIP3   OH252752   0.206   3.249   4.902  0.5474  0.3940 -0.1483
10446TIP3    H152753   0.155   3.211   4.974  0.5557  0.1416 -0.2746
10446TIP3    H252754   0.144   3.256   4.829  0.7010  0.0504 -0.3138
10447TIP3   OH252755   0.344   5.758   6.373  0.0870  0.4245 -0.2926
10447TIP3    H152756   0.378   5.675   6.337  0.4431  0.7512 -0.7318
10447TIP3    H252757   0.255   5.764   6.338 -0.1539 -0.0615  0.2287
10448TIP3   OH252758   4.226   3.668  16.229  0.2824  0.4196  0.2745
10448TIP3    H152759   4.274   3.715  16.161  1.5472 -0.0470  0.8172
10448TIP3    H252760   4.167   3.609  16.180  0.9412  0.3261 -0.4199
10449TIP3   OH252761   6.100   0.549  11.410 -0.3511  0.2130  0.5936
10449TIP3    H152762   6.069   0.617  11.349  0.3271 -0.5360 -0.6411
10449TIP3    H252763   6.068   0.577  11.495 -1.2745  1.3536 -0.0921
10450TIP3   OH252764   4.306   1.247  14.109  0.5522 -0.1393  1.3391
10450TIP3    H152765   4.330   1.160  14.076  1.6649  1.3378 -2.2811
10450TIP3    H252766   4.213   1.255  14.088  0.9949  0.3579 -0.6109
10451TIP3   OH252767   1.636   4.651  13.073  0.1798  0.5044 -0.0993
10451TIP3    H152768   1.636   4.609  13.159  1.1365  1.0810  0.1932
10451TIP3    H252769   1.724   4.634  13.038 -0.4987 -0.5487 -1.3827
10452TIP3   OH252770   5.803   1.068  14.811  0.4348  0.7574 -0.0560
10452TIP3    H152771   5.887   1.101  14.780  0.7438  0.0944  0.0677
10452TIP3    H252772   5.815   0.973  14.819 -0.0720  0.7475  0.7309
10453TIP3   OH252773   5.576   3.203   4.204 -0.6879  0.4911 -0.2770
10453TIP3    H152774   5.579   3.180   4.111 -1.0054  0.1415 -0.2043
10453TIP3    H252775   5.656   3.166   4.241 -1.5299 -1.1751 -0.0196
10454TIP3   OH252776   2.321   0.721   4.823 -0.2738  0.1883  0.1079
10454TIP3    H152777   2.369   0.740   4.904  1.4168  0.2737 -0.8770
10454TIP3    H252778   2.280   0.636   4.841 -0.9425  0.7604  1.4769
10455TIP3   OH252779   4.110   6.571  15.506 -0.0246  0.5270 -0.0065
10455TIP3    H152780   4.063   6.530  15.433 -2.0828  0.6274  1.1935
10455TIP3    H252781   4.113   6.504  15.574 -0.2983  1.2095  0.6945
10456TIP3   OH252782   0.687   0.287   0.826  0.2263  0.4651  0.1366
10456TIP3    H152783   0.611   0.229   0.817  0.1420  0.5069  0.5886
10456TIP3    H252784   0.718   0.298   0.736 -0.3622  0.5206 -0.0700
10457TIP3   OH252785   6.431   0.327   4.640 -0.0575 -0.3050  0.3915
10457TIP3    H152786   6.432   0.403   4.582  1.1984 -0.6321 -0.0348
10457TIP3    H252787   6.370   0.351   4.710 -0.8917  0.4580 -0.5641
10458TIP3   OH252788   1.480   0.547  12.365 -0.4634  0.8332  0.6704
10458TIP3    H152789   1.539   0.513  12.298  0.9201 -1.3471  2.8062
10458TIP3    H252790   1.538   0.577  12.435 -1.8534  1.7657  1.4657
10459TIP3   OH252791   3.128   2.938   2.977  0.5486 -0.2207 -0.0852
10459TIP3    H152792   3.198   3.001   2.996 -0.8671  1.3602  0.0086
10459TIP3    H252793   3.167   2.853   3.000  2.4452  0.5971 -0.0604
10460TIP3   OH252794   1.330   4.720  16.925  0.3328  0.0946  0.5072
10460TIP3    H152795   1.273   4.734  17.000  0.6490  1.0626  0.5838
10460TIP3    H252796   1.418   4.714  16.962  0.5186  0.8240  0.2013
10461TIP3   OH252797   4.488   1.020   5.572  0.1130  0.3981  0.0275
10461TIP3    H152798   4.429   1.012   5.497  0.4159  1.1440 -0.2950
10461TIP3    H252799   4.485   1.112   5.595  1.0080  0.4095  0.1290
10462TIP3   OH252800   5.895   1.477   0.086  0.3544 -0.0407 -0.0995
10462TIP3    H152801   5.817   1.443   0.042  2.4008 -1.4979 -2.9141
10462TIP3    H252802   5.901   1.568   0.056  0.1578 -0.1471 -0.4690
10463TIP3   OH252803   4.147   0.750  10.264  0.1834  0.2979  0.0157
10463TIP3    H152804   4.096   0.670  10.278 -0.1617  0.6393  0.7876
10463TIP3    H252805   4.225   0.721  10.216 -1.1024 -0.1181 -1.9334
10464TIP3   OH252806   3.241   2.065  15.548  0.0155 -0.1194 -0.3933
10464TIP3    H152807   3.332   2.038  15.557 -0.1527 -0.9618 -1.0914
10464TIP3    H252808   3.235   2.099  15.458  0.1145  1.8747  0.3042
10465TIP3   OH252809   3.442   0.712  15.217 -0.4390 -0.5414  0.2346
10465TIP3    H152810   3.502   0.770  15.170 -0.3410 -0.7971  0.0388
10465TIP3    H252811   3.400   0.768  15.282  0.7030 -0.5521  1.0076
10466TIP3   OH252812   3.501   5.451  15.757 -0.2628  0.0457 -0.3044
10466TIP3    H152813   3.505   5.527  15.698 -2.8882  0.8722  0.4439
10466TIP3    H252814   3.503   5.488  15.845  0.7223 -0.9647  0.1280
10467TIP3   OH252815   5.932   3.087  16.457 -0.2321 -0.6120 -0.1434
10467TIP3    H152816   6.012   3.042  16.485  1.2969  1.5599 -0.7969
10467TIP3    H252817   5.927   3.070  16.363  0.5030  0.6836 -0.4492
10468TIP3   OH252818   1.963   0.688  12.299 -0.6255 -0.0155  0.3519
10468TIP3    H152819   1.889   0.729  12.345  1.2967  2.0932  1.7667
10468TIP3    H252820   1.945   0.706  12.206 -1.6355  0.9567  0.7020
10469TIP3   OH252821   1.255   3.262   3.406  0.3088 -0.0647  0.1804
10469TIP3    H152822   1.257   3.175   3.446  1.4669  0.8937  2.3786
10469TIP3    H252823   1.162   3.278   3.389 -0.2144 -0.7476  2.1253
10470TIP3   OH252824   3.365   4.029   1.951  0.2840 -0.2562  0.0309
10470TIP3    H152825   3.377   4.072   2.036  1.3856 -0.8135  0.1816
10470TIP3    H252826   3.272   4.039   1.932 -0.3695 -1.6428  2.1466
10471TIP3   OH252827   2.052   4.107   3.309 -0.3792 -0.9255 -0.2260
10471TIP3    H152828   1.981   4.061   3.354  0.9457 -2.0727  0.7617
10471TIP3    H252829   2.061   4.189   3.358 -1.7607 -0.2246 -1.0798
10472TIP3   OH252830   3.805   5.193  12.345 -0.1421  0.7172 -0.0877
10472TIP3    H152831   3.717   5.183  12.382 -0.3688 -0.6390 -0.9100
10472TIP3    H252832   3.789   5.201  12.251  0.6483 -0.6510 -0.3646
10473TIP3   OH252833   1.095   6.489   1.313 -0.3342  0.0775  0.4435
10473TIP3    H152834   1.175   6.498   1.366  0.4380 -2.5720 -0.1320
10473TIP3    H252835   1.039   6.432   1.365 -1.2788  0.7260  0.1620
10474TIP3   OH252836   5.943   0.088   0.532  0.1911  0.0757  0.3864
10474TIP3    H152837   5.861   0.138   0.544  0.3610  0.6120 -0.6245
10474TIP3    H252838   5.919  -0.002   0.556 -0.3216  0.4774  1.4820
10475TIP3   OH252839   2.889   4.582   3.374  0.3547 -0.2117  0.5476
10475TIP3    H152840   2.855   4.495   3.351  1.8777 -1.4342  2.5964
10475TIP3    H252841   2.970   4.590   3.324 -0.1209  0.3654 -0.1572
10476TIP3   OH252842   0.947   5.816   5.653  0.2240 -0.0506 -0.0533
10476TIP3    H152843   0.961   5.823   5.558  0.1031  0.7818 -0.0152
10476TIP3    H252844   1.033   5.833   5.691 -0.1052  1.5551  0.0452
10477TIP3   OH252845   5.777   2.720  12.429 -0.2203 -0.0731 -0.0972
10477TIP3    H152846   5.742   2.676  12.352 -1.7803  1.3177 -0.2377
10477TIP3    H252847   5.730   2.803  12.433  1.5239  0.9360  1.0155
10478TIP3   OH252848   2.803   5.703   2.756  0.0037  0.7096 -0.3347
10478TIP3    H152849   2.862   5.768   2.719  0.3877 -0.1501 -1.2434
10478TIP3    H252850   2.784   5.737   2.844  1.2173  1.3893 -0.3096
10479TIP3   OH252851   5.360   1.113   5.580 -0.5643  0.5193 -0.2036
10479TIP3    H152852   5.384   1.117   5.487 -0.9979 -0.7223 -0.3905
10479TIP3    H252853   5.434   1.152   5.626 -0.4927  1.4820 -1.0858
10480TIP3   OH252854   3.164   4.104  14.178 -0.0210  0.0705 -0.1119
10480TIP3    H152855   3.170   4.172  14.111  0.1148  0.5704  0.3962
10480TIP3    H252856   3.081   4.059  14.159  1.4174 -1.8020 -2.4464
10481TIP3   OH252857   1.946   3.895   2.862 -0.5338  0.1116 -0.2449
10481TIP3    H152858   1.912   3.915   2.949 -0.3448 -0.8965  0.0676
10481TIP3    H252859   1.868   3.867   2.813 -0.2121 -2.4557  0.5468
10482TIP3   OH252860   6.262   1.945   1.616 -0.3052  0.4136  0.5792
10482TIP3    H152861   6.216   1.930   1.534 -0.9889  0.2785  0.9783
10482TIP3    H252862   6.232   2.032   1.644 -0.9598 -0.0136  1.2455
10483TIP3   OH252863   0.860   3.933   0.540 -0.0600 -0.1657 -0.3714
10483TIP3    H152864   0.788   3.986   0.576  0.1101 -0.3419  0.2453
10483TIP3    H252865   0.834   3.914   0.451 -0.1840  0.8646 -0.5662
10484TIP3   OH252866   6.124   1.684   0.198 -0.0988  0.0768 -0.5399
10484TIP3    H152867   6.072   1.687   0.118  2.4216  0.1438 -2.2969
10484TIP3    H252868   6.190   1.616   0.183  0.7819  0.4455  1.2605
10485TIP3   OH252869   0.373   5.648  13.916 -0.1201 -0.1174 -0.1059
10485TIP3    H152870   0.435   5.668  13.986 -3.4591 -0.3550  3.2128
10485TIP3    H252871   0.325   5.730  13.902  0.1712 -0.2052 -1.9009
10486TIP3   OH252872   5.064   6.460   4.126  0.5805  0.4888 -0.1837
10486TIP3    H152873   5.083   6.553   4.114  1.1693  0.3989  0.0078
10486TIP3    H252874   5.005   6.457   4.201  1.2641  0.6446  0.3631
10487TIP3   OH252875   0.764   3.934  15.971  0.7094 -0.0742 -0.2708
10487TIP3    H152876   0.671   3.955  15.963  0.9575  2.0008  1.3839
10487TIP3    H252877   0.809   3.998  15.916  1.3275  2.2683  2.6853
10488TIP3   OH252878   2.159   2.034  11.016  0.0034  0.2125 -0.3115
10488TIP3    H152879   2.138   2.079  10.934 -1.5333  2.0112  0.9938
10488TIP3    H252880   2.074   2.012  11.054  0.7055 -1.2072  0.5054
10489TIP3   OH252881   5.073   4.010   0.810 -0.1774 -0.5093  0.4002
10489TIP3    H152882   5.078   4.028   0.904  1.1073 -0.6449  0.3747
10489TIP3    H252883   5.055   3.917   0.804  2.2416 -1.0736  0.5646
10490TIP3   OH252884   2.509   3.496  16.178  0.5665 -0.2373  0.4398
10490TIP3    H152885   2.546   3.539  16.255 -0.4671  0.0857  0.7728
10490TIP3    H252886   2.435   3.446  16.212 -0.1789  0.2670 -0.3948
10491TIP3   OH252887   2.393   0.625   4.285 -0.5068  0.2144  0.3644
10491TIP3    H152888   2.469   0.678   4.261 -0.3037 -0.0261  0.4799
10491TIP3    H252889   2.430   0.544   4.320 -0.8166  0.0249  0.2551
10492TIP3   OH252890   1.049   4.924   3.021  0.1677  0.3048  0.1229
10492TIP3    H152891   0.969   4.931   2.968  1.5612  0.4891 -2.0641
10492TIP3    H252892   1.086   5.012   3.020  1.0670 -0.0642  0.0064
10493TIP3   OH252893   3.241   5.350   6.153 -0.0803  0.5454 -0.8133
10493TIP3    H152894   3.188   5.292   6.099 -0.9033 -0.9512  1.4769
10493TIP3    H252895   3.182   5.421   6.177 -1.1355 -1.0232  1.5799
10494TIP3   OH252896   3.967   0.798  14.663  1.0131 -0.0139 -0.2261
10494TIP3    H152897   4.004   0.710  14.655 -1.2964 -0.9514 -1.4724
10494TIP3    H252898   3.941   0.822  14.574 -1.3747  0.5047  0.5172
10495TIP3   OH252899   2.712   0.364  11.321 -0.3401  0.1800  0.9434
10495TIP3    H152900   2.753   0.313  11.392 -1.9042 -2.2013  0.2521
10495TIP3    H252901   2.770   0.351  11.246  0.5542  1.5153  1.3714
10496TIP3   OH252902   6.110   1.140   2.012  0.3798 -0.2434  0.2772
10496TIP3    H152903   6.132   1.104   1.926 -1.0900 -1.5216  0.3921
10496TIP3    H252904   6.126   1.234   2.003  1.9905 -0.5859 -0.8091
10497TIP3   OH252905   2.112   0.499   4.401  0.2054  0.2330 -0.3428
10497TIP3    H152906   2.141   0.560   4.469 -1.2095 -1.1873  1.6538
10497TIP3    H252907   2.186   0.493   4.341  1.9555  0.7600  1.6427
10498TIP3   OH252908   5.225   4.018  15.179 -0.5689  0.0619  0.4929
10498TIP3    H152909   5.299   3.977  15.224 -0.5637 -0.7082 -0.2001
10498TIP3    H252910   5.238   4.112  15.192 -0.4943 -0.1350  1.9602
10499TIP3   OH252911   5.782   3.690   0.201  0.0436  0.2277 -0.1181
10499TIP3    H152912   5.837   3.708   0.125 -1.4287  4.1848 -0.4753
10499TIP3    H252913   5.842   3.694   0.275  0.8821  0.1643 -0.7717
10500TIP3   OH252914   0.590   3.067  15.380  0.6240 -0.3926 -0.8236
10500TIP3    H152915   0.677   3.101  15.359  0.7008 -0.2075 -0.2418
10500TIP3    H252916   0.601   3.025  15.466  0.0916 -0.1568 -0.6346
10501TIP3   OH252917   6.353   3.953  13.353  0.0891 -0.0432  0.1354
10501TIP3    H152918   6.304   4.033  13.336 -0.2508 -0.1972  0.3778
10501TIP3    H252919   6.410   3.974  13.427 -0.1160 -0.0743  0.3021
10502TIP3   OH252920   1.183   6.146   0.265  0.3746 -0.1793  0.0282
10502TIP3    H152921   1.104   6.098   0.240  1.0939 -0.4404 -2.0094
10502TIP3    H252922   1.176   6.159   0.359 -1.0151 -2.1602  0.2457
10503TIP3   OH252923   1.751   0.341   3.515  0.0174 -0.1870  0.2798
10503TIP3    H152924   1.724   0.266   3.569  1.2873 -0.0189  1.1955
10503TIP3    H252925   1.846   0.346   3.527 -0.0507  1.6114  0.2616
10504TIP3   OH252926   1.332   2.264   0.172  0.2617 -0.1957  0.0948
10504TIP3    H152927   1.329   2.241   0.079  1.2554  1.3995 -0.3738
10504TIP3    H252928   1.243   2.248   0.203  0.1486 -1.6907 -0.8719
10505TIP3   OH252929   4.108   4.660  10.830 -0.2193  0.1446  0.3538
10505TIP3    H152930   4.117   4.584  10.772 -2.3930 -1.7137  2.2439
10505TIP3    H252931   4.014   4.676  10.834  0.1995  3.4936 -0.5123
10506TIP3   OH252932   5.234   6.420  11.846  0.6097 -0.2775  0.7920
10506TIP3    H152933   5.147   6.396  11.815  0.4579  1.2086 -0.0489
10506TIP3    H252934   5.272   6.472  11.775  1.9816 -0.4376  1.3643
10507TIP3   OH252935   3.461   3.340   1.053 -0.0681 -0.8490  0.6653
10507TIP3    H152936   3.445   3.299   0.968 -3.6589 -1.0843  1.2936
10507TIP3    H252937   3.556   3.350   1.057  0.3364 -1.6342 -2.9613
10508TIP3   OH252938   6.769   2.951  14.620 -0.2256 -0.4283  1.1924
10508TIP3    H152939   6.678   2.930  14.598 -0.5135  1.4790  0.3990
10508TIP3    H252940   6.821   2.888  14.570 -1.0147  1.1739 -1.9255
10509TIP3   OH252941   1.039   2.807  14.830  0.0140 -0.7816 -0.3080
10509TIP3    H152942   1.020   2.786  14.921 -1.0005 -0.5684 -0.4661
10509TIP3    H252943   1.039   2.723  14.785 -3.7945 -0.6153 -0.8976
10510TIP3   OH252944   1.139   1.682  10.972 -0.3579 -1.0534 -0.4531
10510TIP3    H152945   1.063   1.687  10.913 -0.7273  1.5851  0.1031
10510TIP3    H252946   1.182   1.767  10.962  1.2185 -1.6319  0.9927
10511TIP3   OH252947   2.648   1.790  15.221 -0.0007  0.2941 -0.0701
10511TIP3    H152948   2.723   1.746  15.181 -1.4809  0.1290 -2.9426
10511TIP3    H252949   2.594   1.720  15.257 -0.7249 -0.0370 -1.6923
10512TIP3   OH252950   6.606   3.525  12.765 -0.4725 -0.2111 -0.3227
10512TIP3    H152951   6.680   3.559  12.816 -1.4729 -0.9041  1.7287
10512TIP3    H252952   6.641   3.509  12.678  1.0483  2.1982 -0.2486
10513TIP3   OH252953   5.947   5.342  13.142 -0.1875  0.2279  0.5819
10513TIP3    H152954   5.962   5.430  13.177 -0.5868 -0.1049  1.6222
10513TIP3    H252955   5.860   5.346  13.103 -1.5411 -0.4592  3.2803
10514TIP3   OH252956   0.063   4.866   3.000  0.1242  0.2889 -0.3516
10514TIP3    H152957   0.157   4.872   2.982  0.1412 -2.1333 -1.4586
10514TIP3    H252958   0.049   4.776   3.027 -1.7488  0.8988  0.9064
10515TIP3   OH252959   0.919   1.024  13.445  0.3421  0.0635 -0.2450
10515TIP3    H152960   0.848   0.982  13.493  1.3993 -1.8491 -0.2668
10515TIP3    H252961   0.897   1.013  13.353  0.7558 -0.7266 -0.2554
10516TIP3   OH252962   1.083   3.529   4.591 -0.2172 -0.0544  0.3859
10516TIP3    H152963   1.067   3.455   4.650 -0.1500 -1.3167 -1.0895
10516TIP3    H252964   1.165   3.506   4.546  0.9900  1.9914  1.4338
10517TIP3   OH252965   2.966   2.511  16.323 -0.7329 -0.2289  0.5495
10517TIP3    H152966   3.034   2.575  16.344 -0.9407  0.3499 -0.4859
10517TIP3    H252967   2.895   2.529  16.385 -0.9886  0.8824 -0.0410
10518TIP3   OH252968   6.213   0.791  13.621  0.6813  0.3667  0.3963
10518TIP3    H152969   6.258   0.769  13.703 -1.1025 -0.7841  1.1171
10518TIP3    H252970   6.212   0.710  13.571  1.2189  0.9092 -0.5268
10519TIP3   OH252971   4.546   2.343   3.531 -0.9096  0.2395  0.0012
10519TIP3    H152972   4.585   2.273   3.583 -1.7402  0.7556  1.3997
10519TIP3    H252973   4.620   2.396   3.503 -0.3709 -0.5268 -0.0607
10520TIP3   OH252974   6.739   0.233  15.858 -0.4043 -0.1556 -0.3065
10520TIP3    H152975   6.806   0.292  15.822 -0.7469  0.0977 -0.5325
10520TIP3    H252976   6.656   0.274  15.835 -0.6569 -0.9509 -0.8695
10521TIP3   OH252977   4.028   4.083   5.527 -0.0618 -0.3018 -0.5003
10521TIP3    H152978   4.067   4.075   5.614  0.3432  0.6816 -0.5880
10521TIP3    H252979   3.940   4.118   5.543  0.5171  1.2263 -0.5737
10522TIP3   OH252980   5.319   4.741  13.718 -0.1740 -0.3816 -0.2632
10522TIP3    H152981   5.230   4.706  13.715  0.2914 -1.6108 -2.6182
10522TIP3    H252982   5.309   4.835  13.701 -1.0218 -0.5722 -0.8463
10523TIP3   OH252983   2.464   2.922  17.083  0.3607  0.2082  0.4069
10523TIP3    H152984   2.540   2.979  17.097  0.0131  0.7493  0.1343
10523TIP3    H252985   2.451   2.879  17.167 -0.1598  1.5224  1.0326
10524TIP3   OH252986   6.326   0.703  11.176 -0.1362  0.0536  0.3192
10524TIP3    H152987   6.305   0.685  11.268 -0.0829  1.8781  0.7366
10524TIP3    H252988   6.244   0.692  11.129 -0.1647 -0.8827  0.5709
10525TIP3   OH252989   3.862   1.722   3.662 -0.5308  0.5819  0.5045
10525TIP3    H152990   3.925   1.652   3.646  0.7304  1.5923  0.8116
10525TIP3    H252991   3.789   1.679   3.706 -0.7726 -0.8910 -1.2254
10526TIP3   OH252992   3.820   2.517  16.758 -0.6002 -0.1766 -0.4577
10526TIP3    H152993   3.811   2.612  16.764  0.2207 -0.1079 -0.0551
10526TIP3    H252994   3.846   2.501  16.667  0.8103  0.1501 -0.1391
10527TIP3   OH252995   1.739   6.186   2.974 -0.2147 -0.1164  0.0973
10527TIP3    H152996   1.682   6.167   2.900 -2.1371  1.4500  1.0881
10527TIP3    H252997   1.703   6.136   3.047 -0.3809  0.8951  0.7354
10528TIP3   OH252998   6.199   2.660  13.725 -0.5989  0.4501  0.1005
10528TIP3    H152999   6.219   2.569  13.746  1.1799  1.2329  2.2130
10528TIP3    H253000   6.118   2.678  13.773 -1.0664 -0.0529 -0.4836
10529TIP3   OH253001   4.936   6.714  12.454  0.0621 -0.2297  0.0878
10529TIP3    H153002   4.949   6.620  12.439 -0.1189 -0.2119 -0.1916
10529TIP3    H253003   4.865   6.718  12.518  0.3105 -0.2908  0.3673
10530TIP3   OH253004   5.719   3.524  13.732  0.1048 -0.3690  0.0424
10530TIP3    H153005   5.777   3.448  13.726 -0.7733 -1.0480 -0.0415
10530TIP3    H253006   5.632   3.490  13.708 -0.3361  0.6176  0.1926
10531TIP3   OH253007   3.054   4.974   5.091 -1.2060 -0.3760  0.5354
10531TIP3    H153008   3.079   4.990   5.182 -0.1762 -0.9285  0.3560
10531TIP3    H253009   3.130   4.932   5.051 -0.7833  1.7938 -1.1548
10532TIP3   OH253010   1.430   3.446   1.501 -0.4293 -0.1034  0.2700
10532TIP3    H153011   1.513   3.486   1.527 -0.0191 -0.1945 -0.8098
10532TIP3    H253012   1.398   3.503   1.431 -0.8301 -0.5575  0.0799
10533TIP3   OH253013   0.429   4.225   1.677 -0.1918  0.1234  0.3539
10533TIP3    H153014   0.384   4.308   1.692  0.2680  0.3952  0.2144
10533TIP3    H253015   0.522   4.247   1.674 -0.0142 -0.4897  0.9856
10534TIP3   OH253016   5.512   5.505   0.489  0.2739 -0.1346 -0.3416
10534TIP3    H153017   5.606   5.526   0.495  0.2340  0.4832 -1.6490
10534TIP3    H253018   5.496   5.493   0.396 -0.6933 -1.5553 -0.0274
10535TIP3   OH253019   1.550   2.089   1.217 -0.2323 -0.2371 -0.0603
10535TIP3    H153020   1.487   2.135   1.161  0.6412  0.9772 -0.0752
10535TIP3    H253021   1.497   2.027   1.267 -1.5363  1.1532  0.3386
10536TIP3   OH253022   0.263   6.662  10.649  0.1704 -0.1094  0.5985
10536TIP3    H153023   0.192   6.677  10.588 -0.0735  0.4011  1.0005
10536TIP3    H253024   0.226   6.605  10.716  0.7681 -1.6512 -0.3209
10537TIP3   OH253025   2.516   4.125  11.760  0.1421  0.1809 -0.0506
10537TIP3    H153026   2.576   4.142  11.688 -0.6771 -0.9475 -1.0472
10537TIP3    H253027   2.553   4.049  11.805  0.0503  0.1837  0.0308
10538TIP3   OH253028   0.753   6.119   2.899 -0.2807 -0.3831 -0.2339
10538TIP3    H153029   0.721   6.181   2.964  0.5548 -2.1613  1.9800
10538TIP3    H253030   0.834   6.084   2.936 -0.3261 -2.2370 -1.7356
10539TIP3   OH253031   1.959   0.819   4.530  0.4462  0.3720 -0.1381
10539TIP3    H153032   1.978   0.913   4.538 -1.2497  0.6748  1.0111
10539TIP3    H253033   1.869   0.816   4.496  0.4798 -0.8352 -0.1431
10540TIP3   OH253034   5.430   2.426  14.653 -0.3937 -0.1617  0.4133
10540TIP3    H153035   5.353   2.445  14.707 -0.3937  1.1779 -0.0203
10540TIP3    H253036   5.482   2.506  14.657 -0.2251 -0.1604 -1.2813
10541TIP3   OH253037   3.436   1.765   0.725 -0.3987  0.0375 -0.2243
10541TIP3    H153038   3.531   1.774   0.733 -0.2035 -1.1611 -0.9836
10541TIP3    H253039   3.423   1.679   0.687 -1.7506  0.6693 -1.2910
10542TIP3   OH253040   2.286   1.253   1.708  1.0663 -0.1544 -0.1372
10542TIP3    H153041   2.260   1.256   1.800  3.7397  3.0564  0.7144
10542TIP3    H253042   2.332   1.170   1.700  1.6227 -0.0919  1.7538
10543TIP3   OH253043   4.652   4.196   5.519  0.7372 -0.3921 -0.1800
10543TIP3    H153044   4.655   4.125   5.455 -0.7809 -0.0615 -0.6588
10543TIP3    H253045   4.669   4.276   5.468 -0.4657 -0.1293 -0.1997
10544TIP3   OH253046   5.186   0.857   4.025  0.0533 -0.3596 -0.0984
10544TIP3    H153047   5.216   0.824   3.940  1.4027 -0.4732  0.3926
10544TIP3    H253048   5.172   0.950   4.011 -3.3864 -0.9421 -1.3899
10545TIP3   OH253049   5.476   1.256   4.310  0.1238 -0.2028  0.4905
10545TIP3    H153050   5.465   1.164   4.332 -2.1803  0.0750  0.7435
10545TIP3    H253051   5.412   1.272   4.240  0.6113  1.1701  0.3215
10546TIP3   OH253052   1.735   1.686  17.097  0.0664 -1.0711 -0.1266
10546TIP3    H153053   1.649   1.663  17.064  0.4187 -0.3617 -1.6351
10546TIP3    H253054   1.743   1.781  17.082  0.0137 -0.5502  2.6618
10547TIP3   OH253055   2.564   3.974   5.264 -0.4169  0.0112  0.8024
10547TIP3    H153056   2.636   3.991   5.203 -2.6488 -0.0535 -2.0369
10547TIP3    H253057   2.581   3.885   5.297  2.6696  1.2860  3.1849
10548TIP3   OH253058   3.220   6.689   5.102  0.1884 -0.1735 -0.8387
10548TIP3    H153059   3.255   6.763   5.053  1.6900  0.2151  0.7233
10548TIP3    H253060   3.170   6.729   5.173  0.3902 -0.6580 -0.4178
10549TIP3   OH253061   2.456   2.102  12.472  0.5948  0.1141  0.5783
10549TIP3    H153062   2.390   2.159  12.511  1.1291 -0.1822  1.9898
10549TIP3    H253063   2.407   2.042  12.416 -0.0729  1.3076 -0.1512
10550TIP3   OH253064   2.082   0.347  14.547 -0.0312 -0.0326  0.9185
10550TIP3    H153065   1.993   0.366  14.520 -0.5865  1.5761  3.4907
10550TIP3    H253066   2.080   0.254  14.571 -0.6290 -0.3468 -0.2940
10551TIP3   OH253067   6.459   4.522  14.025 -0.8939  0.7130 -0.4790
10551TIP3    H153068   6.449   4.569  14.107 -1.0747  1.3091 -0.8377
10551TIP3    H253069   6.507   4.442  14.048  1.0029  1.8920 -0.1486
10552TIP3   OH253070   1.049   5.690   0.629 -0.3885  0.6450  0.2274
10552TIP3    H153071   1.113   5.709   0.697 -1.1185  0.0550  1.0967
10552TIP3    H253072   1.074   5.603   0.597 -0.0600  0.9114 -0.2645
10553TIP3   OH253073   3.935   5.107   3.558 -0.0337 -0.3416 -0.2843
10553TIP3    H153074   3.919   5.198   3.536 -1.8615 -0.3987  0.6510
10553TIP3    H253075   3.911   5.099   3.650  0.5595 -1.6592 -0.2178
10554TIP3   OH253076   2.188   1.987   4.282  0.1822 -0.0897  0.2685
10554TIP3    H153077   2.120   1.936   4.236  1.4210  0.3176 -2.2195
10554TIP3    H253078   2.168   2.078   4.260 -0.7000  0.3973  2.8246
10555TIP3   OH253079   5.719   3.256   3.681 -0.5445 -0.3959 -0.4611
10555TIP3    H153080   5.724   3.207   3.599  1.9660 -0.6815 -0.1953
10555TIP3    H253081   5.711   3.348   3.654  2.5341 -0.2399 -1.1646
10556TIP3   OH253082   3.546   0.802  12.973  0.1860  0.2960  0.0469
10556TIP3    H153083   3.618   0.856  13.005 -0.9348  2.1081 -0.3139
10556TIP3    H253084   3.587   0.737  12.916  1.8387 -0.7639  2.2632
10557TIP3   OH253085   3.406   1.107  11.947  0.3684  0.2772  0.2007
10557TIP3    H153086   3.325   1.147  11.980  0.1361  1.2629 -1.4461
10557TIP3    H253087   3.463   1.182  11.928  0.7341 -0.2852 -0.9599
10558TIP3   OH253088   5.056   2.764   5.090 -0.4084 -0.4151 -0.1594
10558TIP3    H153089   4.989   2.828   5.114 -0.6481 -1.1410  1.2088
10558TIP3    H253090   5.022   2.722   5.011 -0.3506  0.9565 -0.9462
10559TIP3   OH253091   6.028   4.944   1.697  0.4496 -0.1989  0.2281
10559TIP3    H153092   6.077   4.979   1.622  1.5690 -0.1565  0.9493
10559TIP3    H253093   6.077   4.867   1.724 -0.0188 -0.2967  0.8313
10560TIP3   OH253094   6.249   4.844   4.915 -0.0122 -0.1132  0.0369
10560TIP3    H153095   6.270   4.928   4.956  1.2520 -0.4344  0.0791
10560TIP3    H253096   6.265   4.780   4.984  1.8377 -0.6340 -0.8250
10561TIP3   OH253097   0.102   0.777   4.989  0.6346 -0.1332 -0.6881
10561TIP3    H153098   0.022   0.826   5.007  1.6105  0.5601  2.4701
10561TIP3    H253099   0.078   0.686   5.007  0.8302  0.2418  1.9397
10562TIP3   OH253100   2.608   2.094  11.906 -0.4587  0.0258  0.2161
10562TIP3    H153101   2.684   2.076  11.961 -0.5109  1.0109  0.6328
10562TIP3    H253102   2.551   2.019  11.920  0.4682 -0.7826 -0.1837
10563TIP3   OH253103   5.749   5.287  14.808 -0.3718  0.2529 -0.0831
10563TIP3    H153104   5.797   5.368  14.827  0.9694 -0.4128 -0.4998
10563TIP3    H253105   5.815   5.218  14.814 -1.8748 -1.1213  2.3015
10564TIP3   OH253106   2.206   1.961  15.401 -0.2231  0.1621 -0.7778
10564TIP3    H153107   2.219   2.053  15.424  0.7350 -0.3168  0.7094
10564TIP3    H253108   2.240   1.954  15.312  0.7474  1.0156 -0.4919
10565TIP3   OH253109   1.273   4.712   5.053  0.1278 -0.2553 -0.1742
10565TIP3    H153110   1.281   4.807   5.060  0.0489 -0.1126 -1.6379
10565TIP3    H253111   1.183   4.693   5.081 -0.5411  0.3635 -1.7886
10566TIP3   OH253112   6.199   5.066   3.800 -0.1361  0.0565  0.2039
10566TIP3    H153113   6.112   5.027   3.803  0.6249 -1.7590  0.1873
10566TIP3    H253114   6.249   5.016   3.865  0.9301  0.9483  0.0853
10567TIP3   OH253115   5.130   2.868   3.725 -0.1397  0.0591 -0.1164
10567TIP3    H153116   5.076   2.815   3.784 -1.8712  0.0905 -1.5632
10567TIP3    H253117   5.202   2.899   3.779 -0.3133 -1.9055  1.3374
10568TIP3   OH253118   5.468   0.235  12.260 -0.6883 -0.1046 -0.6513
10568TIP3    H153119   5.384   0.262  12.224  0.0902  1.2256 -1.5567
10568TIP3    H253120   5.483   0.295  12.333  0.1431  0.6709 -1.4308
10569TIP3   OH253121   4.993   4.815   5.618  0.4545 -0.2057 -0.1099
10569TIP3    H153122   5.046   4.735   5.619  1.1289  0.1580  2.8645
10569TIP3    H253123   4.912   4.790   5.664  0.4684  0.6588  0.4166
10570TIP3   OH253124   0.585   4.440  12.687 -0.1202  0.5474  0.1853
10570TIP3    H153125   0.627   4.523  12.711 -0.3457  0.5100  0.7186
10570TIP3    H253126   0.494   4.451  12.712 -0.1407  0.1195  0.3078
10571TIP3   OH253127   5.314   6.335   6.365 -0.2516  0.2049 -0.2417
10571TIP3    H153128   5.361   6.268   6.414 -1.7623 -0.9260 -0.2410
10571TIP3    H253129   5.287   6.399   6.431 -0.0156  0.0662 -0.0087
10572TIP3   OH253130   1.958   3.929  14.878 -0.0726 -0.7480  0.1824
10572TIP3    H153131   1.910   3.861  14.832 -0.1089 -0.4706 -0.1974
10572TIP3    H253132   2.049   3.921  14.846 -0.3378  0.2592 -0.9366
10573TIP3   OH253133   4.304   2.951   3.653  0.3009  0.4429  0.1114
10573TIP3    H153134   4.308   2.958   3.558  0.0137  0.0048  0.0609
10573TIP3    H253135   4.286   2.858   3.669 -0.9755  0.7484  0.5443
10574TIP3   OH253136   6.555   0.199  10.748  0.2066 -0.4163 -0.0786
10574TIP3    H153137   6.553   0.178  10.841  0.8243 -0.6773 -0.1198
10574TIP3    H253138   6.466   0.226  10.727  0.5809  2.1131  1.1491
10575TIP3   OH253139   0.180   5.025   0.131 -0.0230 -0.0157 -0.6874
10575TIP3    H153140   0.183   4.929   0.136 -0.3098 -0.0134 -0.4668
10575TIP3    H253141   0.100   5.043   0.082  0.5275  0.0861 -1.5756
10576TIP3   OH253142   4.744   5.580  12.688 -0.6103  0.4101  0.0493
10576TIP3    H153143   4.743   5.497  12.737 -1.4148  0.4462  0.0958
10576TIP3    H253144   4.653   5.608  12.686 -0.5070  0.6954 -1.0035
10577TIP3   OH253145   2.055   2.582   3.072  0.3236  0.5923  0.1952
10577TIP3    H153146   2.127   2.557   3.130  0.8239  0.8425 -0.3008
10577TIP3    H253147   2.072   2.675   3.053  0.8381  0.2310 -1.2676
10578TIP3   OH253148   4.193   2.810  11.111 -0.2969  0.1877  0.3899
10578TIP3    H153149   4.107   2.838  11.080 -0.8847 -1.0544  0.8166
10578TIP3    H253150   4.201   2.848  11.198  0.0305  1.1343 -0.0425
10579TIP3   OH253151   4.568   2.013  11.915  0.3348 -0.4942  0.0219
10579TIP3    H153152   4.488   2.054  11.947  0.6364 -0.6506  1.0194
10579TIP3    H253153   4.539   1.954  11.846 -0.3120  0.0148 -0.1539
10580TIP3   OH253154   6.058   4.781   1.162  0.2203 -0.6152  0.0991
10580TIP3    H153155   6.050   4.733   1.079 -2.0849  0.5165 -0.4196
10580TIP3    H253156   6.065   4.873   1.136 -1.7882 -0.1193  1.1252
10581TIP3   OH253157   1.963   2.925  15.779 -0.0880  0.2844 -0.3828
10581TIP3    H153158   2.019   2.983  15.727 -0.0157  2.1894  1.6760
10581TIP3    H253159   2.017   2.847  15.794  1.2622  1.2175 -0.1784
10582TIP3   OH253160   6.502   2.227  13.729 -0.2095 -0.0094 -0.1123
10582TIP3    H153161   6.557   2.193  13.798  0.8894  1.6217 -0.1221
10582TIP3    H253162   6.562   2.273  13.670 -1.3087 -0.0452 -1.3223
10583TIP3   OH253163   1.582   2.144   2.926  0.3302  0.1731  0.9707
10583TIP3    H153164   1.607   2.132   2.834  0.3728 -0.4339  1.0564
10583TIP3    H253165   1.660   2.178   2.968  0.3767  0.2458  0.8283
10584TIP3   OH253166   2.535   4.136  13.411  0.3775  0.1803 -0.0536
10584TIP3    H153167   2.556   4.153  13.319 -0.7669  0.3275 -0.3034
10584TIP3    H253168   2.562   4.045  13.426 -1.0187 -0.4291 -1.0409
10585TIP3   OH253169   6.053   0.694   5.471 -0.3828 -0.4157 -0.0126
10585TIP3    H153170   5.996   0.771   5.477 -0.4519 -0.2863 -1.8354
10585TIP3    H253171   6.140   0.726   5.497 -0.6944 -0.0886  0.6424
10586TIP3   OH253172   1.590   1.658   2.929 -0.1420  1.2499 -0.0372
10586TIP3    H153173   1.507   1.619   2.903 -0.5687  2.6673 -0.8936
10586TIP3    H253174   1.589   1.746   2.892  0.9193  1.9887  1.5390
10587TIP3   OH253175   2.354   5.892   3.753 -0.1907 -0.4302  0.3346
10587TIP3    H153176   2.340   5.951   3.679 -0.5119 -0.7813  0.1145
10587TIP3    H253177   2.300   5.816   3.734 -0.7549 -0.2629  1.2382
10588TIP3   OH253178   4.070   2.534   6.114  0.5439  0.5690  0.1032
10588TIP3    H153179   4.100   2.468   6.050  2.3624  1.3650  0.0747
10588TIP3    H253180   4.140   2.537   6.179 -0.5521  0.9243  1.2988
10589TIP3   OH253181   4.833   4.772   2.104 -0.0836  0.3318  0.3490
10589TIP3    H153182   4.840   4.803   2.014  3.1845  1.1182  0.7664
10589TIP3    H253183   4.771   4.832   2.146 -0.5125  0.8586 -0.9904
10590TIP3   OH253184   3.996   4.350   0.914 -0.0273 -0.1693  0.0741
10590TIP3    H153185   3.912   4.305   0.907 -0.3515  0.4803 -0.4055
10590TIP3    H253186   3.984   4.413   0.985  0.0871 -0.1476  0.0748
10591TIP3   OH253187   0.772   0.891  15.933  0.3045  0.4443 -0.4561
10591TIP3    H153188   0.742   0.869  16.021  3.1321 -1.9095  0.0949
10591TIP3    H253189   0.823   0.971  15.944 -0.0520  0.6247 -0.1144
10592TIP3   OH253190   4.216   5.083  13.437 -0.0586  0.1231 -0.0425
10592TIP3    H153191   4.133   5.088  13.486  0.1525 -0.4393  0.3766
10592TIP3    H253192   4.277   5.040  13.497  0.5955  0.6991 -0.2837
10593TIP3   OH253193   4.910   4.545  15.029  0.4188 -0.3853 -0.2320
10593TIP3    H153194   4.827   4.548  15.077  0.6867  1.3213  0.2015
10593TIP3    H253195   4.939   4.454  15.037  0.0246 -0.3816  2.1712
10594TIP3   OH253196   6.614   6.020  16.323 -0.1560 -0.2105  0.3605
10594TIP3    H153197   6.521   6.037  16.333  0.0413 -0.5405  3.7917
10594TIP3    H253198   6.630   5.940  16.373  1.9341 -0.3327 -0.3861
10595TIP3   OH253199   3.101   5.862  16.608  0.6337  0.2455  0.4933
10595TIP3    H153200   3.012   5.834  16.588  0.8317  1.0873 -1.9613
10595TIP3    H253201   3.091   5.954  16.634  0.6405 -0.1881  2.1563
10596TIP3   OH253202   5.110   5.189  12.218  0.0533 -0.1107 -0.9755
10596TIP3    H153203   5.078   5.099  12.219  1.0695 -0.5646  2.1424
10596TIP3    H253204   5.035   5.242  12.190 -2.0972 -1.5289  1.6413
10597TIP3   OH253205   0.202   2.047  11.012 -0.3344  0.0097  0.4085
10597TIP3    H153206   0.128   1.998  10.975  0.3681 -0.9712  0.2390
10597TIP3    H253207   0.217   2.118  10.950 -1.1348  0.2218  0.4486
10598TIP3   OH253208   5.614   0.375  13.895  0.0393  0.3642 -0.2601
10598TIP3    H153209   5.602   0.441  13.826 -1.7933 -0.3050 -0.6401
10598TIP3    H253210   5.529   0.370  13.939  0.3202 -1.2692  0.1784
10599TIP3   OH253211   2.229   6.602   4.061 -0.1119 -0.2632 -0.2801
10599TIP3    H153212   2.182   6.685   4.055  1.9883  1.0104 -0.0558
10599TIP3    H253213   2.192   6.548   3.992 -0.5685  1.3756 -1.3759
10600TIP3   OH253214   3.522   1.132  11.578  0.2620 -0.1156 -0.0733
10600TIP3    H153215   3.531   1.204  11.640 -0.3330  0.4774 -0.6570
10600TIP3    H253216   3.484   1.172  11.500 -0.6251 -1.1628 -0.2090
10601TIP3   OH253217   0.237   3.503  15.934 -0.6663 -0.3395  0.1939
10601TIP3    H153218   0.271   3.579  15.981  2.3519  1.2330 -3.9337
10601TIP3    H253219   0.309   3.440  15.934 -0.6304 -0.3772 -1.8954
10602TIP3   OH253220   4.416   2.747   4.561  0.4481 -0.4010 -0.1248
10602TIP3    H153221   4.338   2.802   4.563  0.6563 -0.1150  0.1639
10602TIP3    H253222   4.483   2.798   4.606  0.0322 -1.7984  2.2696
10603TIP3   OH253223   2.215   6.269   2.740 -0.0417  0.1490  0.1445
10603TIP3    H153224   2.149   6.311   2.796 -1.1294  0.3895 -1.2495
10603TIP3    H253225   2.175   6.269   2.653  0.6723 -2.2246 -0.2359
10604TIP3   OH253226   3.790   4.808  11.575  0.6938  0.0875 -0.1666
10604TIP3    H153227   3.712   4.839  11.530 -0.0536 -0.0733  0.9540
10604TIP3    H253228   3.818   4.882  11.629 -1.0022 -0.9584  2.3880
10605TIP3   OH253229   1.694   4.939   6.380  1.0050  0.5017  0.6317
10605TIP3    H153230   1.651   5.024   6.392  1.5734  0.8343  0.3946
10605TIP3    H253231   1.643   4.878   6.432  0.6702  1.0203  0.9209
10606TIP3   OH253232   0.595   4.459  16.905  0.1599 -0.0484  0.2372
10606TIP3    H153233   0.684   4.494  16.912 -0.6424  2.2653 -0.1163
10606TIP3    H253234   0.571   4.471  16.813 -1.0308  0.8145  0.6299
10607TIP3   OH253235   3.509   4.853   5.350  0.1452 -0.0054 -0.5209
10607TIP3    H153236   3.425   4.895   5.366  0.0568 -0.2831 -0.2436
10607TIP3    H253237   3.573   4.924   5.348 -0.0678  0.1835 -0.5282
10608TIP3   OH253238   0.816   2.359  11.886 -0.3307 -0.1896 -0.0496
10608TIP3    H153239   0.776   2.437  11.847 -0.6498  0.7723  2.0372
10608TIP3    H253240   0.788   2.287  11.830  0.5680  1.2372 -2.4697
10609TIP3   OH253241   6.461   2.604  11.436 -0.4888  0.3447 -0.5798
10609TIP3    H153242   6.406   2.681  11.425 -0.3408  0.8266  1.5465
10609TIP3    H253243   6.484   2.604  11.529  0.4193 -1.6636 -0.7411
10610TIP3   OH253244   5.115   3.056   4.448  0.1097  0.1874  0.0869
10610TIP3    H153245   5.060   3.047   4.526  2.7671  1.8744  2.3297
10610TIP3    H253246   5.068   3.117   4.392 -0.6268  1.0988  1.6361
10611TIP3   OH253247   3.484   2.043  12.492  0.1389 -0.1061 -0.4165
10611TIP3    H153248   3.564   2.046  12.545 -0.0359 -3.3060  0.2337
10611TIP3    H253249   3.420   2.094  12.542  1.5048  1.9164 -0.6056
10612TIP3   OH253250   1.484   4.901  16.235 -0.3406 -0.0056  0.5883
10612TIP3    H153251   1.450   4.987  16.209 -0.0856  0.6192  2.1906
10612TIP3    H253252   1.438   4.839  16.179 -0.6213  1.1577 -0.5290
10613TIP3   OH253253   1.749   5.740  10.978  0.0202  0.2429  0.0753
10613TIP3    H153254   1.669   5.777  10.942  0.7059  2.6046  0.8249
10613TIP3    H253255   1.733   5.733  11.072  0.4835  0.1266  0.1533
10614TIP3   OH253256   4.125   2.835   6.552 -0.0166 -0.4111  0.0564
10614TIP3    H153257   4.172   2.841   6.468  1.4188 -0.3213  0.8389
10614TIP3    H253258   4.110   2.926   6.577 -1.9754 -0.4253 -0.8913
10615TIP3   OH253259   4.826   4.706   5.388 -0.2838  0.6736 -0.2012
10615TIP3    H153260   4.894   4.718   5.454  1.1411 -1.0556 -1.2627
10615TIP3    H253261   4.858   4.753   5.311  0.8087 -1.7991 -1.3655
10616TIP3   OH253262   1.823   5.821  14.060 -0.5293 -0.1400  0.1705
10616TIP3    H153263   1.914   5.793  14.063 -0.9776 -1.6096  1.5858
10616TIP3    H253264   1.826   5.909  14.021  1.4684 -0.1412  0.2225
10617TIP3   OH253265   4.807   0.979  11.274 -0.3770 -0.4032 -0.6405
10617TIP3    H153266   4.830   1.042  11.205  1.2467  0.1941  0.3884
10617TIP3    H253267   4.885   0.924  11.283 -0.4677 -0.3109  0.8741
10618TIP3   OH253268   3.066   2.309   4.251  0.9974 -0.3465  0.5750
10618TIP3    H153269   3.062   2.261   4.334  1.3741 -0.5395  0.4834
10618TIP3    H253270   3.108   2.249   4.190  1.4911  0.1106  0.4615
10619TIP3   OH253271   6.608   1.959  11.379 -0.0502 -0.0935  0.3752
10619TIP3    H153272   6.622   1.895  11.309  1.0181  1.0070 -0.4820
10619TIP3    H253273   6.694   1.999  11.391 -0.5104  0.6007  1.4638
10620TIP3   OH253274   2.123   2.843   3.066 -0.3932  0.3369 -0.5528
10620TIP3    H153275   2.194   2.856   3.130  0.1801 -0.3594 -1.0279
10620TIP3    H253276   2.167   2.849   2.981 -1.2930  2.2123 -0.9490
10621TIP3   OH253277   3.132   5.987   1.100 -0.0708  0.1605 -0.1226
10621TIP3    H153278   3.108   5.894   1.103  0.1310  0.1270  1.3078
10621TIP3    H253279   3.069   6.029   1.160  0.5213  0.7698  0.0835
10622TIP3   OH253280   2.726   4.957   0.893 -0.3909 -0.2254  0.2780
10622TIP3    H153281   2.711   5.046   0.925 -0.7855  0.1153 -0.7986
10622TIP3    H253282   2.761   4.970   0.804  0.9082 -1.1173  0.6377
10623TIP3   OH253283   1.434   5.296   6.024 -0.6714 -0.1361  0.0669
10623TIP3    H153284   1.445   5.237   6.099  0.6046 -0.0361 -0.0239
10623TIP3    H253285   1.354   5.345   6.044 -0.6245 -0.4547  1.1304
10624TIP3   OH253286   4.041   1.271  14.024  0.4859 -0.8088  0.0517
10624TIP3    H153287   4.075   1.333  13.959 -0.2618 -1.6029 -1.1501
10624TIP3    H253288   3.981   1.323  14.077 -0.4424 -0.5570 -1.2002
10625TIP3   OH253289   4.758   5.619  15.004 -0.2964 -0.1194 -0.1471
10625TIP3    H153290   4.794   5.698  14.965  0.8774 -0.7658 -0.3899
10625TIP3    H253291   4.782   5.625  15.097 -0.1080 -0.2594 -0.1889
10626TIP3   OH253292   1.247   4.913   2.698  0.1263  0.1078 -0.4453
10626TIP3    H153293   1.248   4.822   2.726 -1.5522 -0.0886 -0.8751
10626TIP3    H253294   1.339   4.936   2.685  0.5833 -1.4721 -0.1985
10627TIP3   OH253295   3.936   6.666   3.385 -0.2081 -0.1651 -0.4676
10627TIP3    H153296   4.026   6.670   3.417 -1.3375 -0.1153  3.2200
10627TIP3    H253297   3.913   6.757   3.366 -0.2942  0.2701  1.4876
10628TIP3   OH253298   3.917   5.319   2.787 -0.8237  0.5378 -0.1068
10628TIP3    H153299   3.830   5.315   2.747 -0.4712 -0.4709 -0.8224
10628TIP3    H253300   3.903   5.298   2.879 -1.2191 -0.7324 -0.4403
10629TIP3   OH253301   0.706   1.558  12.488  0.2557 -0.0282 -0.5197
10629TIP3    H153302   0.621   1.572  12.447  0.6916 -0.7926 -1.7327
10629TIP3    H253303   0.741   1.646  12.501 -0.8373  0.3156  0.3054
10630TIP3   OH253304   5.249   4.225  13.591  0.2736  0.0206 -0.0134
10630TIP3    H153305   5.290   4.138  13.586 -0.8076 -0.4713 -0.5791
10630TIP3    H253306   5.197   4.221  13.672 -1.4107 -0.6127 -1.0886
10631TIP3   OH253307   1.498   0.258  11.648  0.3674 -0.2377 -0.5030
10631TIP3    H153308   1.512   0.350  11.672  2.7258 -0.9027  1.0379
10631TIP3    H253309   1.470   0.217  11.730 -1.3435 -0.7961 -1.3449
10632TIP3   OH253310   1.326   6.460   3.846  0.2985  0.1782 -0.3323
10632TIP3    H153311   1.382   6.462   3.923  0.4196  1.5967 -0.4266
10632TIP3    H253312   1.238   6.444   3.880  0.6011 -1.0995 -0.0960
10633TIP3   OH253313   4.324   0.605   4.446 -0.0568  0.2057 -0.1703
10633TIP3    H153314   4.409   0.563   4.460 -0.4682 -0.0236  1.8204
10633TIP3    H253315   4.311   0.660   4.523 -0.7989  1.8679 -1.4156
10634TIP3   OH253316   5.002   6.096   2.605 -0.0004  0.2868  0.7445
10634TIP3    H153317   4.917   6.062   2.580 -1.3075  1.2373  3.5234
10634TIP3    H253318   5.052   6.019   2.631 -0.0808 -0.2424 -0.5944
10635TIP3   OH253319   2.976   3.096   1.405  0.7708  0.6389 -0.4878
10635TIP3    H153320   3.024   3.179   1.404  2.0352 -0.0718  0.1390
10635TIP3    H253321   2.976   3.069   1.497  0.1810  0.0328 -0.6566
10636TIP3   OH253322   4.990   3.761   3.780 -0.1636  0.1950  0.1567
10636TIP3    H153323   4.946   3.755   3.696  1.4468 -2.4044 -0.6268
10636TIP3    H253324   5.080   3.786   3.758 -0.4029  2.5818  1.4647
10637TIP3   OH253325   5.964   6.740   4.216  0.1146 -0.0004  0.9338
10637TIP3    H153326   6.032   6.689   4.259  0.8655  1.0174  0.9702
10637TIP3    H253327   5.883   6.713   4.259  0.4020 -1.6158  0.5324
10638TIP3   OH253328   6.132   5.504   5.873  0.4203  0.0026  0.1840
10638TIP3    H153329   6.138   5.575   5.937  0.5720 -1.1093  1.4438
10638TIP3    H253330   6.073   5.440   5.913 -1.2109  0.1946 -1.7148
10639TIP3   OH253331   5.708   0.338   5.527 -0.2343  0.2248  0.0145
10639TIP3    H153332   5.792   0.378   5.507 -0.9913  3.2939  2.1643
10639TIP3    H253333   5.646   0.381   5.468 -0.8235  0.9723  1.1467
10640TIP3   OH253334   2.674   3.184  15.446  0.0694  0.1310 -0.0189
10640TIP3    H153335   2.642   3.097  15.423 -0.0352  0.2684 -0.4073
10640TIP3    H253336   2.603   3.222  15.498 -0.2984  0.3307 -0.6434
10641TIP3   OH253337   5.751   1.334  11.743  0.2350  0.2331 -0.1694
10641TIP3    H153338   5.722   1.365  11.657  0.3183 -0.3567 -0.4092
10641TIP3    H253339   5.714   1.398  11.804 -3.1536 -1.3883 -0.2941
10642TIP3   OH253340   2.655   1.323   2.370  0.2557 -0.0254  0.0557
10642TIP3    H153341   2.682   1.243   2.415 -1.9215 -0.2778  1.0154
10642TIP3    H253342   2.737   1.372   2.357  1.5963 -2.2321 -0.3119
10643TIP3   OH253343   6.025   6.241  15.312  0.2899  0.0554  0.0714
10643TIP3    H153344   6.088   6.286  15.255 -0.6897  1.7054  0.2422
10643TIP3    H253345   6.075   6.168  15.349  1.4348 -0.0369 -1.5518
10644TIP3   OH253346   6.467   1.188  15.607  0.5564  0.0337  0.5496
10644TIP3    H153347   6.385   1.213  15.562 -0.5296 -2.1405  1.1849
10644TIP3    H253348   6.526   1.163  15.536 -0.1444 -0.5947  0.1691
10645TIP3   OH253349   3.877   6.477   2.939 -0.4779  0.1404 -0.4369
10645TIP3    H153350   3.918   6.557   2.971  1.8401 -1.5207  1.1104
10645TIP3    H253351   3.827   6.444   3.014 -0.5529 -0.3981 -0.7182
10646TIP3   OH253352   6.166   4.502  10.582 -0.5874 -0.3089 -0.4398
10646TIP3    H153353   6.071   4.499  10.593 -0.5881 -0.2389 -0.4298
10646TIP3    H253354   6.191   4.589  10.612 -0.1807 -1.2137  2.1031
10647TIP3   OH253355   5.013   2.153  10.803  0.6328 -0.3908  0.4449
10647TIP3    H153356   5.034   2.062  10.826  0.1943 -0.4108  0.7957
10647TIP3    H253357   4.925   2.148  10.766  1.6340 -0.4745 -2.0980
10648TIP3   OH253358   4.183   3.465   3.978 -0.5974  0.0205  0.1667
10648TIP3    H153359   4.262   3.514   3.953 -0.4896  0.7635  1.7800
10648TIP3    H253360   4.152   3.510   4.057 -3.4618  0.6071 -1.1735
10649TIP3   OH253361   2.675   1.167   4.853 -0.5831 -0.0297  0.2601
10649TIP3    H153362   2.676   1.143   4.761 -3.1038 -0.9975  0.3972
10649TIP3    H253363   2.763   1.201   4.870  0.3465 -0.9781 -2.1614
10650TIP3   OH253364   6.650   3.774  15.118 -0.0779 -0.0509  0.2577
10650TIP3    H153365   6.611   3.713  15.181  0.3252  0.2967  0.8501
10650TIP3    H253366   6.591   3.771  15.042 -1.0843  0.2311  1.0060
10651TIP3   OH253367   5.681   2.971  12.445  0.0388 -0.0302 -0.0514
10651TIP3    H153368   5.654   3.058  12.475  0.1358  0.1480 -0.4633
10651TIP3    H253369   5.755   2.988  12.386  0.9749 -0.5050  0.9594
10652TIP3   OH253370   4.636   2.444  11.564 -0.1597 -0.2604  0.0842
10652TIP3    H153371   4.630   2.415  11.473  1.8935 -1.3257  0.2317
10652TIP3    H253372   4.546   2.459  11.591 -0.8151  0.0948 -2.1182
10653TIP3   OH253373   4.903   5.095  15.172 -0.2927  0.1794  0.1978
10653TIP3    H153374   4.835   5.056  15.118 -0.4414 -0.6293  0.9646
10653TIP3    H253375   4.969   5.125  15.108 -0.3323 -1.0013 -0.4330
10654TIP3   OH253376   1.215   2.167  16.261  0.1130  1.1050 -0.0380
10654TIP3    H153377   1.294   2.220  16.252 -0.8128  2.5081 -0.3050
10654TIP3    H253378   1.219   2.133  16.350  0.9000  1.3621  0.0349
10655TIP3   OH253379   3.315   5.744  14.721 -0.3200  0.0204 -0.3243
10655TIP3    H153380   3.268   5.696  14.653 -0.5806 -0.4287  0.1638
10655TIP3    H253381   3.258   5.738  14.798 -0.0941  0.6416 -0.1041
10656TIP3   OH253382   6.195   6.628   3.487 -0.1995 -0.0283  0.0764
10656TIP3    H153383   6.107   6.659   3.467 -0.1721  0.0144  0.0239
10656TIP3    H253384   6.210   6.656   3.578 -0.5900 -0.8315  0.3963
10657TIP3   OH253385   1.737   2.997   4.060  0.3725 -0.4573  0.3608
10657TIP3    H153386   1.798   3.032   4.125  1.2395 -1.1370 -0.0596
10657TIP3    H253387   1.793   2.967   3.988 -0.5889  0.8452 -1.0124
10658TIP3   OH253388   1.688   0.780   6.089 -0.2493  0.4706  0.2027
10658TIP3    H153389   1.774   0.766   6.051 -0.1753  1.4402 -0.0290
10658TIP3    H253390   1.701   0.847   6.156 -0.8607  0.8235 -0.0195
10659TIP3   OH253391   2.079   0.532   3.213 -0.2102  0.9286  0.1510
10659TIP3    H153392   2.158   0.499   3.169 -1.2491 -1.1637 -0.2627
10659TIP3    H253393   2.031   0.453   3.237 -1.3904  2.1205  1.9150
10660TIP3   OH253394   1.097   0.412   2.617 -0.2051  0.4132  0.4402
10660TIP3    H153395   1.036   0.484   2.635 -1.5346 -1.0815  2.4451
10660TIP3    H253396   1.123   0.381   2.704 -0.4053 -2.0887 -0.3219
10661TIP3   OH253397   4.509   6.565   4.411 -0.0387 -0.1178  0.1995
10661TIP3    H153398   4.497   6.533   4.500 -0.0440 -0.3165  0.1290
10661TIP3    H253399   4.470   6.652   4.410  0.4056  0.0860  0.5254
10662TIP3   OH253400   0.533   2.257   6.397  0.3978 -0.4847  0.6688
10662TIP3    H153401   0.468   2.190   6.418 -0.5051 -0.4023 -1.5118
10662TIP3    H253402   0.617   2.214   6.408 -0.1484 -1.7165  0.1560
10663TIP3   OH253403   6.186   4.815  12.811  0.1237  0.1349 -0.0096
10663TIP3    H153404   6.129   4.889  12.830 -0.5143 -0.4471  0.4061
10663TIP3    H253405   6.142   4.740  12.852  1.0179 -0.3836  0.0266
10664TIP3   OH253406   4.501   6.075   2.070 -1.0802  0.4428  0.0233
10664TIP3    H153407   4.501   5.984   2.040 -0.7322 -0.1878  1.7996
10664TIP3    H253408   4.432   6.117   2.019 -0.1993 -0.4027 -1.9488
10665TIP3   OH253409   4.841   6.164  15.698  0.2667 -0.4328  0.0298
10665TIP3    H153410   4.849   6.260  15.697  1.3152 -0.4785  1.2863
10665TIP3    H253411   4.819   6.141  15.608 -2.0844  1.1390  0.1343
10666TIP3   OH253412   3.045   0.826  11.979  0.0680 -0.1197 -0.7893
10666TIP3    H153413   3.010   0.916  11.983  1.0442  0.2384  0.1415
10666TIP3    H253414   3.050   0.798  12.070  0.0566 -1.0163 -1.0553
10667TIP3   OH253415   0.710   1.374  16.316  0.5187  0.8456 -0.3777
10667TIP3    H153416   0.746   1.300  16.267  1.7758  1.6683 -0.7354
10667TIP3    H253417   0.655   1.420  16.253  0.7768  0.9481 -0.5274
10668TIP3   OH253418   0.742   1.634  15.115 -0.2239 -0.3970 -0.2024
10668TIP3    H153419   0.743   1.673  15.027 -0.3057 -0.6944 -0.3345
10668TIP3    H253420   0.650   1.638  15.141 -0.1219  0.1841  0.0920
10669TIP3   OH253421   1.429   4.655   0.666 -0.1298  0.3986 -0.4481
10669TIP3    H153422   1.344   4.639   0.624 -0.0210  0.6061 -0.7438
10669TIP3    H253423   1.451   4.745   0.643  0.7081 -0.0154 -1.3212
10670TIP3   OH253424   2.149   4.322   3.463  0.5312 -0.1601  0.3821
10670TIP3    H153425   2.101   4.404   3.471 -0.5963 -0.8756  1.2377
10670TIP3    H253426   2.234   4.340   3.501  1.1987  1.2768 -1.6028
10671TIP3   OH253427   6.434   5.769   3.068  0.3651  0.5217  0.3513
10671TIP3    H153428   6.397   5.794   2.983  1.0369 -0.2839 -0.1941
10671TIP3    H253429   6.475   5.849   3.101  1.6564  0.4277 -0.9251
10672TIP3   OH253430   2.884   6.594  16.191 -0.8438 -0.8521 -0.0044
10672TIP3    H153431   2.900   6.512  16.143  0.4308 -2.0197  2.2743
10672TIP3    H253432   2.967   6.641  16.187 -1.5395  0.3437 -1.2023
10673TIP3   OH253433   3.852   1.116  12.815  0.0136  0.1893 -0.1893
10673TIP3    H153434   3.919   1.106  12.883  0.7578 -0.5866 -1.0057
10673TIP3    H253435   3.769   1.116  12.862  0.5356  0.0504  0.7503
10674TIP3   OH253436   3.457   4.471  15.997 -0.0929  0.0560  0.0342
10674TIP3    H153437   3.458   4.563  15.970  1.4285 -0.3168 -1.3600
10674TIP3    H253438   3.499   4.471  16.083 -2.4526  0.9280  1.2728
10675TIP3   OH253439   3.349   1.372   1.408  0.4033  0.8491  0.0050
10675TIP3    H153440   3.393   1.336   1.485 -1.1626 -0.8985  0.1501
10675TIP3    H253441   3.273   1.418   1.443 -1.4493 -1.6196 -0.4685
10676TIP3   OH253442   1.278   6.720  13.252  0.0395  0.4294  0.4317
10676TIP3    H153443   1.330   6.704  13.174 -0.2419 -0.7485  0.4664
10676TIP3    H253444   1.318   6.665  13.319 -1.4263 -0.7879  0.3675
10677TIP3   OH253445   2.198   5.101  14.562  0.4109 -0.1098 -0.5967
10677TIP3    H153446   2.218   5.081  14.471 -0.0501  1.0616 -0.9691
10677TIP3    H253447   2.168   5.191  14.561  1.5130  0.3150  0.8897
10678TIP3   OH253448   4.331   3.505   3.640 -0.1538  0.0680 -0.1687
10678TIP3    H153449   4.260   3.532   3.581 -1.1600  1.3168  1.5396
10678TIP3    H253450   4.383   3.584   3.653  0.4741 -0.3822  0.0845
10679TIP3   OH253451   6.461   4.188   3.390  0.2329 -0.3713 -0.1338
10679TIP3    H153452   6.420   4.102   3.390 -0.1624 -0.1879 -0.1936
10679TIP3    H253453   6.526   4.185   3.461 -1.0626 -0.1226  1.1170
10680TIP3   OH253454   4.014   0.876  13.405 -0.0187  0.4660 -0.6022
10680TIP3    H153455   3.972   0.810  13.350  0.3665  2.6038 -3.7557
10680TIP3    H253456   3.943   0.910  13.460 -0.7163 -0.9764 -0.5780
10681TIP3   OH253457   3.509   4.775   3.146  0.1907  0.1125  0.4158
10681TIP3    H153458   3.481   4.751   3.058  0.9615 -0.9120  0.4313
10681TIP3    H253459   3.594   4.817   3.134  0.2292  0.1053  0.6526
10682TIP3   OH253460   1.659   3.294  14.027 -0.3769  0.1832  0.2071
10682TIP3    H153461   1.637   3.387  14.025 -0.9528  0.0433 -1.6257
10682TIP3    H253462   1.746   3.289  13.988 -0.6011 -0.0947 -0.2673
10683TIP3   OH253463   2.612   2.073   4.178 -0.1490  0.2332  0.6088
10683TIP3    H153464   2.657   2.010   4.235 -0.2317  0.3052  0.7538
10683TIP3    H253465   2.670   2.149   4.175  0.4808 -0.2682 -0.4535
10684TIP3   OH253466   3.216   4.602   3.607  0.0224 -0.3430  0.3551
10684TIP3    H153467   3.266   4.528   3.642  0.3237 -1.4788 -2.2359
10684TIP3    H253468   3.125   4.572   3.609 -0.0685 -0.0092  1.1032
10685TIP3   OH253469   2.076   1.396   5.454 -0.2203 -0.2051 -0.3553
10685TIP3    H153470   2.067   1.467   5.517 -0.0885 -2.2160  2.0765
10685TIP3    H253471   1.998   1.342   5.467 -0.3122 -0.5772 -2.1363
10686TIP3   OH253472   5.730   6.231   0.401  0.9695  0.8718  0.3089
10686TIP3    H153473   5.761   6.168   0.466  1.5917 -0.0715 -0.8621
10686TIP3    H253474   5.802   6.237   0.338  0.1239  1.2573 -0.6470
10687TIP3   OH253475   5.450   4.246  11.986  0.2639  0.4340 -0.7972
10687TIP3    H153476   5.529   4.272  12.033 -0.7417  1.0368  0.6506
10687TIP3    H253477   5.393   4.323  11.992 -0.7362 -0.2628 -1.1111
10688TIP3   OH253478   0.878   4.216  15.842 -0.0695 -0.2126 -0.1872
10688TIP3    H153479   0.956   4.263  15.870 -0.7378  1.2092 -0.6495
10688TIP3    H253480   0.806   4.259  15.887 -0.6828 -1.0091 -0.3727
10689TIP3   OH253481   6.019   4.859  11.727 -0.0767 -0.0948 -0.1649
10689TIP3    H153482   6.104   4.846  11.686 -0.4106  0.9617 -1.2607
10689TIP3    H253483   5.967   4.783  11.701  0.9730 -1.6201  1.8832
10690TIP3   OH253484   6.114   4.441   2.050  0.7753 -0.1437  0.1496
10690TIP3    H153485   6.117   4.390   1.969  0.8989 -0.1926  0.1850
10690TIP3    H253486   6.193   4.494   2.049  0.6364  0.0657  0.1029
10691TIP3   OH253487   3.210   5.980  13.620 -0.1056  0.0047 -0.6136
10691TIP3    H153488   3.240   6.045  13.683  0.3185  0.0680 -0.8805
10691TIP3    H253489   3.152   5.923  13.671  0.8092 -0.3825  0.0175
10692TIP3   OH253490   1.688   4.694   4.619  0.5594  0.1716  0.1857
10692TIP3    H153491   1.628   4.639   4.570  1.8074  1.0768 -2.5384
10692TIP3    H253492   1.715   4.640   4.693 -1.2715 -1.3293 -0.1687
10693TIP3   OH253493   5.676   5.434  17.135  0.5504 -0.2020 -0.2354
10693TIP3    H153494   5.644   5.356  17.180 -0.9292 -0.1857 -1.2103
10693TIP3    H253495   5.640   5.507  17.187 -1.5408 -0.1780 -1.6016
10694TIP3   OH253496   6.223   2.680   5.317  0.1612  0.9291 -0.0132
10694TIP3    H153497   6.312   2.683   5.282  0.0729  0.7849 -0.2549
10694TIP3    H253498   6.227   2.729   5.399  0.7158  0.0281  0.5230
10695TIP3   OH253499   3.732   4.133   1.297 -0.4275  0.4531  0.0081
10695TIP3    H153500   3.785   4.210   1.316 -1.8813  1.5778 -0.3592
10695TIP3    H253501   3.696   4.107   1.382  0.8513 -0.4518  0.2961
10696TIP3   OH253502   5.354   4.483   3.905  0.3056  0.3886  0.2634
10696TIP3    H153503   5.405   4.430   3.843  0.5007  1.0864 -0.1792
10696TIP3    H253504   5.376   4.446   3.991  0.9752  0.1882  0.0155
10697TIP3   OH253505   1.295   5.135   4.111 -0.8520 -0.2709 -0.3068
10697TIP3    H153506   1.208   5.149   4.075 -0.7497  2.9346  0.3483
10697TIP3    H253507   1.354   5.175   4.048 -0.4318  2.6162  1.6897
10698TIP3   OH253508   2.078   5.149   0.667  0.7089 -0.8524 -0.0152
10698TIP3    H153509   2.080   5.195   0.583  1.1062  1.6134  1.2319
10698TIP3    H253510   2.094   5.057   0.645  1.3029 -0.2212 -2.5683
10699TIP3   OH253511   2.490   2.590  16.764 -0.1704  0.9129 -0.2726
10699TIP3    H153512   2.501   2.524  16.695  3.0075  0.5816  0.3584
10699TIP3    H253513   2.443   2.545  16.834 -1.4447  0.5647 -1.3162
10700TIP3   OH253514   2.371   1.382  15.932 -1.3098  0.3276  0.2587
10700TIP3    H153515   2.331   1.393  16.018 -1.5344  0.2081  0.1696
10700TIP3    H253516   2.303   1.340  15.879 -0.9102 -0.2921  0.2305
10701TIP3   OH253517   0.468   2.804  13.420  0.3386 -0.0502 -0.5487
10701TIP3    H153518   0.525   2.871  13.382 -0.0236  0.6373  0.0710
10701TIP3    H253519   0.433   2.756  13.345 -0.3232  1.2398 -1.1048
10702TIP3   OH253520   2.312   6.188  15.756 -0.2874 -0.2695  0.7154
10702TIP3    H153521   2.342   6.277  15.776 -1.7600  0.2111  0.9110
10702TIP3    H253522   2.309   6.184  15.661  1.0106 -0.5545  0.6726
10703TIP3   OH253523   2.355   3.040  11.131  0.0467  0.5262 -0.3677
10703TIP3    H153524   2.401   3.051  11.214  0.3349  1.4801 -0.6379
10703TIP3    H253525   2.321   3.127  11.110  0.2798  0.3884 -1.4121
10704TIP3   OH253526   0.602   3.664  16.406 -0.3892  0.0027 -0.2239
10704TIP3    H153527   0.671   3.615  16.361 -0.8415  0.3076 -1.2783
10704TIP3    H253528   0.627   3.662  16.499  1.9828  1.5779 -0.7405
10705TIP3   OH253529   3.191   2.523   1.469 -0.0918  0.5771  0.0333
10705TIP3    H153530   3.138   2.564   1.400  1.4689  2.2436 -0.2531
10705TIP3    H253531   3.196   2.589   1.537  0.8567  0.1029  0.4407
10706TIP3   OH253532   5.195   3.672  15.569  0.3188 -0.1783 -0.3767
10706TIP3    H153533   5.185   3.700  15.660 -0.5483 -1.4461 -0.0555
10706TIP3    H253534   5.130   3.722  15.521  0.0105 -0.3093 -0.1025
10707TIP3   OH253535   3.128   6.399   3.855  0.8325 -0.0413 -0.1972
10707TIP3    H153536   3.128   6.481   3.904  0.1262 -1.6212  2.6832
10707TIP3    H253537   3.057   6.409   3.792  0.1333  1.2367  0.7400
10708TIP3   OH253538   6.381   4.362  10.455 -0.0272 -0.1872  0.5006
10708TIP3    H153539   6.431   4.428  10.502  0.1383 -0.6120  0.9407
10708TIP3    H253540   6.290   4.392  10.460  0.1925  0.6575 -0.4259
10709TIP3   OH253541   3.213   0.868  16.162  0.8656  0.5731  0.2443
10709TIP3    H153542   3.200   0.925  16.087 -1.9859  0.8000  0.7808
10709TIP3    H253543   3.268   0.797  16.129  1.5985  1.8280 -1.3807
10710TIP3   OH253544   5.785   4.188   1.418  0.3327 -0.4228 -0.0892
10710TIP3    H153545   5.842   4.144   1.355 -0.5846 -0.4512 -0.9189
10710TIP3    H253546   5.824   4.169   1.503  0.2838 -2.3615 -0.4626
10711TIP3   OH253547   6.054   4.467  16.192 -0.1006  0.0122 -0.6734
10711TIP3    H153548   5.994   4.515  16.249  1.1801  1.5947 -0.5787
10711TIP3    H253549   6.032   4.496  16.104  0.1046  0.1383 -0.6855
10712TIP3   OH253550   6.423   3.879   6.131 -0.4111 -0.3868 -0.1351
10712TIP3    H153551   6.467   3.940   6.072 -1.6092 -0.2124 -0.9061
10712TIP3    H253552   6.442   3.911   6.219  1.5794 -0.7642 -0.3973
10713TIP3   OH253553   0.329   1.431   5.505  0.7123  0.1551  0.1513
10713TIP3    H153554   0.283   1.485   5.569 -0.5026  0.3649 -0.8566
10713TIP3    H253555   0.373   1.494   5.447 -0.9334  0.1342 -1.1928
10714TIP3   OH253556   5.720   0.321  16.255 -0.5154  0.0245 -0.5389
10714TIP3    H153557   5.759   0.253  16.200 -0.8742 -0.4268 -0.2373
10714TIP3    H253558   5.628   0.325  16.227 -0.3808  0.7447 -0.9086
10715TIP3   OH253559   5.277   2.403   2.915 -1.1325 -0.7328  0.4499
10715TIP3    H153560   5.372   2.415   2.916 -1.3245  1.4721 -0.5240
10715TIP3    H253561   5.264   2.317   2.875  0.4530 -1.1705  0.8121
10716TIP3   OH253562   2.224   6.355   4.630  0.0304  0.1778 -0.3484
10716TIP3    H153563   2.248   6.405   4.552  0.8002  0.9462  0.3607
10716TIP3    H253564   2.131   6.338   4.619 -0.0010  0.7766 -1.1560
10717TIP3   OH253565   2.053   5.742   1.274 -0.2453  0.4206  0.5612
10717TIP3    H153566   2.018   5.679   1.338  1.8588 -3.1686 -1.4981
10717TIP3    H253567   1.979   5.762   1.217 -0.9735 -0.1914  1.2693
10718TIP3   OH253568   4.916   1.659   0.471 -0.5868  0.0174  0.5003
10718TIP3    H153569   4.844   1.598   0.454  0.0859 -0.6738  0.0710
10718TIP3    H253570   4.881   1.744   0.447 -1.1974 -0.3384  0.0934
10719TIP3   OH253571   3.267   5.020  12.242  0.0644 -0.1058 -0.4350
10719TIP3    H153572   3.224   5.071  12.174  0.0617 -0.3645 -0.6275
10719TIP3    H253573   3.328   5.082  12.282  1.4013 -0.4363 -1.8832
10720TIP3   OH253574   5.958   0.729   1.507 -0.5026  0.0099 -0.9663
10720TIP3    H153575   5.944   0.638   1.478 -1.6798  0.4640 -1.9235
10720TIP3    H253576   6.042   0.727   1.553 -1.3848 -1.9505  0.7251
10721TIP3   OH253577   0.228   6.690   3.146 -0.2524  0.0651 -0.7309
10721TIP3    H153578   0.313   6.689   3.191 -0.8151  3.6379  0.7455
10721TIP3    H253579   0.249   6.721   3.058  0.1780 -1.1849 -1.0877
10722TIP3   OH253580   5.891   3.919  16.503 -0.8254 -0.2164 -0.0339
10722TIP3    H153581   5.967   3.875  16.541 -1.4581 -1.7968 -0.5101
10722TIP3    H253582   5.926   4.001  16.467  0.4144 -0.3525  0.8179
10723TIP3   OH253583   3.350   5.801  16.687 -0.2837  0.5595 -0.6017
10723TIP3    H153584   3.267   5.835  16.652 -0.2620 -0.0118 -1.2253
10723TIP3    H253585   3.354   5.710  16.657 -0.9158 -0.4335  2.0565
10724TIP3   OH253586   6.010   2.705   0.360  0.1872 -0.1157 -0.3065
10724TIP3    H153587   6.053   2.789   0.380 -0.3377 -0.0784  0.7399
10724TIP3    H253588   5.925   2.730   0.324 -0.9591 -0.1261  2.1598
10725TIP3   OH253589   5.545   0.497  15.043  0.5405  0.0607 -0.0781
10725TIP3    H153590   5.539   0.583  15.002  0.1060 -0.5657 -1.3673
10725TIP3    H253591   5.614   0.451  14.995  2.4623  0.4477  2.1005
10726TIP3   OH253592   5.954   4.663   1.929 -0.8274 -0.5377 -0.0820
10726TIP3    H153593   6.014   4.726   1.889 -0.2923  1.5911  3.6198
10726TIP3    H253594   6.007   4.584   1.941 -0.1772 -0.2398 -0.9263
10727TIP3   OH253595   6.569   0.658  13.670 -0.2063  0.5004 -0.4553
10727TIP3    H153596   6.552   0.638  13.578  0.9711 -0.6856 -0.4326
10727TIP3    H253597   6.641   0.722  13.668 -0.4831  0.8216 -0.3566
10728TIP3   OH253598   0.940   0.830  13.805 -0.4194  0.1893  0.1424
10728TIP3    H153599   1.033   0.838  13.823 -0.3207  1.6944 -0.8118
10728TIP3    H253600   0.922   0.736  13.809  0.9721 -0.0721  1.0161
10729TIP3   OH253601   2.385   4.051  12.481  0.0226  0.0230  0.0053
10729TIP3    H153602   2.320   4.033  12.413  0.1263  0.7091 -0.2783
10729TIP3    H253603   2.335   4.092  12.552  0.1659  0.6456 -0.2553
10730TIP3   OH253604   3.299   3.721  11.778  0.4517 -0.1124 -0.2121
10730TIP3    H153605   3.207   3.744  11.778  0.4090 -0.2521  0.4528
10730TIP3    H253606   3.335   3.764  11.856  1.1494  0.7024 -0.9536
10731TIP3   OH253607   6.682   6.781  12.276 -0.2397 -0.2813 -0.2130
10731TIP3    H153608   6.634   6.812  12.199 -0.7984 -0.5994  0.0015
10731TIP3    H253609   6.638   6.822  12.350 -0.5045 -0.9749  0.0204
10732TIP3   OH253610   3.224   2.714   3.299 -0.1852 -0.6096  0.5431
10732TIP3    H153611   3.164   2.683   3.231 -0.4980  4.9799 -2.3025
10732TIP3    H253612   3.168   2.732   3.374 -1.0926 -0.6271 -0.1128
10733TIP3   OH253613   4.397   4.932  10.675 -0.2917  0.0126 -0.3455
10733TIP3    H153614   4.491   4.913  10.668 -0.4836 -0.9823 -0.2732
10733TIP3    H253615   4.355   4.866  10.620 -0.8979  1.0904 -1.2143
10734TIP3   OH253616   5.274   3.165   1.119  0.1142  0.4475 -0.0931
10734TIP3    H153617   5.227   3.081   1.112  2.8234 -1.1686 -0.3471
10734TIP3    H253618   5.282   3.195   1.028  1.0048 -0.1760 -0.2373
10735TIP3   OH253619   2.170   4.574  16.315  0.0992  0.2479 -0.3603
10735TIP3    H153620   2.110   4.506  16.346  1.1440 -0.6361 -0.2039
10735TIP3    H253621   2.117   4.653  16.309 -1.0097 -0.4570  0.0126
10736TIP3   OH253622   5.216   0.377  11.154  0.4372  0.4732  0.0510
10736TIP3    H153623   5.168   0.294  11.164 -0.6242  0.9246 -1.0033
10736TIP3    H253624   5.266   0.366  11.073  0.8616  0.6023  0.2956
10737TIP3   OH253625   3.959   1.596  13.464 -0.0372 -0.7431  0.0645
10737TIP3    H153626   3.934   1.596  13.556 -2.0024 -0.4408 -0.4185
10737TIP3    H253627   3.885   1.555  13.419  1.2875 -1.7395 -1.3011
10738TIP3   OH253628   5.906   5.299  17.053 -0.3792 -0.1868  0.0729
10738TIP3    H153629   5.842   5.349  17.104  1.1320  0.3503  1.5367
10738TIP3    H253630   5.932   5.357  16.982  0.5512  0.7339  1.1266
10739TIP3   OH253631   3.324   5.625   2.467  0.3185  0.4381  0.5056
10739TIP3    H153632   3.398   5.686   2.468 -0.1833  1.3845 -3.2897
10739TIP3    H253633   3.357   5.548   2.421 -0.7033  0.3635 -0.1229
10740TIP3   OH253634   0.246   4.501  14.964  0.0234  0.1311 -0.5141
10740TIP3    H153635   0.302   4.451  14.905  1.2897  1.7011 -0.6998
10740TIP3    H253636   0.221   4.579  14.914 -1.6814 -0.1309 -0.1334
10741TIP3   OH253637   5.780   6.254   1.858 -0.0183 -0.0913  0.1266
10741TIP3    H153638   5.764   6.342   1.824  0.4224  1.0424  2.6608
10741TIP3    H253639   5.712   6.200   1.818 -1.4029  1.7584 -0.1357
10742TIP3   OH253640   5.828   2.080   5.325 -0.2845 -0.4921  0.0056
10742TIP3    H153641   5.836   2.163   5.278 -0.9389 -1.5225 -2.0300
10742TIP3    H253642   5.811   2.105   5.416 -0.1917  1.5884 -0.5131
10743TIP3   OH253643   6.357   0.227   5.109 -0.5617 -0.1445 -0.2437
10743TIP3    H153644   6.445   0.241   5.074 -0.1889  0.4081  0.8865
10743TIP3    H253645   6.308   0.304   5.082 -0.3410  0.1650  0.2332
10744TIP3   OH253646   3.809   1.711  11.341 -0.3250 -0.1435  0.4464
10744TIP3    H153647   3.764   1.794  11.358 -0.7741  0.0821 -1.5302
10744TIP3    H253648   3.753   1.666  11.277  1.7919 -0.2156 -1.4805
10745TIP3   OH253649   4.750   2.183  14.489  0.2558 -0.1891  0.5713
10745TIP3    H153650   4.842   2.177  14.464 -0.3263 -0.6927 -1.6323
10745TIP3    H253651   4.717   2.261  14.444 -1.2912 -2.1922 -2.0751
10746TIP3   OH253652   1.551   1.055   0.974  0.5600  0.3354 -0.2176
10746TIP3    H153653   1.576   0.997   1.046  0.7734  0.0906 -0.4825
10746TIP3    H253654   1.556   0.999   0.896 -1.4672  0.0979 -0.2214
10747TIP3   OH253655   6.272   3.943   4.042  0.3073  0.4234  0.0174
10747TIP3    H153656   6.239   3.875   4.101  0.7617  0.7783  0.6991
10747TIP3    H253657   6.367   3.934   4.047  0.3459  0.4625 -0.6613
10748TIP3   OH253658   5.913   2.075   1.334 -0.1560 -0.2613 -0.1649
10748TIP3    H153659   5.984   2.048   1.392 -0.8251  0.0961  0.8615
10748TIP3    H253660   5.835   2.035   1.372 -0.8735  1.4243  0.2447
10749TIP3   OH253661   3.010   5.072  12.609 -0.0952  0.2330 -0.3151
10749TIP3    H153662   2.955   5.006  12.651 -0.2483 -0.2149 -1.2157
10749TIP3    H253663   3.090   5.073  12.662 -0.0989 -0.6659 -0.2854
10750TIP3   OH253664   6.783   4.879   3.843 -0.7593  0.2698  0.4585
10750TIP3    H153665   6.823   4.965   3.828  0.6098 -0.0458  1.9444
10750TIP3    H253666   6.830   4.821   3.783  0.5933  0.0352  1.6778
10751TIP3   OH253667   5.120   6.122   2.983 -0.1674  0.4846 -0.0247
10751TIP3    H153668   5.092   6.031   2.971 -0.3183  0.4533  0.5377
10751TIP3    H253669   5.193   6.133   2.922  0.0282 -0.0974  0.0960
10752TIP3   OH253670   5.027   3.065   2.140  0.3179  0.2475 -0.4428
10752TIP3    H153671   5.013   3.139   2.199  0.2554 -0.0322 -0.1022
10752TIP3    H253672   4.942   3.021   2.136  0.5993 -0.3687  0.1385
10753TIP3   OH253673   4.041   3.090  14.611  0.1202 -0.4153 -0.1928
10753TIP3    H153674   3.996   3.083  14.695  1.2804 -0.3519  0.4529
10753TIP3    H253675   4.122   3.137  14.631  0.0560  0.3012 -1.4915
10754TIP3   OH253676   5.536   4.040   4.880 -0.2265  0.0038  0.7979
10754TIP3    H153677   5.595   4.023   4.806 -0.8169  3.1838 -0.5624
10754TIP3    H253678   5.594   4.067   4.951  0.1483 -0.1619  0.5633
10755TIP3   OH253679   5.337   0.797  14.959  0.4672 -0.0289  0.2768
10755TIP3    H153680   5.327   0.890  14.977  0.1761 -0.3323  1.7551
10755TIP3    H253681   5.248   0.763  14.955  0.5829 -0.3333  0.1944
10756TIP3   OH253682   1.013   5.137  12.720  0.0480 -0.4964  0.7106
10756TIP3    H153683   0.959   5.199  12.769  1.7372  0.6315  1.1979
10756TIP3    H253684   1.080   5.191  12.677  1.3733 -1.9331  0.8908
10757TIP3   OH253685   3.938   5.588   1.451 -0.1810 -0.5361  0.1404
10757TIP3    H153686   3.937   5.503   1.496  1.3391  0.0804  1.4491
10757TIP3    H253687   3.892   5.647   1.511 -3.0220 -0.7521 -1.6425
10758TIP3   OH253688   6.463   4.389   0.728  0.0620  0.2913  0.1896
10758TIP3    H153689   6.530   4.323   0.710  1.0820  1.0561  1.0101
10758TIP3    H253690   6.392   4.341   0.769 -0.2519 -0.6688 -1.4094
10759TIP3   OH253691   4.195   4.621   4.810 -0.8332 -0.1735 -0.2065
10759TIP3    H153692   4.168   4.599   4.721  1.7425  2.5765 -1.8452
10759TIP3    H253693   4.118   4.664   4.848 -1.1363  1.1182 -2.1405
10760TIP3   OH253694   1.295   2.850   2.437  0.4740 -0.3827  0.8685
10760TIP3    H153695   1.276   2.863   2.530 -1.0443 -0.2940  0.5702
10760TIP3    H253696   1.227   2.899   2.391  1.3408 -0.2257 -0.3015
10761TIP3   OH253697   0.514   2.434  13.359 -0.5645 -0.1454  0.2445
10761TIP3    H153698   0.581   2.370  13.383  0.7117  0.7890 -0.6566
10761TIP3    H253699   0.434   2.403  13.401  0.2986 -1.6321  0.8532
10762TIP3   OH253700   0.949   6.173  11.585 -0.5685 -0.1018 -0.0381
10762TIP3    H153701   0.947   6.189  11.490  0.3694 -0.3099 -0.1049
10762TIP3    H253702   0.916   6.255  11.623 -2.0844 -0.4395 -0.5630
10763TIP3   OH253703   5.269   3.923  11.499  0.2090 -0.1646 -1.1420
10763TIP3    H153704   5.209   3.979  11.549  0.8266  0.3159 -0.9216
10763TIP3    H253705   5.274   3.842  11.551 -0.2597 -0.2169 -1.1737
10764TIP3   OH253706   2.452   6.624  15.914  0.8543 -0.7767 -0.3012
10764TIP3    H153707   2.484   6.662  15.995  0.0813 -1.4605  0.3434
10764TIP3    H253708   2.523   6.567  15.885  2.1416  1.2976 -1.4311
10765TIP3   OH253709   0.416   0.232  13.546  0.0938  0.0231  0.1822
10765TIP3    H153710   0.344   0.177  13.578 -2.1452  1.4147 -2.0804
10765TIP3    H253711   0.448   0.187  13.469  0.6557  0.1759  0.3205
10766TIP3   OH253712   5.321   2.108  15.783 -0.1560 -0.3162 -0.4994
10766TIP3    H153713   5.375   2.041  15.741 -0.3692  0.0871 -1.4222
10766TIP3    H253714   5.291   2.067  15.864 -1.3307 -1.8197 -1.6511
10767TIP3   OH253715   0.263   4.026   4.938 -0.0978  0.5480  0.7507
10767TIP3    H153716   0.213   4.012   4.858 -0.7522  0.1684  1.2185
10767TIP3    H253717   0.277   3.938   4.974 -0.2652  0.7492  1.3240
10768TIP3   OH253718   4.915   2.817   2.885 -0.4256 -0.1441 -0.6558
10768TIP3    H153719   4.972   2.741   2.890 -2.0020 -1.2793  2.0743
10768TIP3    H253720   4.830   2.782   2.855 -0.7262  0.8518 -1.0210
10769TIP3   OH253721   4.166   2.294  13.025  0.5116  0.0867  0.3305
10769TIP3    H153722   4.196   2.369  13.077  0.0557 -0.1309  0.9206
10769TIP3    H253723   4.195   2.218  13.075 -0.3392 -0.1257  0.5096
10770TIP3   OH253724   1.236   0.212   1.498  0.1806  0.1450  0.1692
10770TIP3    H153725   1.297   0.184   1.430 -1.2786  0.0865 -1.1785
10770TIP3    H253726   1.251   0.152   1.571  2.1756  0.5675  0.1603
10771TIP3   OH253727   3.245   0.146   3.710 -0.0368  0.5654  0.3629
10771TIP3    H153728   3.299   0.165   3.633 -1.7142 -1.0993 -1.3446
10771TIP3    H253729   3.267   0.214   3.773  3.4846  0.3770 -0.4821
10772TIP3   OH253730   5.378   0.879  14.560 -0.0629  0.0378  0.1376
10772TIP3    H153731   5.462   0.873  14.606  0.7182 -0.2068 -1.2638
10772TIP3    H253732   5.348   0.788  14.554  0.3028 -0.0408 -0.6315
10773TIP3   OH253733   2.533   6.076  16.423  0.6930 -0.1673  0.1661
10773TIP3    H153734   2.486   5.994  16.435 -0.2552  0.4174  0.5958
10773TIP3    H253735   2.466   6.140  16.401  1.1742  0.8348  1.4467
10774TIP3   OH253736   1.049   0.020  14.462  0.2255 -0.4557 -0.2981
10774TIP3    H153737   0.959   0.013  14.431 -0.0075 -1.6025  0.5577
10774TIP3    H253738   1.064  -0.061  14.511  1.1126  0.5107  1.1279
10775TIP3   OH253739   4.010   4.237  12.716  0.0728  0.0225  0.4525
10775TIP3    H153740   4.050   4.226  12.802  1.1023 -2.6357 -0.2667
10775TIP3    H253741   4.079   4.278  12.663  1.3764 -2.8605 -0.2951
10776TIP3   OH253742   4.356   4.822  15.310 -0.2681  0.2108  0.1476
10776TIP3    H153743   4.443   4.861  15.300 -1.0813  2.1165 -0.0187
10776TIP3    H253744   4.354   4.789  15.400  0.4932  0.5114  0.2787
10777TIP3   OH253745   2.707   1.231  11.469 -0.3569 -0.4097  0.4195
10777TIP3    H153746   2.731   1.323  11.466  0.4006 -0.5825  0.7874
10777TIP3    H253747   2.783   1.185  11.434 -1.8765 -0.7647 -2.7795
10778TIP3   OH253748   4.582   2.448   5.247  0.0778 -0.0441  0.5441
10778TIP3    H153749   4.537   2.506   5.185  0.5791  0.8606  1.0169
10778TIP3    H253750   4.669   2.436   5.211  0.1275 -0.1294  0.6909
10779TIP3   OH253751   4.467   1.612   0.671  0.0912  0.0355 -0.4631
10779TIP3    H153752   4.419   1.612   0.754  0.4579  0.6338 -0.2391
10779TIP3    H253753   4.546   1.561   0.690  0.6215  0.9221 -0.1505
10780TIP3   OH253754   4.131   4.552   2.694  0.7488 -0.6416 -0.1031
10780TIP3    H153755   4.135   4.539   2.599 -0.7094  1.1230 -0.4744
10780TIP3    H253756   4.063   4.491   2.723 -0.3282  0.3124 -0.5537
10781TIP3   OH253757   6.030   6.493  15.442  0.1088  0.0676  0.6032
10781TIP3    H153758   5.988   6.534  15.366  0.9984  0.4187  0.2898
10781TIP3    H253759   6.015   6.399  15.429 -2.1315  0.2484  1.4381
10782TIP3   OH253760   6.645   2.701   4.220 -0.1214  0.4126  0.4748
10782TIP3    H153761   6.599   2.622   4.248 -2.2414  1.1213 -0.8041
10782TIP3    H253762   6.709   2.669   4.155  0.1982 -0.4181  1.1727
10783TIP3   OH253763   0.111   5.934  14.010 -0.4494  0.6594 -0.3316
10783TIP3    H153764   0.084   5.896  13.926 -0.5883  0.3280 -0.1359
10783TIP3    H253765   0.206   5.943  14.003 -0.5469  1.4691 -0.8735
10784TIP3   OH253766   2.734   2.415  15.008 -0.3398 -0.6534 -0.5159
10784TIP3    H153767   2.728   2.386  14.917 -0.7827  0.1305 -0.7496
10784TIP3    H253768   2.788   2.349  15.051  0.3099 -0.7639 -1.4637
10785TIP3   OH253769   2.468   4.861   3.088  0.6535  0.0567 -0.4617
10785TIP3    H153770   2.417   4.820   3.157 -1.3092 -0.8114 -2.3339
10785TIP3    H253771   2.459   4.955   3.103 -2.9654  0.0324 -1.5946
10786TIP3   OH253772   3.571   2.040   3.893 -0.8988  0.3841 -0.0008
10786TIP3    H153773   3.623   2.034   3.813 -2.4076 -0.1031 -0.9720
10786TIP3    H253774   3.636   2.059   3.961  0.7234 -1.2254 -0.9839
10787TIP3   OH253775   6.562   3.105   0.139  0.1128 -0.3134  0.3940
10787TIP3    H153776   6.648   3.063   0.136  0.2578 -0.1981  1.9973
10787TIP3    H253777   6.571   3.173   0.206 -0.2849  1.9552 -1.6993
10788TIP3   OH253778   0.935   1.123  16.847 -0.5012 -0.1454 -0.1657
10788TIP3    H153779   1.023   1.159  16.842  0.7500 -3.0010 -0.4008
10788TIP3    H253780   0.888   1.167  16.776  1.8376 -1.1751 -2.5410
10789TIP3   OH253781   0.478   6.196   4.388 -0.7158 -0.6166  0.0160
10789TIP3    H153782   0.452   6.125   4.329  0.3064 -0.4820 -0.6279
10789TIP3    H253783   0.416   6.267   4.369 -0.6169 -0.7004 -0.6621
10790TIP3   OH253784   5.624   4.354   4.361 -0.3943  0.2820  1.0358
10790TIP3    H153785   5.609   4.327   4.451 -1.1178  1.5707  1.3144
10790TIP3    H253786   5.718   4.373   4.357 -0.3382  0.1046  1.4767
10791TIP3   OH253787   3.453   3.643  15.749  0.6014 -0.3709  0.3711
10791TIP3    H153788   3.511   3.610  15.816  0.3442 -0.6373  0.4635
10791TIP3    H253789   3.395   3.570  15.728  0.9731 -0.4329 -0.4668
10792TIP3   OH253790   3.013   5.570   0.939 -0.3097  0.1533 -0.1109
10792TIP3    H153791   3.021   5.645   0.998 -0.2439  0.0718 -0.0174
10792TIP3    H253792   2.930   5.584   0.894 -1.0887 -0.5519  1.0609
10793TIP3   OH253793   1.860   1.319   1.278  0.0984  0.4931  0.0546
10793TIP3    H153794   1.795   1.335   1.346  1.3085  0.1862  1.3308
10793TIP3    H253795   1.837   1.233   1.243  0.2642  0.0288  1.0462
10794TIP3   OH253796   4.769   6.235  11.955 -0.2708 -0.2546 -0.0010
10794TIP3    H153797   4.728   6.279  12.029 -0.9478  1.0313 -1.0967
10794TIP3    H253798   4.800   6.306  11.899  1.4342 -1.1972 -0.3284
10795TIP3   OH253799   0.421   4.480  11.011  0.1268 -0.2187  0.0578
10795TIP3    H153800   0.455   4.561  11.049 -0.4955  0.4982 -0.8584
10795TIP3    H253801   0.499   4.431  10.986  0.5126  0.0979  0.6190
10796TIP3   OH253802   2.003   2.318  14.671  0.7000 -0.2765  0.3761
10796TIP3    H153803   1.918   2.275  14.667  1.1380 -1.1199 -0.0816
10796TIP3    H253804   2.013   2.343  14.763  0.8233 -2.0053  0.8835
10797TIP3   OH253805   6.655   0.939   3.709 -0.0901  0.1513 -0.3130
10797TIP3    H153806   6.622   1.006   3.769  0.1133 -0.3143  0.3285
10797TIP3    H253807   6.600   0.947   3.631 -0.0464  1.0789 -0.2507
10798TIP3   OH253808   0.958   1.561  14.022  0.0091 -0.2100  0.4524
10798TIP3    H153809   1.052   1.569  14.006 -0.2003  2.4525  0.1478
10798TIP3    H253810   0.926   1.512  13.946  1.1874 -1.7833  0.9073
10799TIP3   OH253811   2.736   3.545   4.819 -0.0649  0.0674  0.4662
10799TIP3    H153812   2.701   3.556   4.908 -0.8632 -1.3270  0.3545
10799TIP3    H253813   2.720   3.629   4.776 -0.2643  0.5415  1.4367
10800TIP3   OH253814   2.807   0.093  11.371  0.2549  0.3420  0.0886
10800TIP3    H153815   2.732   0.088  11.430  1.4081 -0.3902  1.5772
10800TIP3    H253816   2.837   0.002  11.362  0.9078  0.6073 -0.5321
10801TIP3   OH253817   1.101   1.362  10.840  0.1751  0.7395  0.7141
10801TIP3    H153818   1.097   1.276  10.881 -3.3236 -0.2321 -1.2578
10801TIP3    H253819   1.013   1.399  10.851  0.8518  2.9985 -0.6038
10802TIP3   OH253820   0.614   0.865  12.131 -0.2972 -0.1763 -0.4223
10802TIP3    H153821   0.698   0.820  12.131  0.1070  0.5211  0.8973
10802TIP3    H253822   0.551   0.796  12.154  0.3049 -0.1480  1.5066
10803TIP3   OH253823   4.379   5.791  14.095  0.4257 -0.3477 -1.2856
10803TIP3    H153824   4.429   5.783  14.176 -1.1569  0.7213 -0.1497
10803TIP3    H253825   4.445   5.790  14.026  1.8734 -0.5176  0.0516
10804TIP3   OH253826   5.227   0.170  11.501  0.2156 -0.2462  0.0199
10804TIP3    H153827   5.214   0.142  11.411 -0.4793  3.0162 -1.0084
10804TIP3    H253828   5.317   0.144  11.522  0.5512 -0.6190 -1.7824
10805TIP3   OH253829   4.993   5.486  13.864 -0.1497  0.1519 -0.0846
10805TIP3    H153830   4.961   5.568  13.903 -0.2853 -0.4138  1.0663
10805TIP3    H253831   4.914   5.432  13.854  0.1874 -0.6324  1.2092
10806TIP3   OH253832   0.409   0.026  12.879 -0.2749 -0.3394  0.3194
10806TIP3    H153833   0.344  -0.039  12.855 -1.7995  0.3710  2.2782
10806TIP3    H253834   0.478   0.017  12.812 -2.4497 -0.9575 -1.9799
10807TIP3   OH253835   6.694   5.159   5.246 -0.2321 -0.0587 -0.3387
10807TIP3    H153836   6.625   5.136   5.308  0.0038  0.8944  0.3023
10807TIP3    H253837   6.769   5.105   5.271 -0.0108  0.6080  0.4842
10808TIP3   OH253838   3.802   3.104  14.767 -0.1438 -0.2875  0.1190
10808TIP3    H153839   3.758   3.049  14.703  1.7865  0.6125 -2.1618
10808TIP3    H253840   3.776   3.193  14.744 -0.5244 -0.0083  1.5367
10809TIP3   OH253841   3.058   0.263  10.185  0.6130 -0.1640  0.0149
10809TIP3    H153842   3.021   0.240  10.270 -2.3737 -0.8184 -1.3282
10809TIP3    H253843   3.152   0.252  10.196  0.4568  0.7208  3.4694
10810TIP3   OH253844   6.401   2.082   4.883  0.1092  0.1163  0.7579
10810TIP3    H153845   6.425   2.119   4.798 -1.2262  0.1474  0.3700
10810TIP3    H253846   6.479   2.035   4.912  1.3273  1.9025  0.5392
10811TIP3   OH253847   2.328   1.588  12.045  0.1016 -0.1267  0.2965
10811TIP3    H153848   2.399   1.570  11.983 -0.0802 -0.4383  0.1800
10811TIP3    H253849   2.260   1.525  12.024  0.0844 -0.3199  0.8896
10812TIP3   OH253850   2.869   5.661   0.609 -0.3029  0.2399 -0.1255
10812TIP3    H153851   2.819   5.718   0.551  0.5112  1.2874  0.1803
10812TIP3    H253852   2.959   5.666   0.577 -0.0045  0.1163  0.6710
10813TIP3   OH253853   3.230   1.006   1.575  0.2875  0.2983 -0.0155
10813TIP3    H153854   3.300   0.992   1.512 -1.7778  0.1652 -2.4439
10813TIP3    H253855   3.158   0.952   1.543 -0.7632 -0.1598  2.7767
10814TIP3   OH253856   4.443   2.270  14.301 -0.0861  0.3667 -0.3200
10814TIP3    H153857   4.490   2.321  14.366  0.7506 -0.3831 -0.3169
10814TIP3    H253858   4.393   2.206  14.353  0.3551 -0.0419 -0.3874
10815TIP3   OH253859   4.781   5.132  15.669  0.5884  0.1344 -0.2856
10815TIP3    H153860   4.826   5.049  15.685 -0.2608 -0.1169  0.9841
10815TIP3    H253861   4.803   5.155  15.579  0.4366 -1.7303 -0.8391
10816TIP3   OH253862   2.973   1.656   2.769 -0.2080 -0.2678  0.1247
10816TIP3    H153863   3.044   1.675   2.830  0.5817 -0.2836 -0.7806
10816TIP3    H253864   2.967   1.734   2.714  0.3718 -1.0119 -1.0186
10817TIP3   OH253865   5.864   5.342  14.484 -0.0271 -0.4115  0.0828
10817TIP3    H153866   5.776   5.362  14.515 -0.0003  0.5536 -0.4009
10817TIP3    H253867   5.864   5.248  14.470 -0.6876 -0.5545  0.9855
10818TIP3   OH253868   0.150   4.438  12.838  0.1967 -0.7499 -0.0584
10818TIP3    H153869   0.207   4.482  12.775 -1.5165 -2.3308 -2.9452
10818TIP3    H253870   0.188   4.458  12.924  0.4893  4.8034 -1.1512
10819TIP3   OH253871   5.796   5.029   2.365 -0.1177 -0.0807 -0.1279
10819TIP3    H153872   5.723   5.085   2.339 -2.8062 -2.0445  2.6455
10819TIP3    H253873   5.804   4.965   2.294 -1.1443  0.1091 -0.4244
10820TIP3   OH253874   1.214   3.229   4.786 -0.0769 -0.6014  0.5752
10820TIP3    H153875   1.227   3.143   4.747  1.0401 -0.4271  0.5311
10820TIP3    H253876   1.277   3.232   4.858 -0.2540  0.1026  0.7068
10821TIP3   OH253877   2.247   3.966   1.291  0.2269 -0.3675  0.3180
10821TIP3    H153878   2.257   3.886   1.238  0.3043  0.7035 -1.3762
10821TIP3    H253879   2.174   4.012   1.250  2.3965  2.1255 -1.1159
10822TIP3   OH253880   4.009   4.755  12.922  0.2615 -0.0823 -0.1790
10822TIP3    H153881   3.928   4.802  12.904  0.0614  0.2130  1.3775
10822TIP3    H253882   4.068   4.822  12.957  0.9180 -0.4566 -0.5536
10823TIP3   OH253883   0.021   1.315   4.023 -0.6614  0.0387  0.6316
10823TIP3    H153884   0.003   1.299   4.116  1.2635 -0.5911  0.9408
10823TIP3    H253885   0.104   1.362   4.023 -0.7860  0.3043 -0.7771
10824TIP3   OH253886   3.821   5.764  16.448  0.0300 -0.0699  0.3373
10824TIP3    H153887   3.770   5.738  16.524 -2.3409  0.8595 -0.8450
10824TIP3    H253888   3.777   5.724  16.374  1.7948 -0.2801 -0.6656
10825TIP3   OH253889   1.865   4.710   0.212 -0.2936  0.0522  0.1108
10825TIP3    H153890   1.958   4.693   0.205 -0.4875 -1.1697  0.2604
10825TIP3    H253891   1.857   4.775   0.281  0.6150  2.0469 -1.5696
10826TIP3   OH253892   5.292   2.357   0.939 -0.2063  0.3986  0.0743
10826TIP3    H153893   5.348   2.296   0.987 -0.5640  0.3738  0.4687
10826TIP3    H253894   5.214   2.366   0.994 -0.3737  0.8174 -0.2279
10827TIP3   OH253895   3.474   3.997  12.193  0.4693  0.4076 -0.1259
10827TIP3    H153896   3.519   3.940  12.255  3.9154  2.5437 -0.3667
10827TIP3    H253897   3.452   4.075  12.243  2.1777  1.6472 -1.1832
10828TIP3   OH253898   5.766   4.691   0.352  0.9732 -0.6565  0.0189
10828TIP3    H153899   5.767   4.737   0.268  1.1293 -0.7448 -0.0274
10828TIP3    H253900   5.673   4.671   0.367  0.7124  0.9742  0.7568
10829TIP3   OH253901   3.215   4.174   0.122 -0.3172  0.2745  0.7945
10829TIP3    H153902   3.198   4.214   0.037 -1.0534  1.0199  1.2733
10829TIP3    H253903   3.129   4.142   0.150 -0.3945  1.4374  1.9466
10830TIP3   OH253904   4.587   5.938   1.109  0.8013  0.4654  0.8201
10830TIP3    H153905   4.517   5.901   1.055  0.3825  0.2528  1.5041
10830TIP3    H253906   4.667   5.917   1.060  0.5301 -0.7871  0.8607
10831TIP3   OH253907   3.022   2.409   2.495  0.3382 -0.5079  0.3858
10831TIP3    H153908   3.024   2.486   2.552  0.2170 -0.5568  0.4567
10831TIP3    H253909   3.112   2.399   2.465 -0.0500  1.0672 -1.5219
10832TIP3   OH253910   5.922   4.248   1.665 -0.0249 -0.6080 -0.0063
10832TIP3    H153911   6.009   4.282   1.645 -0.7657  2.4073  1.2199
10832TIP3    H253912   5.927   4.218   1.756 -0.0228 -1.4206 -0.2686
10833TIP3   OH253913   3.615   6.734   3.187  0.1462 -0.5424  0.0190
10833TIP3    H153914   3.580   6.647   3.205  0.6989 -0.7209  0.2541
10833TIP3    H253915   3.627   6.774   3.273 -1.7181  0.4359 -0.1291
10834TIP3   OH253916   6.632   0.727   1.083  0.1546 -0.0297  0.2209
10834TIP3    H153917   6.596   0.805   1.041  0.7375  0.6630  0.9508
10834TIP3    H253918   6.724   0.725   1.054 -0.2973 -1.4628 -1.1959
10835TIP3   OH253919   2.563   2.002   1.110  0.7115 -0.3030  0.0674
10835TIP3    H153920   2.638   1.968   1.060  1.5135  0.8670  0.4320
10835TIP3    H253921   2.546   2.088   1.072 -0.7195 -0.7060 -0.2638
10836TIP3   OH253922   2.676   0.995  14.465  0.3161  0.7061  0.1296
10836TIP3    H153923   2.730   0.969  14.540  1.1043  0.7396 -0.4143
10836TIP3    H253924   2.616   1.060  14.500 -1.0734 -1.1107  1.3221
10837TIP3   OH253925   4.771   4.978  14.941 -0.2742  0.4470 -0.2903
10837TIP3    H153926   4.739   4.916  14.876 -1.5366 -0.2430  0.9545
10837TIP3    H253927   4.735   5.062  14.914 -0.3605  0.2651 -0.7546
10838TIP3   OH253928   6.165   3.300   4.523 -0.9192 -0.3127 -0.2278
10838TIP3    H153929   6.135   3.327   4.436  0.3295 -0.7561 -0.8207
10838TIP3    H253930   6.255   3.270   4.509 -1.1611 -1.6836  0.9802
10839TIP3   OH253931   5.760   0.580   1.211  0.0215 -0.0013  0.4405
10839TIP3    H153932   5.729   0.663   1.246 -1.7192 -0.0100 -0.9192
10839TIP3    H253933   5.854   0.592   1.200  0.3668  0.5746  3.3512
10840TIP3   OH253934   4.018   5.760  13.547 -0.3675  0.1925  0.1067
10840TIP3    H153935   4.060   5.692  13.494  1.4258  0.8807  0.5891
10840TIP3    H253936   3.983   5.712  13.622  1.4239 -0.1577  0.7596
10841TIP3   OH253937   2.223   1.116  14.848 -0.6171  0.2929  0.1068
10841TIP3    H153938   2.250   1.178  14.916 -0.1730  0.8981 -0.5989
10841TIP3    H253939   2.251   1.031  14.880 -1.5603  0.3937  1.2667
10842TIP3   OH253940   6.102   4.759   4.511 -0.2346  0.2346 -0.1834
10842TIP3    H153941   6.188   4.796   4.529  1.9037 -3.2418 -2.2781
10842TIP3    H253942   6.089   4.773   4.418 -0.0981 -2.5195 -0.6963
10843TIP3   OH253943   1.297   0.493   3.762  0.3867  0.2895  0.4226
10843TIP3    H153944   1.381   0.532   3.737  0.3319 -0.8387 -1.7290
10843TIP3    H253945   1.321   0.412   3.807  0.4268  0.9156  1.5943
10844TIP3   OH253946   3.009   1.333  12.193  0.0408 -0.2998 -0.0577
10844TIP3    H153947   2.915   1.326  12.204  0.0627 -1.8574 -0.6385
10844TIP3    H253948   3.045   1.255  12.234  1.2996  1.2446  2.0116
10845TIP3   OH253949   0.771   1.104   3.478 -0.2740 -0.0959 -0.6463
10845TIP3    H153950   0.702   1.075   3.418  0.5912 -2.3278 -0.6701
10845TIP3    H253951   0.724   1.120   3.561 -0.7332 -3.5009 -0.0781
10846TIP3   OH253952   3.016   2.231  11.746 -0.0345  0.2157 -0.2965
10846TIP3    H153953   3.094   2.270  11.707 -1.1350 -0.0600 -3.0539
10846TIP3    H253954   3.040   2.139  11.760  0.1829  0.1284 -1.1465
10847TIP3   OH253955   4.702   2.028  17.228  0.3557 -0.1327 -0.3210
10847TIP3    H153956   4.769   2.062  17.286  1.0235 -1.2859 -0.3788
10847TIP3    H253957   4.748   2.004  17.148 -0.3617  0.3356 -0.8940
10848TIP3   OH253958   5.945   3.077   4.819  0.2202  0.0214 -0.2505
10848TIP3    H153959   5.941   3.010   4.888 -1.1030 -0.9626 -1.2058
10848TIP3    H253960   5.890   3.148   4.852  0.9477  0.2961  0.4084
10849TIP3   OH253961   4.783   3.564  17.097  0.6619  0.0476 -0.3992
10849TIP3    H153962   4.868   3.604  17.116  0.6361  0.2648 -0.7371
10849TIP3    H253963   4.790   3.474  17.129  1.1206 -0.0252 -0.7043
10850TIP3   OH253964   4.737   4.544  17.120  1.0249  0.1374  0.3047
10850TIP3    H153965   4.676   4.508  17.056 -0.1933 -0.0734  1.5515
10850TIP3    H253966   4.777   4.468  17.161  1.3469  0.2635  0.2289
10851TIP3   OH253967   5.918   0.911   5.091  0.0906  0.2987  0.4763
10851TIP3    H153968   5.983   0.918   5.161  0.4726 -1.2472  0.3167
10851TIP3    H253969   5.960   0.950   5.015  0.6164 -0.1482  0.5287
10852TIP3   OH253970   5.684   6.197   4.515  0.0522  0.5907  0.3742
10852TIP3    H153971   5.746   6.150   4.572  0.8339  0.3887 -0.6095
10852TIP3    H253972   5.737   6.266   4.474 -0.5810  0.9559  0.1636
10853TIP3   OH253973   3.149   0.760  15.238 -0.4877  0.0723 -0.7571
10853TIP3    H153974   3.117   0.783  15.325  0.7349  1.3509 -0.6075
10853TIP3    H253975   3.070   0.744  15.186 -1.3050  1.4245  0.0253
10854TIP3   OH253976   3.516   5.386   0.143  0.2920 -0.9277  0.2448
10854TIP3    H153977   3.596   5.415   0.185 -0.2867 -1.4654  1.7729
10854TIP3    H253978   3.450   5.389   0.212 -1.1017 -0.1761 -1.0493
10855TIP3   OH253979   1.233   0.219  14.148 -0.2192 -0.4920  0.3715
10855TIP3    H153980   1.303   0.188  14.206  0.7742  0.9682  0.0413
10855TIP3    H253981   1.238   0.315  14.155 -1.2820 -0.3338 -0.7211
10856TIP3   OH253982   0.045   3.331  16.025 -0.3602  0.9202  0.2243
10856TIP3    H153983   0.044   3.370  16.112  0.9863  1.5514 -0.0166
10856TIP3    H253984   0.096   3.392  15.972  0.6458 -0.4984 -0.4931
10857TIP3   OH253985   2.801   6.483   2.252 -0.4409  0.0796 -0.6281
10857TIP3    H153986   2.810   6.526   2.167 -0.5084 -0.3136 -0.8393
10857TIP3    H253987   2.813   6.390   2.233  1.9506  0.1633  0.1499
10858TIP3   OH253988   6.031   0.218   3.521  0.0242  0.3561 -0.0798
10858TIP3    H153989   5.976   0.141   3.508  0.8649 -0.1905 -0.4767
10858TIP3    H253990   6.028   0.263   3.436  0.7491 -0.0539 -0.3281
10859TIP3   OH253991   1.880   1.533   3.348 -0.2354  0.3487 -0.1133
10859TIP3    H153992   1.973   1.555   3.344 -0.1692  0.0655 -0.1375
10859TIP3    H253993   1.836   1.603   3.300  0.0897 -0.2817 -1.3745
10860TIP3   OH253994   3.941   2.913   1.591 -0.1430  0.0762 -0.1651
10860TIP3    H153995   3.972   3.000   1.617  0.8148 -0.0468 -0.8428
10860TIP3    H253996   3.971   2.903   1.500  1.6007 -1.7801  0.5580
10861TIP3   OH253997   2.093   0.896   3.844 -0.2616  0.4317 -0.2186
10861TIP3    H153998   1.997   0.891   3.837 -0.0923 -1.5932 -2.9899
10861TIP3    H253999   2.123   0.910   3.754  2.0809  1.6174  0.6587
10862TIP3   OH254000   4.025   4.656   5.709 -0.3436  0.3602 -0.0640
10862TIP3    H154001   3.931   4.652   5.690 -0.7002 -2.9948  1.6305
10862TIP3    H254002   4.029   4.679   5.802  0.5081  0.1701 -0.0483
10863TIP3   OH254003   1.890   2.214  12.367  0.5313  0.9197 -0.4799
10863TIP3    H154004   1.941   2.293  12.349 -0.9552  1.7783 -1.1095
10863TIP3    H254005   1.945   2.142  12.335  1.5782  1.7557 -0.6145
10864TIP3   OH254006   2.973   1.739   1.554  0.4339  0.0555  0.2088
10864TIP3    H154007   3.000   1.648   1.537  2.5724  0.1574  2.4645
10864TIP3    H254008   2.887   1.731   1.594 -0.4036 -0.7673 -1.6265
10865TIP3   OH254009   2.715   1.639  12.435 -0.5580  0.1135 -0.0140
10865TIP3    H154010   2.732   1.555  12.478  1.6261  0.0108 -0.9980
10865TIP3    H254011   2.685   1.616  12.347 -1.4830  0.3824  0.2130
10866TIP3   OH254012   1.294   5.101   1.894 -0.1628  0.0797 -0.1161
10866TIP3    H154013   1.353   5.176   1.901  0.5749 -0.5317  0.3840
10866TIP3    H254014   1.262   5.088   1.984  1.4861 -1.5794  0.3072
10867TIP3   OH254015   5.508   1.789  13.241  0.1692 -0.6966  0.5396
10867TIP3    H154016   5.597   1.822  13.249  0.3176 -1.0127  0.2332
10867TIP3    H254017   5.456   1.865  13.218  0.4502 -0.6125  0.1827
10868TIP3   OH254018   1.154   0.004  10.741 -0.0576  0.0062  0.2877
10868TIP3    H154019   1.154   0.093  10.777  0.7698  0.4780 -0.8250
10868TIP3    H254020   1.061  -0.021  10.739 -0.4270  1.3599 -0.6043
10869TIP3   OH254021   0.289   2.749   3.700 -0.6400 -0.3211 -0.3771
10869TIP3    H154022   0.234   2.726   3.625 -0.8572 -0.5248 -0.1578
10869TIP3    H254023   0.272   2.679   3.763  1.2391 -1.3992 -0.9954
10870TIP3   OH254024   5.643   0.028  16.344  0.3280 -0.8109 -0.3273
10870TIP3    H154025   5.709   0.083  16.386  1.5168 -2.6695  0.3844
10870TIP3    H254026   5.629   0.068  16.258  0.3201  1.1754  0.5687
10871TIP3   OH254027   4.748   1.538  11.963 -0.0110  0.3571 -0.1354
10871TIP3    H154028   4.736   1.481  11.887 -1.2695  0.6786 -0.2086
10871TIP3    H254029   4.659   1.552  11.996  0.4395  0.9082  0.8938
10872TIP3   OH254030   2.833   3.649  16.258 -0.1968  0.0738  0.2583
10872TIP3    H154031   2.793   3.565  16.281 -1.1174  0.6401  0.7806
10872TIP3    H254032   2.872   3.634  16.172 -0.7110 -0.7770  0.1687
10873TIP3   OH254033   5.907   6.735   0.061  0.4576 -0.0550 -0.5008
10873TIP3    H154034   5.896   6.797   0.133  2.7307 -1.1362  0.8964
10873TIP3    H254035   5.844   6.764  -0.006 -1.1465  1.4937  1.5466
10874TIP3   OH254036   2.146   2.820   4.305 -0.1323  1.0470  0.1775
10874TIP3    H154037   2.162   2.781   4.391 -1.5063  0.7297  0.3028
10874TIP3    H254038   2.125   2.746   4.248  1.2136  1.2035 -0.5646
10875TIP3   OH254039   1.560   3.979   1.138  0.1428  0.4822  0.2151
10875TIP3    H154040   1.594   4.067   1.119 -0.8642  1.1728  1.4283
10875TIP3    H254041   1.479   3.974   1.087  1.9197 -1.1746 -2.7111
10876TIP3   OH254042   5.962   0.820   0.112 -0.8153 -0.6425 -0.1619
10876TIP3    H154043   5.890   0.869   0.073  0.3059  0.7504 -0.5972
10876TIP3    H254044   5.986   0.755   0.045 -1.0130 -0.4404 -0.4289
10877TIP3   OH254045   3.919   3.836   3.956  0.3175 -0.1250 -0.0487
10877TIP3    H154046   3.930   3.886   4.037  1.0657 -2.3384  1.2887
10877TIP3    H254047   3.826   3.844   3.935  0.1177  0.4762  1.0062
10878TIP3   OH254048   0.312   0.934  12.896 -0.3865  0.1144  0.1401
10878TIP3    H154049   0.337   0.842  12.894 -0.1809  0.1281  1.1790
10878TIP3    H254050   0.390   0.981  12.866 -0.0051  0.0162  0.9509
10879TIP3   OH254051   2.123   4.875   0.643 -0.1714  0.2304  0.3018
10879TIP3    H154052   2.206   4.881   0.690  0.2611 -1.0933 -0.2573
10879TIP3    H254053   2.073   4.809   0.690 -0.3255 -0.0261 -0.2155
10880TIP3   OH254054   2.435   2.870  14.189  0.5549  0.4510 -0.8356
10880TIP3    H154055   2.489   2.804  14.146  0.0280 -0.3605 -0.2977
10880TIP3    H254056   2.349   2.861  14.147 -0.0189 -0.4774  0.4585
10881TIP3   OH254057   0.041   0.979   1.155 -1.2523  0.3320 -0.1535
10881TIP3    H154058   0.058   0.888   1.133  0.6442 -0.2266  3.0202
10881TIP3    H254059   0.059   1.027   1.074 -2.9958 -2.0577 -2.1226
10882TIP3   OH254060   5.443   5.409  12.645  1.1775 -0.7395  0.1317
10882TIP3    H154061   5.371   5.350  12.667  1.0497 -0.3066  0.9286
10882TIP3    H254062   5.402   5.496  12.642  1.7618 -0.4131  1.1739
10883TIP3   OH254063   3.390   6.087   2.682 -0.0698  0.3032  0.3101
10883TIP3    H154064   3.478   6.054   2.668 -0.5848 -0.3602 -1.7382
10883TIP3    H254065   3.341   6.013   2.718 -0.1285  0.2442  0.1083
10884TIP3   OH254066   1.409   2.232  16.866  0.0932 -0.2261  0.1271
10884TIP3    H154067   1.328   2.210  16.821 -1.0687  1.7879  1.0926
10884TIP3    H254068   1.438   2.314  16.824  1.4050 -0.6765  0.0987
10885TIP3   OH254069   5.786   0.281   4.939  0.5562 -0.3192 -0.5380
10885TIP3    H154070   5.698   0.296   4.973  0.3476  0.1812 -1.2740
10885TIP3    H254071   5.782   0.194   4.898  0.2205 -0.0300 -1.1314
10886TIP3   OH254072   5.105   1.083  16.111  0.6500 -0.4883  0.4980
10886TIP3    H154073   5.170   1.015  16.095  0.4347 -0.2612 -1.5932
10886TIP3    H254074   5.156   1.157  16.144  1.1822 -0.9301  0.6822
10887TIP3   OH254075   4.848   1.402   5.063 -0.2361  0.0439 -0.0968
10887TIP3    H154076   4.917   1.462   5.033 -0.8491  0.0654 -1.5464
10887TIP3    H254077   4.889   1.351   5.133  0.6974  1.2594  0.2900
10888TIP3   OH254078   3.232   3.333   6.707  0.8188 -0.0299  0.3693
10888TIP3    H154079   3.197   3.385   6.635 -1.2203 -0.3949  1.0266
10888TIP3    H254080   3.204   3.244   6.688  1.6146 -0.3835  0.8150
10889TIP3   OH254081   4.410   4.885   5.314 -0.1432  0.3692  0.3538
10889TIP3    H154082   4.413   4.804   5.363  1.5816  0.5948  0.6599
10889TIP3    H254083   4.331   4.877   5.260 -0.4089 -1.1685  0.9221
10890TIP3   OH254084   2.697   4.318   2.109 -0.2385  0.1207  0.2225
10890TIP3    H154085   2.776   4.301   2.058 -0.6424 -1.8163  0.1625
10890TIP3    H254086   2.659   4.396   2.070  1.6750  1.1569  0.3202
10891TIP3   OH254087   3.170   2.946   4.681  0.0200  0.8122  0.0307
10891TIP3    H154088   3.226   2.959   4.758 -0.0447 -0.8310  0.3777
10891TIP3    H254089   3.083   2.970   4.712 -0.0773 -0.2382  0.6246
10892TIP3   OH254090   2.354   6.427   1.257  0.5792 -0.5047  0.1447
10892TIP3    H154091   2.346   6.343   1.212  2.0523 -0.8506  0.4735
10892TIP3    H254092   2.445   6.452   1.245  0.5453  0.2868  1.3851
10893TIP3   OH254093   6.727   6.312  12.942 -0.0998  0.2572 -0.0369
10893TIP3    H154094   6.791   6.380  12.964 -0.3174  0.1014  1.1377
10893TIP3    H254095   6.722   6.314  12.847  0.4630  1.3626 -0.0590
10894TIP3   OH254096   4.967   4.005   3.576 -0.1004  0.2276  0.0081
10894TIP3    H154097   5.036   4.043   3.632  1.0547 -1.6083 -0.0725
10894TIP3    H254098   4.938   4.077   3.521  1.9834  1.0273 -0.1348
10895TIP3   OH254099   3.250   1.552  12.293 -0.2724 -0.3789 -0.3565
10895TIP3    H154100   3.282   1.514  12.375 -0.5003  1.4033  0.6041
10895TIP3    H254101   3.180   1.492  12.265  0.2295 -1.3563  0.3990
10896TIP3   OH254102   6.449   6.712   2.138 -0.8500  0.0221  0.2626
10896TIP3    H154103   6.401   6.793   2.148 -0.5442  0.0331  1.9773
10896TIP3    H254104   6.382   6.643   2.139 -0.9637  0.1390  0.8634
10897TIP3   OH254105   0.851   3.109  15.300  0.3231  0.8033 -0.4777
10897TIP3    H154106   0.917   3.110  15.370 -0.0403  1.6839 -0.1352
10897TIP3    H254107   0.895   3.066  15.227  0.4271 -0.9425  0.5443
10898TIP3   OH254108   1.380   3.266  14.403  0.2424 -0.4041 -0.0468
10898TIP3    H154109   1.431   3.227  14.333  1.2044  0.7777 -0.0485
10898TIP3    H254110   1.443   3.320  14.452 -0.4783 -0.8862  1.4937
10899TIP3   OH254111   2.485   0.181  11.267 -0.0673  0.4366 -0.0945
10899TIP3    H154112   2.530   0.265  11.277 -0.2193  0.3496  1.8923
10899TIP3    H254113   2.413   0.185  11.330 -1.1534 -0.5117 -1.2229
10900TIP3   OH254114   0.604   6.693  14.571  0.6273 -0.3210 -0.7021
10900TIP3    H154115   0.666   6.620  14.564  1.1772  0.2367 -2.0047
10900TIP3    H254116   0.658   6.772  14.564  0.2687  0.3220  2.5104
10901TIP3   OH254117   4.279   1.646  14.000 -0.0652 -0.2753  0.7234
10901TIP3    H154118   4.261   1.739  14.012 -1.3949 -0.6034  1.5548
10901TIP3    H254119   4.356   1.629  14.055 -1.2135 -0.0890  2.4948
10902TIP3   OH254120   5.868   6.185  16.084  0.3204  0.6362  0.2320
10902TIP3    H154121   5.924   6.141  16.020  0.2173 -0.0239  0.5812
10902TIP3    H254122   5.858   6.274  16.050 -0.6939 -0.0189 -1.2822
10903TIP3   OH254123   1.379   3.743  14.152  0.0182 -0.3296 -0.6508
10903TIP3    H154124   1.399   3.699  14.235  0.1981  0.8627 -0.0333
10903TIP3    H254125   1.289   3.775  14.163  0.3146  0.5100 -0.5961
10904TIP3   OH254126   3.284   3.809  12.479 -0.0712  0.2307 -0.3611
10904TIP3    H154127   3.351   3.763  12.530  1.1312  1.3866 -0.8387
10904TIP3    H254128   3.271   3.892  12.525 -0.3160  0.5105 -0.9183
10905TIP3   OH254129   0.765   5.600   5.659 -0.5343  0.0343  0.2928
10905TIP3    H154130   0.827   5.673   5.663 -0.0512 -0.3603 -0.0337
10905TIP3    H254131   0.737   5.588   5.750 -0.5962  0.6098  0.3535
10906TIP3   OH254132   5.617   1.632  15.653 -0.6045 -0.1617 -0.1486
10906TIP3    H154133   5.585   1.720  15.635 -1.9894 -0.4635  0.6941
10906TIP3    H254134   5.546   1.574  15.624  0.4629 -1.0453 -1.1059
10907TIP3   OH254135   2.378   1.100  10.295  0.4506  0.0830 -0.7298
10907TIP3    H154136   2.380   1.046  10.374 -1.6139 -1.6034 -1.7003
10907TIP3    H254137   2.326   1.177  10.319 -2.4251 -1.6265 -0.9828
10908TIP3   OH254138   6.536   1.969  11.643  0.6184  0.1434  0.6509
10908TIP3    H154139   6.493   1.892  11.682 -0.3814  1.5799  2.5481
10908TIP3    H254140   6.567   1.938  11.558 -1.4857 -1.8278  0.4964
10909TIP3   OH254141   1.492   5.543   1.199 -0.0127 -0.7088  0.1160
10909TIP3    H154142   1.538   5.627   1.196  1.8018 -1.6600 -0.6576
10909TIP3    H254143   1.475   5.528   1.292 -0.3023  0.4591  0.2715
10910TIP3   OH254144   1.326   3.256  10.726 -0.3990 -0.7611  0.4698
10910TIP3    H154145   1.352   3.171  10.760  0.1539 -0.4190  0.9178
10910TIP3    H254146   1.244   3.276  10.771 -0.1322 -0.7150  0.9439
10911TIP3   OH254147   6.513   1.433   3.062 -0.1237 -0.4278  0.3196
10911TIP3    H154148   6.541   1.378   2.989 -0.7710  0.2181 -0.4392
10911TIP3    H254149   6.419   1.445   3.048  0.0587  1.1730  0.2332
10912TIP3   OH254150   2.456   0.427  11.059  0.7837 -0.0989  0.5703
10912TIP3    H154151   2.409   0.401  11.138  0.1209 -0.5585  0.0364
10912TIP3    H254152   2.391   0.423  10.989  1.6822 -1.0786 -0.2499
10913TIP3   OH254153   0.897   3.776   4.905 -0.4202 -0.2774  0.0607
10913TIP3    H154154   0.850   3.821   4.976 -1.6765 -0.1062 -0.8465
10913TIP3    H254155   0.871   3.685   4.913 -0.5343 -0.2637 -0.1556
10914TIP3   OH254156   0.302   5.895   1.048 -0.3838  0.5199  0.4627
10914TIP3    H154157   0.222   5.855   1.083  0.1758 -0.3366  0.8139
10914TIP3    H254158   0.309   5.979   1.094 -0.7764  0.3463  0.8478
10915TIP3   OH254159   5.557   4.244  14.831 -0.3307 -0.0424 -0.7546
10915TIP3    H154160   5.478   4.207  14.871 -0.8658 -0.1300 -1.8520
10915TIP3    H254161   5.625   4.180  14.850 -0.7068 -0.3751 -0.4978
10916TIP3   OH254162   0.087   3.289   4.069 -0.3170  0.0676 -0.9838
10916TIP3    H154163   0.133   3.207   4.089  0.2196  0.6364  0.2031
10916TIP3    H254164  -0.005   3.266   4.067 -0.1357 -0.6576 -1.1709
10917TIP3   OH254165   0.145   3.111  15.741 -0.4192  0.3848 -0.9964
10917TIP3    H154166   0.097   3.063  15.808  0.0081  1.8780  0.4675
10917TIP3    H254167   0.097   3.193  15.732  0.4240  0.8458 -1.3711
10918TIP3   OH254168   0.402   6.553   5.342  0.3597  0.2231  0.3316
10918TIP3    H154169   0.382   6.472   5.389 -3.3223  1.9711  2.2192
10918TIP3    H254170   0.347   6.549   5.263  0.3959  0.7492  0.2743
10919TIP3   OH254171   4.592   2.547  15.069 -0.2576  0.0369 -0.0167
10919TIP3    H154172   4.551   2.464  15.048 -1.6520  0.6642  0.0759
10919TIP3    H254173   4.656   2.526  15.137 -0.6189 -0.9446  0.0290
10920TIP3   OH254174   5.436   6.321  12.735 -0.1818 -0.3720 -0.1912
10920TIP3    H154175   5.370   6.373  12.781 -0.3711 -0.4560 -0.3684
10920TIP3    H254176   5.509   6.314  12.797 -0.5658 -0.7587  0.2237
10921TIP3   OH254177   3.122   3.322  14.962 -0.0119  0.1144  0.1021
10921TIP3    H154178   3.117   3.271  14.881 -1.4364  1.0266 -0.4135
10921TIP3    H254179   3.107   3.412  14.935 -0.8241  0.4019  1.4083
10922TIP3   OH254180   6.271   1.025   4.147  0.0317 -0.2564  0.7712
10922TIP3    H154181   6.347   0.979   4.182  0.5670  0.2862  0.3530
10922TIP3    H254182   6.291   1.118   4.161 -0.1056 -0.0635 -0.2260
10923TIP3   OH254183   6.718   3.782  14.806  0.0243  0.1821  0.0531
10923TIP3    H154184   6.762   3.859  14.772  1.2445 -0.9051 -0.9277
10923TIP3    H254185   6.788   3.730  14.846 -0.3942 -1.3702 -1.1225
10924TIP3   OH254186   3.564   0.500  13.529  0.2976  0.7708 -0.0557
10924TIP3    H154187   3.620   0.431  13.494  1.4815  1.6178  0.1030
10924TIP3    H254188   3.586   0.577  13.477  0.0607  1.3775  0.7298
10925TIP3   OH254189   3.277   1.963   5.210  0.9083  0.5432 -0.2644
10925TIP3    H154190   3.271   1.869   5.197  1.3975  0.4030  0.4747
10925TIP3    H254191   3.287   1.974   5.304  1.4575  1.2983 -0.3985
10926TIP3   OH254192   3.284   0.209   2.784  0.2259  0.1823  0.4620
10926TIP3    H154193   3.365   0.252   2.814  0.8545 -1.2618  0.9199
10926TIP3    H254194   3.314   0.129   2.742 -0.9903 -0.4244  0.7185
10927TIP3   OH254195   5.653   2.932   2.770  0.1117  0.4070 -0.6441
10927TIP3    H154196   5.641   2.838   2.785  0.5438  0.5043  0.3772
10927TIP3    H254197   5.740   2.940   2.733 -0.1375  0.3628 -1.2524
10928TIP3   OH254198   1.062   1.672  16.641 -0.0968  0.6588  0.1275
10928TIP3    H154199   1.156   1.664  16.660 -0.1412  0.6683  0.3648
10928TIP3    H254200   1.025   1.587  16.663  0.0206  0.3124 -1.0014
10929TIP3   OH254201   2.567   1.449  13.842  0.6692  0.5076  0.8686
10929TIP3    H154202   2.508   1.375  13.828  1.6060 -0.0264 -0.4944
10929TIP3    H254203   2.513   1.526  13.826  0.4488  0.0218 -0.9880
10930TIP3   OH254204   2.783   0.220   5.026  0.2533 -0.1367  0.3907
10930TIP3    H154205   2.865   0.269   5.031  0.2447 -0.0102 -0.4892
10930TIP3    H254206   2.774   0.179   5.112  1.1824 -0.0662  0.5312
10931TIP3   OH254207   2.929   3.037   0.023  0.1696 -0.3957  0.2446
10931TIP3    H154208   2.942   3.088   0.104 -1.4391  1.6233 -0.6940
10931TIP3    H254209   2.958   2.949   0.046  0.4233  0.2733  2.8114
10932TIP3   OH254210   2.218   3.651  14.532 -0.1382 -0.7937 -0.5648
10932TIP3    H154211   2.231   3.656  14.437  0.6932 -1.2704 -0.4817
10932TIP3    H254212   2.150   3.716  14.550  1.4701  1.1519 -1.1405
10933TIP3   OH254213   1.587   6.266  11.076 -0.6298 -0.5595 -0.3008
10933TIP3    H154214   1.583   6.184  11.125 -1.1566 -0.8414 -0.8032
10933TIP3    H254215   1.652   6.250  11.007 -0.0808 -0.2501  0.1315
10934TIP3   OH254216   6.306   0.799   1.519  0.2449 -0.4015 -0.2212
10934TIP3    H154217   6.369   0.768   1.454 -0.6532 -1.3819 -0.6748
10934TIP3    H254218   6.303   0.729   1.584 -0.3787 -0.3859 -0.2234
10935TIP3   OH254219   4.776   5.430   1.041 -0.2345  0.4212  0.0941
10935TIP3    H154220   4.775   5.455   1.133  1.6678  1.2653 -0.0679
10935TIP3    H254221   4.851   5.477   1.004  0.5903 -1.8408 -1.3098
10936TIP3   OH254222   3.041   1.138   4.690  0.1801  0.2987 -0.2276
10936TIP3    H154223   3.085   1.223   4.685 -0.2694  0.4604 -2.7791
10936TIP3    H254224   3.033   1.110   4.599 -2.9954 -0.7577  0.2662
10937TIP3   OH254225   4.459   6.764  12.651  0.7187 -0.0443  0.1701
10937TIP3    H154226   4.442   6.670  12.656 -1.5800  0.2341 -0.9718
10937TIP3    H254227   4.472   6.791  12.742  1.3699 -1.4357  0.5204
10938TIP3   OH254228   4.811   2.376  17.067 -0.0710  0.2149  0.0715
10938TIP3    H154229   4.742   2.439  17.050  1.2233  1.7006  0.1204
10938TIP3    H254230   4.776   2.293  17.035 -2.1341  0.7674  0.7267
10939TIP3   OH254231   4.518   3.770   1.951 -0.0985  0.4293  0.0102
10939TIP3    H154232   4.448   3.836   1.955  0.4042  1.3759 -3.5888
10939TIP3    H254233   4.590   3.809   2.001 -1.0665  0.8122  1.1700
10940TIP3   OH254234   0.227   0.448  12.134  0.4802 -0.7030 -0.2235
10940TIP3    H154235   0.233   0.379  12.200  1.3578  1.1841  1.7985
10940TIP3    H254236   0.138   0.481  12.141  1.0065  0.5698  1.3005
10941TIP3   OH254237   0.536   4.976  16.891 -0.0196  0.4820  0.2208
10941TIP3    H154238   0.547   5.063  16.931  1.0471  0.4515  0.0193
10941TIP3    H254239   0.572   4.915  16.956 -0.5872  0.1964  0.2768
10942TIP3   OH254240   2.285   1.776   1.290  0.4502 -0.1954 -0.7153
10942TIP3    H154241   2.304   1.772   1.384  2.1625 -2.4898 -1.0805
10942TIP3    H254242   2.269   1.869   1.273  1.7178  0.5099  1.5496
10943TIP3   OH254243   4.036   5.315   5.595 -0.1738  0.3830 -0.4870
10943TIP3    H154244   3.954   5.322   5.547 -0.0715 -2.0103 -1.1565
10943TIP3    H254245   4.017   5.254   5.666  0.5515  1.2938  0.5219
10944TIP3   OH254246   1.368   2.771  15.953 -0.0365 -0.2215  0.6959
10944TIP3    H154247   1.342   2.707  16.019  0.5412 -0.8320  0.3496
10944TIP3    H254248   1.322   2.743  15.873  1.4351 -1.1838  0.1350
10945TIP3   OH254249   5.992   0.760  11.275  0.0979 -0.2191 -0.3612
10945TIP3    H154250   5.913   0.707  11.275  1.1304 -1.8664  0.5292
10945TIP3    H254251   5.978   0.823  11.346  1.0335 -3.0202  2.5671
10946TIP3   OH254252   4.912   3.655  12.857 -0.5400 -0.1745 -0.4720
10946TIP3    H154253   4.857   3.624  12.929  1.7220 -1.1008  0.9743
10946TIP3    H254254   4.855   3.651  12.780 -2.0507 -2.5943  0.6395
10947TIP3   OH254255   1.467   0.632   0.797  0.6694  0.3319 -0.2268
10947TIP3    H154256   1.415   0.607   0.874  0.0036  1.0105 -0.4374
10947TIP3    H254257   1.424   0.587   0.724  0.7812  0.3637 -0.3121
10948TIP3   OH254258   1.624   0.162   5.926  0.0313 -0.5988  0.0408
10948TIP3    H154259   1.686   0.156   5.999 -1.0195  0.6410  1.0723
10948TIP3    H254260   1.679   0.160   5.848  1.2021 -1.7503  0.8430
10949TIP3   OH254261   4.407   2.598  13.841 -0.3172  0.3369 -0.2769
10949TIP3    H154262   4.401   2.692  13.857 -1.5981  0.1716  0.3542
10949TIP3    H254263   4.438   2.561  13.924 -0.0128  0.1696 -0.4604
10950TIP3   OH254264   5.699   6.087   3.563  0.0394 -0.3509  0.4609
10950TIP3    H154265   5.676   6.090   3.470  1.8828  1.0451 -0.0163
10950TIP3    H254266   5.742   6.002   3.575  1.8501  0.3679 -0.5546
10951TIP3   OH254267   6.394   1.072  14.145  0.2436 -0.0334 -0.4722
10951TIP3    H154268   6.317   1.116  14.109 -1.1085 -1.7265  0.2211
10951TIP3    H254269   6.368   0.980  14.153  1.9203 -0.4423  0.8819
10952TIP3   OH254270   6.394   5.728   3.772  0.1299 -0.4390 -0.0481
10952TIP3    H154271   6.402   5.637   3.744  0.0034  0.2849 -2.6669
10952TIP3    H254272   6.339   5.770   3.706  0.2149  1.5638  1.0549
10953TIP3   OH254273   4.789   4.083  13.174  0.3614  0.7177 -0.0264
10953TIP3    H154274   4.786   4.000  13.222 -0.5695  0.2424 -0.8643
10953TIP3    H254275   4.865   4.129  13.210  0.1315  0.0576  1.3449
10954TIP3   OH254276   1.070   6.161   1.762 -0.0155 -0.2787  0.6980
10954TIP3    H154277   1.087   6.082   1.711 -1.9401  0.1066 -0.6549
10954TIP3    H254278   1.064   6.130   1.852  2.2887 -1.1618  0.6146
10955TIP3   OH254279   3.050   4.308   2.273  0.2414 -0.3787 -0.3063
10955TIP3    H154280   3.112   4.242   2.303  1.2243  0.7354  0.1983
10955TIP3    H254281   2.975   4.300   2.331  1.0416  0.0263  0.8089
10956TIP3   OH254282   1.729   2.334   1.759 -0.6010  0.2685  0.6464
10956TIP3    H154283   1.722   2.417   1.712 -0.1082 -0.5763 -0.9767
10956TIP3    H254284   1.642   2.295   1.752 -0.0665 -0.6964 -1.2560
10957TIP3   OH254285   1.968   1.535  14.022  0.1515  0.2356 -0.0338
10957TIP3    H154286   1.936   1.500  14.106  0.8466 -0.6776 -0.1426
10957TIP3    H254287   2.047   1.584  14.046  1.7502 -2.0453 -0.4236
10958TIP3   OH254288   0.235   3.183   0.049  0.0892  0.5350  0.2456
10958TIP3    H154289   0.283   3.174  -0.033 -0.7344 -2.0526 -0.0564
10958TIP3    H254290   0.297   3.157   0.117 -0.7278 -3.1084 -0.1688
10959TIP3   OH254291   1.741   6.199   6.001  0.5431  0.4585 -0.3045
10959TIP3    H154292   1.836   6.204   5.992  0.6115 -1.4098 -1.0578
10959TIP3    H254293   1.718   6.113   5.966 -1.2869  0.3214  1.0739
10960TIP3   OH254294   4.492   0.739   4.898  0.2552 -0.6058 -0.1493
10960TIP3    H154295   4.539   0.813   4.859 -0.2223 -0.1799  0.0762
10960TIP3    H254296   4.535   0.726   4.983 -0.0635 -0.1854  0.0778
10961TIP3   OH254297   0.386   1.622  16.259 -0.0120  0.2792  0.2759
10961TIP3    H154298   0.402   1.687  16.327 -0.6254  1.6030 -0.7944
10961TIP3    H254299   0.293   1.631  16.238  0.3035  0.3815 -1.1797
10962TIP3   OH254300   2.458   6.745   4.795  0.5740  0.5701  0.2011
10962TIP3    H154301   2.437   6.653   4.813  0.2121  0.4386 -0.8251
10962TIP3    H254302   2.437   6.791   4.876  1.1534 -0.3049  0.8738
10963TIP3   OH254303   0.334   4.657   3.123 -0.2199  0.4858  0.3048
10963TIP3    H154304   0.376   4.680   3.040  0.4423 -0.1944  0.4455
10963TIP3    H254305   0.341   4.562   3.128 -1.4668  0.3839  0.5067
10964TIP3   OH254306   4.825   0.284   1.071  0.3658 -0.5819  0.1764
10964TIP3    H154307   4.843   0.211   1.011  1.4089  0.8106 -1.2961
10964TIP3    H254308   4.904   0.338   1.067 -0.5797  0.9053  0.8195
10965TIP3   OH254309   5.370   5.725  12.371  0.0229 -0.2796  0.0960
10965TIP3    H154310   5.379   5.740  12.465 -2.3459 -0.5889  0.4495
10965TIP3    H254311   5.284   5.682  12.363  1.2660 -2.6314 -1.9687
10966TIP3   OH254312   6.488   1.228   0.828 -0.1150  0.5953  0.3819
10966TIP3    H154313   6.431   1.205   0.754  0.2665  0.4092  0.1466
10966TIP3    H254314   6.443   1.192   0.905 -2.2792  3.6160  0.7457
10967TIP3   OH254315   2.392   6.196  15.254  0.0422  0.0998  0.3778
10967TIP3    H154316   2.433   6.255  15.317 -0.0859 -1.3451  1.8873
10967TIP3    H254317   2.461   6.133  15.232  0.1209  0.6599 -1.0432
10968TIP3   OH254318   2.370   1.401  12.385  0.1101  0.2340  0.2960
10968TIP3    H154319   2.461   1.425  12.400 -0.0167  1.4572 -0.6910
10968TIP3    H254320   2.330   1.480  12.347 -1.1672 -0.5250 -0.0160
10969TIP3   OH254321   3.044   5.361   2.049 -0.2005  0.1761  0.1635
10969TIP3    H154322   3.102   5.311   1.992 -2.0236 -0.2072 -1.4749
10969TIP3    H254323   2.983   5.296   2.084  0.0088  0.6450  1.4374
10970TIP3   OH254324   3.256   6.276  13.280 -0.6409  0.0709 -0.5687
10970TIP3    H154325   3.297   6.197  13.317 -1.4303  0.4638  1.2660
10970TIP3    H254326   3.166   6.274  13.312 -0.6365  1.7932 -0.3541
10971TIP3   OH254327   3.101   1.175  14.153 -0.2362  0.4534  0.5064
10971TIP3    H154328   3.141   1.209  14.233  0.7163 -1.3705  0.8612
10971TIP3    H254329   3.036   1.112  14.182 -0.6227  0.5389 -0.1437
10972TIP3   OH254330   5.810   6.324   2.501  0.2129 -0.5645 -0.0402
10972TIP3    H154331   5.838   6.233   2.514 -1.2218 -1.0804 -0.3185
10972TIP3    H254332   5.737   6.336   2.563  0.2519  0.3280 -0.1555
10973TIP3   OH254333   1.361   6.121   6.485  0.6244  0.0204  0.1196
10973TIP3    H154334   1.324   6.116   6.397  0.4180  0.2338  0.1939
10973TIP3    H254335   1.455   6.104   6.472  0.2694 -2.2890  0.1457
10974TIP3   OH254336   0.093   6.164   2.063  0.5147  0.8094  0.4480
10974TIP3    H154337   0.148   6.090   2.038  0.4684  0.4825  1.2772
10974TIP3    H254338   0.089   6.219   1.984  0.9764  0.1980 -0.0123
10975TIP3   OH254339   3.649   1.051   1.168  0.5560  0.0621 -0.4638
10975TIP3    H154340   3.738   1.026   1.144  0.9262 -0.3992  1.2681
10975TIP3    H254341   3.630   1.127   1.113  2.4546  0.8761 -0.0815
10976TIP3   OH254342   0.679   6.013  14.400  0.2077 -0.1641 -0.5594
10976TIP3    H154343   0.690   6.097  14.444 -1.6853  0.3446 -0.9413
10976TIP3    H254344   0.657   5.952  14.471  0.4193 -0.0800 -0.4214
10977TIP3   OH254345   1.094   5.998  15.253  0.0044  0.1450  0.3443
10977TIP3    H154346   1.136   5.916  15.277 -1.0678 -0.2003  1.0762
10977TIP3    H254347   1.002   5.975  15.239 -0.0743  0.9975 -0.6504
10978TIP3   OH254348   3.433   5.686  11.972 -0.1030  0.0040  0.3658
10978TIP3    H154349   3.515   5.637  11.972  0.0264  0.2120  0.9169
10978TIP3    H254350   3.395   5.670  11.885 -1.0668 -2.7837  1.1699
10979TIP3   OH254351   5.789   5.581  11.591  0.2388  0.4539  0.3572
10979TIP3    H154352   5.877   5.545  11.608  0.4748  0.8519 -0.0187
10979TIP3    H254353   5.804   5.673  11.573 -0.1012  0.2320 -1.1312
10980TIP3   OH254354   1.642   2.695  15.995 -0.0262 -0.2693  0.7718
10980TIP3    H154355   1.559   2.737  15.970  0.7828  2.0058  1.6599
10980TIP3    H254356   1.680   2.666  15.912  0.1598  2.3579 -0.1405
10981TIP3   OH254357   2.535   0.374   4.377  0.3398 -0.0439  0.1996
10981TIP3    H154358   2.588   0.409   4.305 -0.8409  0.4209 -0.4681
10981TIP3    H254359   2.563   0.283   4.385  0.7409 -0.0050 -0.6103
10982TIP3   OH254360   4.207   3.137  13.674 -0.3136  0.3387 -0.2108
10982TIP3    H154361   4.280   3.185  13.635 -1.1218 -0.6097 -3.1399
10982TIP3    H254362   4.141   3.203  13.692 -0.1337  0.7576 -1.0477
10983TIP3   OH254363   5.253   6.118   2.058  0.1695  0.3973 -0.6051
10983TIP3    H154364   5.182   6.147   2.116 -0.9181 -1.1330 -1.0970
10983TIP3    H254365   5.333   6.150   2.099 -0.7948  2.1866 -0.0344
10984TIP3   OH254366   0.733   5.970   4.296  0.6636  0.3692  0.0086
10984TIP3    H154367   0.720   5.880   4.325 -0.4142  0.5109 -0.0102
10984TIP3    H254368   0.722   6.022   4.376 -0.3946  0.6078 -0.2827
10985TIP3   OH254369   1.506   0.785  15.417 -0.7741  0.2377 -0.2047
10985TIP3    H154370   1.555   0.779  15.335 -0.7481 -0.3764 -0.1464
10985TIP3    H254371   1.421   0.821  15.391 -0.3682  1.1203 -0.3336
10986TIP3   OH254372   3.754   3.065  11.685 -0.1673  0.2550 -0.2607
10986TIP3    H154373   3.775   3.144  11.735  0.7329  1.4062 -2.3241
10986TIP3    H254374   3.674   3.032  11.725  0.7711  0.7667  2.2365
10987TIP3   OH254375   5.674   0.545   3.275  0.1436  0.3180 -0.2668
10987TIP3    H154376   5.760   0.570   3.310 -0.4738  1.0151  0.8315
10987TIP3    H254377   5.665   0.452   3.297  0.1469  0.5258  0.6311
10988TIP3   OH254378   2.916   6.267   3.706 -1.0067  0.0474 -0.4337
10988TIP3    H154379   2.848   6.247   3.642 -1.5357 -0.3725  0.2531
10988TIP3    H254380   2.879   6.242   3.790 -0.7397  1.6076  0.1883
10989TIP3   OH254381   0.230   2.287   0.682  0.5104  0.2642 -0.5627
10989TIP3    H154382   0.315   2.325   0.660 -0.4208  0.8612 -3.5071
10989TIP3    H254383   0.242   2.193   0.668  0.9767  0.2076  0.1631
10990TIP3   OH254384   1.566   2.462   1.405 -0.3976  0.0873 -0.3599
10990TIP3    H154385   1.602   2.528   1.346  1.2210  0.2998  0.7968
10990TIP3    H254386   1.589   2.493   1.493  0.9630 -2.2739  0.2062
10991TIP3   OH254387   6.329   4.842   1.562 -0.3596  0.0870 -0.1258
10991TIP3    H154388   6.271   4.804   1.496 -0.0147 -0.6526 -0.0125
10991TIP3    H254389   6.405   4.871   1.513 -0.5555  0.4986 -0.1908
10992TIP3   OH254390   5.493   2.954   5.842 -0.4813 -0.7576  0.3715
10992TIP3    H154391   5.517   3.044   5.865 -2.4869  0.4152 -1.7106
10992TIP3    H254392   5.577   2.909   5.833  0.5659  0.6543  2.1901
10993TIP3   OH254393   4.022   6.363  10.984  0.3113  0.7801  0.3394
10993TIP3    H154394   4.057   6.448  10.958 -0.6629  2.0854  2.9640
10993TIP3    H254395   4.094   6.319  11.030  0.6217  0.4252 -0.4701
10994TIP3   OH254396   6.405   4.918   3.952 -0.4794  0.5706 -0.2389
10994TIP3    H154397   6.441   4.838   3.913  1.4770 -0.1214  2.6658
10994TIP3    H254398   6.480   4.977   3.959 -0.2798  0.1214  3.5029
10995TIP3   OH254399   5.563   0.307   3.364 -0.5897  0.0160  0.5939
10995TIP3    H154400   5.478   0.344   3.385 -1.2326 -1.3843  0.5785
10995TIP3    H254401   5.602   0.288   3.449  0.0035  1.2301  0.6194
10996TIP3   OH254402   2.348   1.547  13.695  0.2953 -0.0856 -0.2203
10996TIP3    H154403   2.330   1.639  13.716 -2.8348  0.0564 -2.7233
10996TIP3    H254404   2.421   1.550  13.635  0.8157  0.6617  0.4226
10997TIP3   OH254405   2.343   4.929  13.387  0.7583  0.1339  0.1495
10997TIP3    H154406   2.305   4.891  13.308  0.5343 -0.3032  0.4590
10997TIP3    H254407   2.437   4.926  13.373  0.6937  0.9559 -0.5052
10998TIP3   OH254408   6.030   2.898  13.707  0.0406  0.1274  0.1381
10998TIP3    H154409   5.956   2.947  13.744 -0.4519  0.0880 -0.7719
10998TIP3    H254410   6.089   2.965  13.673 -0.8210  0.1131 -1.4643
10999TIP3   OH254411   4.311   6.048  16.447 -0.3314 -0.4698  0.4047
10999TIP3    H154412   4.377   6.007  16.390 -0.5935 -0.1075 -0.1742
10999TIP3    H254413   4.234   6.057  16.391 -1.4722 -2.4661  1.5429
11000TIP3   OH254414   3.864   1.030  17.083  0.1789 -0.0025 -0.0576
11000TIP3    H154415   3.822   0.960  17.134  0.0269  0.8014  0.9381
11000TIP3    H254416   3.799   1.099  17.079  1.0831  0.9231  0.7764
11001TIP3   OH254417   3.945   6.431  11.382  0.3116  0.3497  0.7788
11001TIP3    H154418   3.951   6.407  11.474  0.2767  0.2139  0.7453
11001TIP3    H254419   4.019   6.386  11.341  0.3353  0.4210  0.7413
11002TIP3   OH254420   4.451   3.284  14.767  0.0780 -0.4923 -0.3932
11002TIP3    H154421   4.480   3.362  14.815  0.2516 -0.2318 -0.9060
11002TIP3    H254422   4.434   3.316  14.679  0.7823 -1.1552 -0.7882
11003TIP3   OH254423   4.195   5.362   2.871 -0.7992 -0.1268 -0.4299
11003TIP3    H154424   4.251   5.403   2.805 -1.2512  0.3948 -0.4967
11003TIP3    H254425   4.106   5.372   2.836 -1.3165  2.2704  1.2822
11004TIP3   OH254426   0.199   5.518   3.410  0.5774  1.1598  0.1003
11004TIP3    H154427   0.241   5.507   3.496  1.4557 -0.4103 -0.4852
11004TIP3    H254428   0.261   5.571   3.360 -0.2726  2.7142  0.6214
11005TIP3   OH254429   0.388   2.481  12.416 -0.0509  0.2901  0.2151
11005TIP3    H154430   0.483   2.488  12.410 -0.1739  1.3123 -1.4446
11005TIP3    H254431   0.356   2.528  12.339 -1.9527  1.3689  1.5717
11006TIP3   OH254432   5.952   5.269  16.414  0.7116 -0.2581  0.0252
11006TIP3    H154433   5.981   5.322  16.488  0.8480  0.7403 -0.7106
11006TIP3    H254434   5.938   5.333  16.343  0.5336 -1.1698 -0.7875
11007TIP3   OH254435   5.322   4.118   3.450  0.1466  0.3726  0.0602
11007TIP3    H154436   5.249   4.137   3.508  0.4379  2.1048 -0.0683
11007TIP3    H254437   5.392   4.178   3.479  1.3207 -0.8297 -0.1830
11008TIP3   OH254438   2.573   1.123  13.780  0.1360 -0.4582 -0.5496
11008TIP3    H154439   2.648   1.072  13.809  0.9126  1.3711  0.8612
11008TIP3    H254440   2.507   1.111  13.849  0.4727  0.7010  0.0009
11009TIP3   OH254441   3.019   3.795   5.024 -0.0008 -0.7098  0.5935
11009TIP3    H154442   3.100   3.846   5.033  0.0098 -0.7638  0.8063
11009TIP3    H254443   2.963   3.827   5.094  0.3690 -1.6844  1.3515
11010TIP3   OH254444   1.449   1.878  17.053  0.5121 -0.6152  0.4150
11010TIP3    H154445   1.401   1.937  17.111  1.9032 -0.0510  1.0289
11010TIP3    H254446   1.402   1.795  17.060 -1.9680  0.5371 -1.0660
11011TIP3   OH254447   5.797   3.035  17.176  0.1295 -0.2425  0.1485
11011TIP3    H154448   5.836   3.020  17.261  0.1878  0.4795  0.2551
11011TIP3    H254449   5.835   3.118  17.146  0.3214 -0.6233 -0.7004
11012TIP3   OH254450   5.184   0.434   2.343 -0.9024 -0.0769 -0.1326
11012TIP3    H154451   5.181   0.438   2.438 -0.8216 -0.9971 -0.0873
11012TIP3    H254452   5.251   0.369   2.323  1.1719  2.1423 -0.8756
11013TIP3   OH254453   0.239   1.260  12.822  0.0162 -0.0773  0.8595
11013TIP3    H154454   0.318   1.207  12.827 -0.0547 -0.5190 -1.5114
11013TIP3    H254455   0.262   1.341  12.867  2.1396  0.1062 -0.4044
11014TIP3   OH254456   3.723   6.112  10.691  0.4152  0.5383  0.6503
11014TIP3    H154457   3.704   6.072  10.606 -0.2907 -0.4775  1.2664
11014TIP3    H254458   3.657   6.076  10.750 -0.2285  2.5643  1.2740
11015TIP3   OH254459   3.859   3.495  13.241  0.2344  0.3182  0.0586
11015TIP3    H154460   3.879   3.422  13.299  0.9807  0.8797  0.5184
11015TIP3    H254461   3.829   3.454  13.160  0.7063 -0.5011  0.2917
11016TIP3   OH254462   1.728   0.733  15.563 -0.2424 -0.0676  0.1713
11016TIP3    H154463   1.640   0.752  15.531  0.2905  3.2275  0.3339
11016TIP3    H254464   1.714   0.683  15.643 -2.0221  1.0044  0.5725
11017TIP3   OH254465   1.206   1.751   1.581 -0.0313 -0.0112  0.1460
11017TIP3    H154466   1.290   1.750   1.627 -0.6843  0.3763  1.3902
11017TIP3    H254467   1.142   1.777   1.647 -0.9320  1.2002 -1.1363
11018TIP3   OH254468   3.715   0.217   1.727  0.5027  0.1988 -0.3194
11018TIP3    H154469   3.773   0.252   1.659 -0.7601  0.1491 -1.4770
11018TIP3    H254470   3.761   0.140   1.761  1.2647  0.3559 -0.9556
11019TIP3   OH254471   0.415   1.189   4.633 -0.1254  0.1927  0.5224
11019TIP3    H154472   0.373   1.123   4.577 -2.4622  1.3401  0.8283
11019TIP3    H254473   0.459   1.248   4.571 -2.4769  1.3169 -0.1640
11020TIP3   OH254474   4.859   3.944   4.949  0.1066 -0.6366 -0.3134
11020TIP3    H154475   4.947   3.934   4.987 -0.6044 -0.1204  1.5629
11020TIP3    H254476   4.858   4.033   4.913  0.4343 -0.7568 -0.6350
11021TIP3   OH254477   4.218   3.757   2.226  0.4470 -0.2532 -0.2430
11021TIP3    H154478   4.211   3.821   2.296 -1.6606  0.2545 -0.8324
11021TIP3    H254479   4.143   3.698   2.240 -0.0267 -0.1269 -2.0337
11022TIP3   OH254480   5.761   2.291   3.536 -0.1649  0.0136 -0.3409
11022TIP3    H154481   5.842   2.295   3.588 -0.7333 -0.2971  0.5982
11022TIP3    H254482   5.750   2.380   3.503  0.4495  0.1079 -0.3179
11023TIP3   OH254483   1.112   0.963  16.568  0.6995 -0.2480  0.0228
11023TIP3    H154484   1.043   0.965  16.501  1.4157  0.6385 -0.7301
11023TIP3    H254485   1.126   1.055  16.590  2.3530 -0.3254 -0.6140
11024TIP3   OH254486   2.048   4.335   5.563  0.4330 -0.2556  0.5922
11024TIP3    H154487   2.088   4.250   5.545  0.9736  0.0581  0.3083
11024TIP3    H254488   2.110   4.379   5.621  1.4941  0.9971 -1.3673
11025TIP3   OH254489   3.733   4.429  13.502  0.5707 -0.1486 -0.4227
11025TIP3    H154490   3.684   4.450  13.582  1.2660  1.5351 -0.3944
11025TIP3    H254491   3.676   4.458  13.431  0.2365 -1.0309 -0.5229
11026TIP3   OH254492   5.422   6.215  11.853 -0.0842 -0.1478 -0.2571
11026TIP3    H154493   5.473   6.208  11.934 -0.0492  0.9062 -0.1736
11026TIP3    H254494   5.355   6.281  11.873  0.5970  0.9399 -1.4090
11027TIP3   OH254495   6.120   3.095  15.220 -0.7120  0.3347 -0.1710
11027TIP3    H154496   6.163   3.162  15.272  0.7168  0.5592 -1.5506
11027TIP3    H254497   6.046   3.139  15.179 -0.7877  0.6110  0.2603
11028TIP3   OH254498   3.726   4.701   0.446 -0.1493  0.3968 -0.0402
11028TIP3    H154499   3.665   4.663   0.384  0.3969 -0.1137 -0.2695
11028TIP3    H254500   3.685   4.688   0.531 -2.1013  3.2672 -0.3878
11029TIP3   OH254501   3.765   5.550  13.957  0.0748 -0.2383  0.5975
11029TIP3    H154502   3.677   5.563  13.921  0.8364  1.9575 -0.6686
11029TIP3    H254503   3.757   5.571  14.050 -0.5118  1.1869  0.2453
11030TIP3   OH254504   3.030   0.800   0.961 -0.0748  0.6636  0.0433
11030TIP3    H154505   3.106   0.823   0.908  0.2976 -0.1181  0.2314
11030TIP3    H254506   2.956   0.811   0.902  0.3514 -0.3873 -0.7152
11031TIP3   OH254507   3.484   0.022  13.891  0.1939  0.4932 -0.0895
11031TIP3    H154508   3.577   0.030  13.872  0.1969 -0.4306 -0.4893
11031TIP3    H254509   3.442   0.012  13.805 -0.7240  4.6054 -0.3290
11032TIP3   OH254510   3.819   0.214  16.424 -0.0518  0.3769  0.5096
11032TIP3    H154511   3.750   0.154  16.396  0.1161  0.3491  0.1481
11032TIP3    H254512   3.773   0.284  16.469 -0.4249  0.8753 -0.5929
11033TIP3   OH254513   6.571   4.337   0.354 -0.0861 -0.1016  0.0611
11033TIP3    H154514   6.571   4.257   0.407  0.3377  0.0593  0.3143
11033TIP3    H254515   6.548   4.308   0.266 -1.7762 -0.2370  0.5223
11034TIP3   OH254516   0.362   3.093   4.439 -0.0587  0.4053  0.4870
11034TIP3    H154517   0.390   3.170   4.489 -1.2937  0.4092  1.2206
11034TIP3    H254518   0.404   3.019   4.482  0.5831  0.6021  0.2058
11035TIP3   OH254519   2.800   2.503   5.215  0.1868  0.2820  0.5578
11035TIP3    H154520   2.796   2.598   5.205 -3.3416  0.0952 -1.4201
11035TIP3    H254521   2.819   2.470   5.127  3.3068 -0.9607  1.5329
11036TIP3   OH254522   3.424   5.157  15.000 -0.0735 -0.0151 -0.5078
11036TIP3    H154523   3.360   5.201  14.944 -0.7080  0.0678  0.2742
11036TIP3    H254524   3.502   5.213  14.994 -0.8214  1.1456  0.3434
11037TIP3   OH254525   3.491   2.725  13.804 -0.1971  0.3633  0.7386
11037TIP3    H154526   3.433   2.694  13.735  0.0741 -1.7442  1.3920
11037TIP3    H254527   3.434   2.743  13.878 -0.4301  2.1590  0.1676
11038TIP3   OH254528   5.217   3.829   3.596 -0.4404 -0.1075 -0.4173
11038TIP3    H154529   5.205   3.866   3.509  1.1935 -1.1884 -1.1605
11038TIP3    H254530   5.183   3.895   3.656 -2.1283  0.4100 -1.8768
11039TIP3   OH254531   3.564   1.200   4.873  0.0255  0.6395 -0.1729
11039TIP3    H154532   3.498   1.169   4.934 -0.2445  0.4125 -0.5721
11039TIP3    H254533   3.555   1.295   4.873  0.4492  0.6856  0.6027
11040TIP3   OH254534   1.442   6.598  15.639 -0.0381  0.0770 -0.2118
11040TIP3    H154535   1.501   6.537  15.684 -1.4596 -1.2447 -0.0710
11040TIP3    H254536   1.358   6.587  15.682 -0.6287  1.2684 -1.0044
11041TIP3   OH254537   1.254   1.728   5.790 -0.2544  0.2746  0.2591
11041TIP3    H154538   1.321   1.746   5.857  1.5255  2.4662 -1.9068
11041TIP3    H254539   1.183   1.789   5.810 -1.3391 -1.4322  2.0284
11042TIP3   OH254540   2.537   6.278   5.397  0.0970  0.6938  0.0212
11042TIP3    H154541   2.469   6.288   5.331 -0.8090 -0.4786  0.7413
11042TIP3    H254542   2.573   6.191   5.381 -1.9318 -0.7369  2.6526
11043TIP3   OH254543   1.191   2.496  11.250  0.0857 -0.0674  0.1079
11043TIP3    H154544   1.182   2.423  11.188 -2.2999  0.5357 -0.3305
11043TIP3    H254545   1.244   2.460  11.321  0.7170 -1.5671 -1.0523
11044TIP3   OH254546   4.495   4.106   0.901  0.3782 -0.0458  1.3349
11044TIP3    H154547   4.542   4.189   0.905 -0.2626  0.4191 -0.0614
11044TIP3    H254548   4.435   4.116   0.827  0.9851 -2.1114  0.4935
11045TIP3   OH254549   5.629   2.137   3.756  0.2827 -0.1649 -0.0192
11045TIP3    H154550   5.585   2.189   3.823 -0.3873  0.3521 -0.8570
11045TIP3    H254551   5.705   2.189   3.731 -0.5934  0.6168 -1.1302
11046TIP3   OH254552   2.187   3.291   2.059  0.5275  0.4826  0.0101
11046TIP3    H154553   2.108   3.276   2.006  0.9127  0.1351 -0.4766
11046TIP3    H254554   2.176   3.380   2.094 -0.7902 -0.0967  1.1836
11047TIP3   OH254555   2.692   0.452   1.202  0.1564 -0.7408 -0.2492
11047TIP3    H154556   2.652   0.529   1.162  0.0204 -0.2605  0.7966
11047TIP3    H254557   2.786   0.464   1.189  0.0727 -1.0097 -1.1650
11048TIP3   OH254558   3.897   5.999   1.380  0.1529  1.0023 -0.3608
11048TIP3    H154559   3.913   6.088   1.413 -0.2250  0.9371  0.0146
11048TIP3    H254560   3.810   5.977   1.414  1.2451 -0.4789  1.6794
11049TIP3   OH254561   1.386   5.711  12.095  0.5970  0.4143 -0.3055
11049TIP3    H154562   1.304   5.661  12.103  0.9378  0.0904  1.4279
11049TIP3    H254563   1.454   5.652  12.128  2.1018 -0.5151 -4.4865
11050TIP3   OH254564   6.595   2.997  11.886  0.2295 -0.3441  0.4915
11050TIP3    H154565   6.511   2.952  11.897  0.0796  0.1018  1.2536
11050TIP3    H254566   6.586   3.043  11.803 -0.8616  0.8742  1.2248
11051TIP3   OH254567   1.342   0.153   3.712  0.0306 -0.6590  0.1055
11051TIP3    H154568   1.336   0.193   3.799  1.1676  1.0269 -0.5523
11051TIP3    H254569   1.253   0.160   3.678 -0.6300 -2.0799  1.3996
11052TIP3   OH254570   1.346   2.787  15.485 -0.0735 -0.0326  0.2404
11052TIP3    H154571   1.253   2.791  15.461  0.0551  0.7665 -0.1666
11052TIP3    H254572   1.393   2.804  15.403  0.4965 -2.2340  0.0409
11053TIP3   OH254573   5.688   4.441   2.359 -0.4652  0.0064 -0.2504
11053TIP3    H154574   5.635   4.378   2.309 -1.4700 -0.2533  1.0741
11053TIP3    H254575   5.778   4.411   2.348 -0.8400 -1.1121 -0.4337
11054TIP3   OH254576   3.147   5.944   4.202 -0.5506  0.5560 -0.0979
11054TIP3    H154577   3.160   5.849   4.203 -1.3214  0.3509 -2.5387
11054TIP3    H254578   3.083   5.960   4.271 -3.3138 -1.2966 -1.9939
11055TIP3   OH254579   2.726   4.895  17.040  0.6561  0.2967 -0.3012
11055TIP3    H154580   2.748   4.969  17.097 -1.7500 -0.6532  2.0641
11055TIP3    H254581   2.648   4.924  16.992 -0.1498 -0.5554  0.4505
11056TIP3   OH254582   0.115   2.829   4.411  0.2105  0.2491 -0.3590
11056TIP3    H154583   0.146   2.830   4.321  0.2284 -0.9829 -0.3813
11056TIP3    H254584   0.126   2.739   4.439  1.5993  0.9040  1.3765
11057TIP3   OH254585   2.392   1.625   3.947 -0.5985  0.5504 -0.0918
11057TIP3    H154586   2.383   1.654   4.038  0.4596 -0.2024  0.2725
11057TIP3    H254587   2.336   1.684   3.897 -0.1755  1.8064  0.8871
11058TIP3   OH254588   6.579   2.383   3.512  0.2058 -0.1946  0.3232
11058TIP3    H154589   6.598   2.467   3.471 -0.6568 -0.2021 -0.1278
11058TIP3    H254590   6.569   2.403   3.605  1.0712  0.0170  0.3735
11059TIP3   OH254591   1.009   0.463   3.623 -0.1333  0.2900 -0.1315
11059TIP3    H154592   1.085   0.460   3.682 -0.2163  0.5781 -0.0088
11059TIP3    H254593   0.941   0.507   3.673 -0.2503  0.4073 -0.3907
11060TIP3   OH254594   1.933   3.917   3.493 -0.0922 -0.1145  0.6239
11060TIP3    H154595   1.937   3.844   3.555 -2.8437  0.9529  2.2340
11060TIP3    H254596   1.854   3.902   3.442 -0.0816  1.1746  0.1915
11061TIP3   OH254597   2.932   1.776  15.122 -0.4114  0.3069 -0.4161
11061TIP3    H154598   2.992   1.850  15.127  0.5881 -0.5675  1.8674
11061TIP3    H254599   2.977   1.711  15.068  0.8027 -0.3601  1.3159
11062TIP3   OH254600   1.765   2.591  15.777 -0.1018 -0.6849  0.2424
11062TIP3    H154601   1.696   2.635  15.727 -0.3300  0.3549  1.4063
11062TIP3    H254602   1.821   2.550  15.711 -0.3040  0.7587 -0.8865
11063TIP3   OH254603   0.754   1.768   4.628 -0.7184  0.2904 -0.3677
11063TIP3    H154604   0.710   1.698   4.676  1.2339 -1.4714 -0.9960
11063TIP3    H254605   0.793   1.823   4.696  0.3443 -1.0551  0.1563
11064TIP3   OH254606   5.999   3.473  16.584 -0.0613 -0.5697 -0.3765
11064TIP3    H154607   5.905   3.454  16.584  0.1186 -1.6016  0.7745
11064TIP3    H254608   6.027   3.460  16.494 -1.2394  1.0339 -1.0188
11065TIP3   OH254609   5.053   0.564   1.949 -0.1427 -0.3255 -0.3191
11065TIP3    H154610   5.120   0.597   2.009  0.5602 -2.5791  0.2398
11065TIP3    H254611   5.010   0.642   1.915  0.0777  1.0662  2.3781
11066TIP3   OH254612   5.041   4.795  13.193 -0.1264  0.6642 -0.1717
11066TIP3    H154613   5.017   4.865  13.254  0.4480  0.4579  0.3015
11066TIP3    H254614   4.993   4.816  13.113  0.5016  1.9312 -0.2376
11067TIP3   OH254615   2.670   3.438   3.593 -0.3567 -0.1551 -0.1178
11067TIP3    H154616   2.644   3.366   3.536 -2.6684  0.2142  0.3770
11067TIP3    H254617   2.598   3.445   3.656  1.7368 -0.0870  2.4294
11068TIP3   OH254618   5.354   2.898   2.420  0.0744 -0.7816 -0.1569
11068TIP3    H154619   5.273   2.861   2.384 -0.0865  0.4652 -1.1994
11068TIP3    H254620   5.405   2.922   2.343 -0.1497  1.7332  0.3859
11069TIP3   OH254621   4.847   5.831   1.069 -0.4319  0.2652  0.1777
11069TIP3    H154622   4.900   5.753   1.088  1.1978  0.9882 -1.0605
11069TIP3    H254623   4.906   5.904   1.084 -0.6470  1.0656 -2.3601
11070TIP3   OH254624   1.766   5.781   2.150  0.4594 -0.0182  0.0870
11070TIP3    H154625   1.702   5.715   2.124 -0.5234  0.5035  1.1201
11070TIP3    H254626   1.783   5.830   2.069 -3.5714  2.4496  0.5005
11071TIP3   OH254627   6.134   4.041   3.378  0.4290  0.1380  0.4626
11071TIP3    H154628   6.068   3.972   3.371 -0.7328  1.1338  1.1174
11071TIP3    H254629   6.133   4.065   3.471  0.3845  1.4300  0.1487
11072TIP3   OH254630   3.144   2.568  11.954  0.4887 -0.2123  0.4508
11072TIP3    H154631   3.156   2.502  12.021  0.4791  1.1471  1.8382
11072TIP3    H254632   3.064   2.615  11.980  0.2501  0.0945 -0.7323
11073TIP3   OH254633   2.311   2.135   5.127 -0.0264  0.3975 -0.1057
11073TIP3    H154634   2.300   2.220   5.085 -0.3454  0.1301 -0.5827
11073TIP3    H254635   2.228   2.090   5.111 -0.0464  0.1828  0.5806
11074TIP3   OH254636   6.476   3.577   4.587 -0.3750 -0.2406 -0.3206
11074TIP3    H154637   6.514   3.494   4.556  0.5253  0.0043  0.0931
11074TIP3    H254638   6.506   3.642   4.524 -1.0499 -0.2157 -0.6222
11075TIP3   OH254639   4.286   6.100   1.487 -0.4745 -0.4282  0.1719
11075TIP3    H154640   4.356   6.071   1.428 -0.3418  0.2056  0.0168
11075TIP3    H254641   4.331   6.123   1.568 -0.6180 -0.9525  0.4071
11076TIP3   OH254642   3.876   4.931  16.960 -0.1232 -0.2819  0.0938
11076TIP3    H154643   3.783   4.919  16.943 -0.5405  0.8937  1.3562
11076TIP3    H254644   3.902   5.002  16.902  0.5019 -1.9200 -1.7207
11077TIP3   OH254645   2.386   5.611  13.370  0.1086  0.2928  1.1030
11077TIP3    H154646   2.478   5.622  13.391  0.0261  0.8675  1.1880
11077TIP3    H254647   2.357   5.537  13.423  0.7172 -0.4160  0.4556
11078TIP3   OH254648   5.260   1.529  14.465 -0.4026 -0.1581 -0.1646
11078TIP3    H154649   5.232   1.567  14.382  1.1935 -1.2324 -1.2560
11078TIP3    H254650   5.281   1.605  14.520 -1.4747  0.5691 -0.7268
11079TIP3   OH254651   4.885   1.927   3.927  0.0489  0.2064  0.4353
11079TIP3    H154652   4.808   1.984   3.930  0.6912  1.1252  0.2394
11079TIP3    H254653   4.946   1.974   3.870 -0.1349 -1.6462 -1.4246
11080TIP3   OH254654   5.847   6.766   3.125 -0.0624 -0.4438 -0.0501
11080TIP3    H154655   5.833   6.759   3.220  1.2642  1.6241  0.3639
11080TIP3    H254656   5.798   6.844   3.100  1.6243  0.4879 -0.5688
11081TIP3   OH254657   0.265   2.083  11.291  0.9760  0.3672 -0.5458
11081TIP3    H154658   0.236   2.084  11.199  1.3949  1.1820 -0.6722
11081TIP3    H254659   0.330   2.013  11.294 -0.5046 -1.0826 -0.3918
11082TIP3   OH254660   5.413   1.399   0.788  0.4371  0.2619  0.4903
11082TIP3    H154661   5.508   1.411   0.784  0.6002 -1.0663 -0.0701
11082TIP3    H254662   5.378   1.468   0.732  1.0907  0.5177  0.3845
11083TIP3   OH254663   1.338   1.426  13.900 -0.0023 -0.0438 -0.1085
11083TIP3    H154664   1.379   1.403  13.816 -2.6907 -1.0679 -1.2930
11083TIP3    H254665   1.303   1.514  13.886  3.2368  1.6747  1.5746
11084TIP3   OH254666   1.731   3.676   0.470 -0.0814 -0.1486  0.0399
11084TIP3    H154667   1.814   3.681   0.517  1.1621  0.7694 -2.1039
11084TIP3    H254668   1.691   3.762   0.481  0.4145  0.2158 -0.8349
11085TIP3   OH254669   0.304   0.331  16.556  0.0724 -0.0982 -0.2294
11085TIP3    H154670   0.323   0.387  16.481 -0.8402 -0.1788 -0.5375
11085TIP3    H254671   0.377   0.269  16.559  0.0584 -0.1752 -1.1329
11086TIP3   OH254672   5.384   1.417  17.226 -0.4722  0.1898  0.4758
11086TIP3    H154673   5.340   1.458  17.300 -0.7199 -0.1211  0.5022
11086TIP3    H254674   5.368   1.323  17.237  1.9750 -0.1812  1.6716
11087TIP3   OH254675   3.765   6.353   3.477  0.2526  0.3417  0.1172
11087TIP3    H154676   3.848   6.331   3.434  0.5393 -0.3277  0.9919
11087TIP3    H254677   3.700   6.340   3.408  0.9361  1.8168 -0.8711
11088TIP3   OH254678   4.084   6.685  11.415  0.4884 -1.1927  0.4025
11088TIP3    H154679   4.103   6.598  11.449 -0.9669 -0.9118  2.0785
11088TIP3    H254680   4.164   6.735  11.431  2.0348 -2.6070 -2.2619
11089TIP3   OH254681   4.447   4.913  14.897 -0.1984 -0.3762  0.3109
11089TIP3    H154682   4.407   4.837  14.854 -0.6321  0.8116 -1.4991
11089TIP3    H254683   4.376   4.951  14.949 -0.6052 -0.0495 -0.4504
11090TIP3   OH254684   4.592   5.188  14.244  0.4673  0.5136  0.8076
11090TIP3    H154685   4.661   5.213  14.183  1.1150  0.0681  1.3487
11090TIP3    H254686   4.601   5.094  14.254 -2.6890 -0.3249 -2.1383
11091TIP3   OH254687   6.643   6.414  14.944  0.9565  0.2882 -0.1490
11091TIP3    H154688   6.588   6.444  15.016  3.1373  1.2147  1.2509
11091TIP3    H254689   6.614   6.324  14.928  0.0659  0.2276  1.5621
11092TIP3   OH254690   3.407   0.937  12.322 -0.0395 -0.2354  0.1127
11092TIP3    H154691   3.380   1.024  12.292  0.1394 -0.7914 -1.7567
11092TIP3    H254692   3.478   0.955  12.384 -0.3762  0.9656  0.1874
11093TIP3   OH254693   0.990   4.379  12.218  0.1264  0.0220 -0.4400
11093TIP3    H154694   1.062   4.351  12.275 -1.0146 -0.7741  0.6749
11093TIP3    H254695   0.998   4.324  12.140 -0.8145 -2.0094  0.8159
11094TIP3   OH254696   0.502   4.052   2.831  0.1448  0.3350 -0.1647
11094TIP3    H154697   0.492   4.131   2.777  2.0963 -0.3011 -1.5573
11094TIP3    H254698   0.564   3.997   2.783 -0.3118 -1.5935  1.3091
11095TIP3   OH254699   3.839   3.017  13.299 -0.5669 -1.1117 -0.5109
11095TIP3    H154700   3.875   2.981  13.380  1.0027  1.6104  0.1604
11095TIP3    H254701   3.908   3.006  13.235 -0.6934 -0.7893 -0.7088
11096TIP3   OH254702   3.572   2.919  14.968  0.2875  0.0140 -0.3900
11096TIP3    H154703   3.599   2.944  15.057  1.9906 -0.6225 -0.6883
11096TIP3    H254704   3.534   2.998  14.931 -0.5696  0.2549  0.9382
11097TIP3   OH254705   6.130   6.094   5.315  0.1293 -0.3196  0.9303
11097TIP3    H154706   6.174   6.173   5.345 -0.0259  0.3334 -0.4778
11097TIP3    H254707   6.044   6.097   5.358  0.1752  0.2117  0.9909
11098TIP3   OH254708   0.685   3.250   4.840  0.8194 -0.1816 -0.0453
11098TIP3    H154709   0.645   3.262   4.754 -0.3070  0.3577  0.5214
11098TIP3    H254710   0.699   3.156   4.847  0.9312 -0.2311 -0.8187
11099TIP3   OH254711   5.402   6.035  16.602 -0.7095  0.5064  0.6107
11099TIP3    H154712   5.379   6.076  16.518  0.6177 -0.4360 -0.2550
11099TIP3    H254713   5.411   5.942  16.582 -0.5793  0.2274  1.8603
11100TIP3   OH254714   3.039   4.500   0.175 -0.1712 -0.3736 -0.4210
11100TIP3    H154715   3.084   4.504   0.091  0.8300  3.1652  0.0934
11100TIP3    H254716   3.100   4.455   0.234  0.5778  0.0693 -0.8485
11101TIP3   OH254717   0.710   6.540   5.512 -0.1998  0.0716 -0.4545
11101TIP3    H154718   0.615   6.533   5.528 -0.0010 -1.3401  0.2512
11101TIP3    H254719   0.744   6.587   5.588 -0.1481 -0.8121  0.0904
11102TIP3   OH254720   0.546   3.599  16.897 -0.6445 -0.0291 -0.7222
11102TIP3    H154721   0.456   3.599  16.929 -0.3787  2.8783  0.3626
11102TIP3    H254722   0.599   3.588  16.976 -0.0263  0.0089 -1.1230
11103TIP3   OH254723   1.741   1.777  16.035  0.3523 -0.2416 -0.3865
11103TIP3    H154724   1.786   1.846  16.084 -1.4967  1.8328 -1.4913
11103TIP3    H254725   1.810   1.738  15.981  1.3968  0.9167  0.0539
11104TIP3   OH254726   1.490   1.692   5.169 -0.6672  0.4595 -0.0322
11104TIP3    H154727   1.520   1.612   5.126 -0.3593  0.4046  0.2789
11104TIP3    H254728   1.424   1.663   5.231  0.5604  0.2409  1.2079
11105TIP3   OH254729   4.532   2.843  16.747 -0.2844  0.6878  0.1714
11105TIP3    H154730   4.625   2.826  16.754 -0.0555  1.8086  0.0998
11105TIP3    H254731   4.490   2.765  16.782  0.6803  0.3543  0.6054
11106TIP3   OH254732   2.062   0.685  10.315 -0.1727  0.0474 -0.4116
11106TIP3    H154733   1.987   0.740  10.337 -0.7112 -0.2133 -1.4889
11106TIP3    H254734   2.134   0.720  10.367 -1.0386  0.2944  0.6518
11107TIP3   OH254735   6.195   5.365  10.922  0.1918  0.1460  0.1700
11107TIP3    H154736   6.191   5.455  10.890  1.7932  0.3398  0.3886
11107TIP3    H254737   6.111   5.326  10.898 -0.5166  1.6819  0.0465
11108TIP3   OH254738   1.199   3.906   2.783  0.4605 -0.3179  0.3650
11108TIP3    H154739   1.151   3.905   2.700  0.0444  1.5874  0.5393
11108TIP3    H254740   1.134   3.935   2.848  0.9996 -0.9606  1.2181
11109TIP3   OH254741   4.020   4.578   4.109 -0.2136  0.1295 -0.1744
11109TIP3    H154742   3.993   4.669   4.121 -1.6766 -0.2952 -0.0185
11109TIP3    H254743   4.102   4.583   4.060  1.0432  1.6059  1.9114
11110TIP3   OH254744   3.749   5.875   4.144  0.4477  0.3808  0.1619
11110TIP3    H154745   3.776   5.793   4.103  0.5181  1.4203 -2.0016
11110TIP3    H254746   3.673   5.904   4.093 -0.8925  0.6587  2.2009
11111TIP3   OH254747   3.090   6.119   0.207  0.2919  0.0484  0.4088
11111TIP3    H154748   3.063   6.076   0.125  0.1653  0.6558  0.1221
11111TIP3    H254749   3.177   6.153   0.188 -0.5110  1.8948 -0.1549
11112TIP3   OH254750   6.625   5.276   4.715 -0.0737 -0.2438  0.3335
11112TIP3    H154751   6.616   5.180   4.710 -0.7971 -0.1894  0.4485
11112TIP3    H254752   6.715   5.290   4.744  0.5781 -0.8448 -1.2729
11113TIP3   OH254753   6.079   2.382  14.212  0.0779 -0.3705 -0.2342
11113TIP3    H154754   6.025   2.460  14.210  1.7977  0.8753 -0.8327
11113TIP3    H254755   6.067   2.346  14.300 -0.6015  0.6516  0.1025
11114TIP3   OH254756   0.914   0.011  13.600  0.1105  0.1567  0.4307
11114TIP3    H154757   1.007   0.030  13.613 -0.0418  1.5081 -0.2478
11114TIP3    H254758   0.912  -0.055  13.531  0.5287  1.1699 -0.5689
11115TIP3   OH254759   4.343   5.936  14.967 -0.1402  0.3554  0.1050
11115TIP3    H154760   4.427   5.936  14.920  0.3555 -0.7132  0.9476
11115TIP3    H254761   4.366   5.912  15.057 -1.2825  0.6535  0.4897
11116TIP3   OH254762   0.840   5.873  15.196  0.0647 -0.1231 -0.3734
11116TIP3    H154763   0.769   5.847  15.137  3.7101 -1.3893 -4.7801
11116TIP3    H254764   0.881   5.790  15.221  0.6631  0.6060  1.1484
11117TIP3   OH254765   2.603   2.551   4.885 -1.0309  0.5636 -0.2137
11117TIP3    H154766   2.558   2.591   4.811 -1.8779  1.8674  0.9592
11117TIP3    H254767   2.660   2.620   4.919  0.6190 -0.5405 -0.6357
11118TIP3   OH254768   6.330   1.573   0.017  0.2445  0.1188  0.0811
11118TIP3    H154769   6.373   1.653   0.047  0.4437  0.0207  0.0532
11118TIP3    H254770   6.386   1.502   0.047  0.8597  0.0451 -1.1828
11119TIP3   OH254771   0.820   1.650  15.372 -0.0780  1.4423  0.4100
11119TIP3    H154772   0.786   1.667  15.284 -0.4481 -1.5995 -0.1337
11119TIP3    H254773   0.746   1.668  15.430 -0.6946  0.8716 -0.1848
11120TIP3   OH254774   6.189   1.385  11.150  0.1368 -0.4247 -0.7099
11120TIP3    H154775   6.119   1.421  11.095  0.1969  0.2009 -0.3862
11120TIP3    H254776   6.159   1.399  11.240  0.4356 -0.6459 -0.5745
11121TIP3   OH254777   4.337   1.824  17.223 -0.1004  0.2661  0.4674
11121TIP3    H154778   4.402   1.757  17.204 -0.1562  0.3008  0.1458
11121TIP3    H254779   4.388   1.902  17.244 -0.0310  0.0124  1.2668
11122TIP3   OH254780   4.398   3.165   3.811 -0.5166  0.0151  0.2945
11122TIP3    H154781   4.307   3.188   3.792 -0.3302  1.4326  0.9515
11122TIP3    H254782   4.416   3.091   3.754 -1.8948  0.0895 -0.2941
11123TIP3   OH254783   5.075   6.583  16.761 -0.2045 -0.5898 -0.3927
11123TIP3    H154784   5.091   6.673  16.731 -0.2983  0.1942  1.7125
11123TIP3    H254785   5.017   6.594  16.837 -0.5461 -2.4762 -0.3444
11124TIP3   OH254786   3.646   0.369  14.299 -0.2136 -0.0195 -0.4142
11124TIP3    H154787   3.622   0.333  14.384 -0.5257  0.7421 -0.1687
11124TIP3    H254788   3.689   0.297  14.253  0.9274 -0.1423  0.7850
11125TIP3   OH254789   3.802   0.235   6.068 -0.2932  0.7627 -0.3128
11125TIP3    H154790   3.886   0.212   6.030  0.2801 -0.9111  1.7754
11125TIP3    H254791   3.747   0.158   6.053 -0.7944  1.0144  0.1638
11126TIP3   OH254792   5.831   2.411   6.273 -0.0545 -0.2965 -0.4239
11126TIP3    H154793   5.773   2.407   6.349 -0.6880 -5.4913 -0.8375
11126TIP3    H254794   5.919   2.398   6.309  0.3184  2.1575 -0.2903
11127TIP3   OH254795   4.146   3.847  13.552  0.2580  0.6632  0.0550
11127TIP3    H154796   4.070   3.799  13.521  1.4698 -1.3221 -0.0203
11127TIP3    H254797   4.153   3.922  13.493 -1.3274  0.5980 -0.2467
11128TIP3   OH254798   3.254   2.092   6.981 -0.4145 -0.1646  0.4014
11128TIP3    H154799   3.336   2.043   6.983 -0.4035 -0.1323  1.5249
11128TIP3    H254800   3.269   2.167   7.040 -1.5671 -0.7184  1.4488
11129TIP3   OH254801   3.112   4.046   1.882 -0.1870  0.1559  0.0487
11129TIP3    H154802   3.098   4.137   1.910  0.6374 -0.2983  2.1334
11129TIP3    H254803   3.023   4.012   1.870 -0.5113  1.2111 -0.7374
11130TIP3   OH254804   5.677   4.783   1.735  0.2915 -0.1520  0.5408
11130TIP3    H154805   5.610   4.742   1.680  0.3837  1.1525 -0.5869
11130TIP3    H254806   5.681   4.874   1.706  1.3020  0.2529  1.8131
11131TIP3   OH254807   6.704   5.723  11.429 -0.2591  0.6243  0.1369
11131TIP3    H154808   6.682   5.632  11.449  2.7304 -0.1336  0.5140
11131TIP3    H254809   6.687   5.732  11.336 -0.8584 -0.2514  0.1539
11132TIP3   OH254810   6.007   2.166   0.648 -0.2289 -0.3467  0.0072
11132TIP3    H154811   5.924   2.145   0.606 -0.0809 -0.1597 -0.3897
11132TIP3    H254812   6.005   2.261   0.660 -0.4496 -0.4521  0.8205
11133TIP3   OH254813   1.320   2.233   4.225 -0.2422 -0.2885 -0.0948
11133TIP3    H154814   1.351   2.323   4.235  1.2693 -0.7149 -0.7314
11133TIP3    H254815   1.224   2.241   4.224 -0.1295  1.4428 -1.2703
11134TIP3   OH254816   4.866   0.972   1.789 -0.4963 -0.2625 -0.4137
11134TIP3    H154817   4.844   0.951   1.880  3.1898  1.5514  1.1313
11134TIP3    H254818   4.878   0.887   1.747 -0.8776 -1.1638  1.2118
11135TIP3   OH254819   1.146   3.526   3.005  0.4063  0.6474  0.1325
11135TIP3    H154820   1.140   3.540   2.911 -1.2030  1.2590  0.2949
11135TIP3    H254821   1.113   3.437   3.018 -1.7383  1.3999  0.3001
11136TIP3   OH254822   0.122   1.325   3.623  0.3101 -0.9294 -0.1744
11136TIP3    H154823   0.120   1.240   3.666  0.9445 -0.2990  1.1616
11136TIP3    H254824   0.181   1.378   3.676 -2.1237  1.1657  0.6587
11137TIP3   OH254825   5.324   5.648  11.483 -0.2114  0.3729  0.3948
11137TIP3    H154826   5.327   5.567  11.533  0.8579  0.4992  0.5804
11137TIP3    H254827   5.284   5.712  11.543 -2.1232 -0.2553 -0.1617
11138TIP3   OH254828   3.748   1.269  13.223  0.2001 -0.1586  0.5802
11138TIP3    H154829   3.788   1.351  13.251  0.1433 -0.8740  2.9371
11138TIP3    H254830   3.654   1.282  13.235  0.2486 -0.8550  1.9579
11139TIP3   OH254831   0.122   1.886   4.261 -0.1607 -0.3788  0.5498
11139TIP3    H154832   0.142   1.795   4.279 -0.6811 -1.0932 -2.0637
11139TIP3    H254833   0.031   1.897   4.290 -0.2928 -0.8809  0.3350
11140TIP3   OH254834   3.313   3.041  15.985  0.0772 -0.0751  0.1821
11140TIP3    H154835   3.296   3.134  16.001 -2.6634 -0.6960  1.3798
11140TIP3    H254836   3.293   2.998  16.068 -1.8389 -2.0473 -1.2020
11141TIP3   OH254837   2.668   4.499  12.638 -0.3146  0.0068  0.0886
11141TIP3    H154838   2.635   4.589  12.638 -1.0176 -0.2325  0.8439
11141TIP3    H254839   2.749   4.503  12.688 -0.0262  0.3254 -0.4017
11142TIP3   OH254840   4.193   2.406  14.746 -0.4982  0.5878 -0.0327
11142TIP3    H154841   4.131   2.388  14.817 -1.7213  0.3121 -1.1235
11142TIP3    H254842   4.179   2.498  14.726 -0.3774  0.5868 -0.1187
11143TIP3   OH254843   3.218   2.539   2.241  0.0127 -0.2271  0.0317
11143TIP3    H154844   3.283   2.552   2.310  1.5931  0.5082 -1.5215
11143TIP3    H254845   3.266   2.495   2.171 -1.7327 -1.6524 -0.3441
11144TIP3   OH254846   4.616   3.045  15.229 -0.4452 -0.1369 -0.5675
11144TIP3    H154847   4.574   3.103  15.166  2.0297  2.3925 -0.1203
11144TIP3    H254848   4.578   3.069  15.314 -0.4453 -0.2088 -0.5470
11145TIP3   OH254849   3.586   2.927   1.990  0.4034 -0.2196  0.1433
11145TIP3    H154850   3.547   3.014   1.981  0.6188 -0.1071  0.2643
11145TIP3    H254851   3.531   2.881   2.053  0.6403  0.0418  0.5442
11146TIP3   OH254852   1.598   0.760   4.976 -0.3223 -0.2773 -0.2291
11146TIP3    H154853   1.680   0.756   4.927  1.3937 -1.5639  2.5324
11146TIP3    H254854   1.573   0.669   4.989 -1.7690  0.0813 -0.2823
11147TIP3   OH254855   3.844   0.184  15.841  0.1171 -0.8083 -0.0155
11147TIP3    H154856   3.889   0.258  15.883 -1.8937  0.0104  0.8486
11147TIP3    H254857   3.906   0.153  15.775  1.8643  0.3120  0.9942
11148TIP3   OH254858   5.422   5.171  12.849 -0.0365  0.2029  0.4017
11148TIP3    H154859   5.401   5.188  12.757 -1.7231  0.0095  0.7174
11148TIP3    H254860   5.340   5.185  12.895  0.8227  0.4794  1.9289
11149TIP3   OH254861   1.170   2.202   0.888  0.1493 -0.5053 -0.1511
11149TIP3    H154862   1.149   2.119   0.845 -3.7886  0.7324 -1.0747
11149TIP3    H254863   1.169   2.267   0.817  0.6009  0.6658  0.8767
11150TIP3   OH254864   6.178   5.914   0.554  0.0636 -0.6054  0.2390
11150TIP3    H154865   6.202   5.851   0.487  1.3295  0.6684 -0.5628
11150TIP3    H254866   6.251   5.913   0.615  0.9252  1.2452 -0.6821
11151TIP3   OH254867   6.022   3.532   1.359 -0.4859 -0.1288 -0.1873
11151TIP3    H154868   6.021   3.627   1.356 -1.2936 -0.0843  0.9755
11151TIP3    H254869   6.065   3.506   1.277 -0.7666  1.2029 -0.7806
11152TIP3   OH254870   0.380   2.093   1.116  0.2331  0.3593 -0.5126
11152TIP3    H154871   0.372   2.120   1.207  0.4509 -1.4874  0.0977
11152TIP3    H254872   0.387   2.175   1.067  0.0467  1.3882  1.1098
11153TIP3   OH254873   3.329   6.338   5.624  0.6245  0.0879 -0.1035
11153TIP3    H154874   3.243   6.373   5.647  0.8293  0.8243 -0.4134
11153TIP3    H254875   3.313   6.246   5.603 -0.3474  0.5603 -1.6080
11154TIP3   OH254876   5.250   5.290   5.474 -0.1668 -0.1740  0.2508
11154TIP3    H154877   5.228   5.201   5.503  1.2336 -0.3194  0.9834
11154TIP3    H254878   5.169   5.324   5.436 -1.2305 -1.1359  1.5393
11155TIP3   OH254879   2.904   4.272  15.300  0.1582  0.3020  0.1490
11155TIP3    H154880   2.843   4.212  15.344  2.4258 -1.1513  1.5111
11155TIP3    H254881   2.952   4.314  15.372  1.7232  0.3294 -0.8653
11156TIP3   OH254882   3.740   4.426   1.296 -0.2913  0.0532 -0.2548
11156TIP3    H154883   3.718   4.504   1.244  0.3741  0.6983  0.3968
11156TIP3    H254884   3.807   4.382   1.244  1.3202  1.3825  0.5919
11157TIP3   OH254885   0.739   0.377   2.707  0.4412 -0.0810  0.5089
11157TIP3    H154886   0.725   0.324   2.629  0.1377 -0.3143  0.7176
11157TIP3    H254887   0.751   0.313   2.777  0.7490  0.1274  0.6483
11158TIP3   OH254888   4.355   4.730   3.282 -0.6749 -0.4162 -0.0392
11158TIP3    H154889   4.305   4.743   3.201 -0.5288 -0.8662 -0.2025
11158TIP3    H254890   4.397   4.645   3.271 -1.6371 -1.0508  1.0320
11159TIP3   OH254891   5.987   6.786  12.814  0.6381 -0.4460  0.3726
11159TIP3    H154892   6.007   6.802  12.722 -0.5784  0.8124  0.2933
11159TIP3    H254893   6.000   6.692  12.825  2.3442 -0.3834 -0.6641
11160TIP3   OH254894   5.984   0.459  12.063 -0.1306 -0.5283 -0.1430
11160TIP3    H154895   6.072   0.494  12.072  0.4169 -1.3474 -1.8675
11160TIP3    H254896   5.996   0.375  12.017 -1.7323 -1.0229  0.2734
11161TIP3   OH254897   1.973   5.291   2.217 -0.9120 -0.3113  0.8146
11161TIP3    H154898   1.936   5.306   2.130 -0.2501 -1.1326  0.3769
11161TIP3    H254899   2.045   5.355   2.223 -0.9512 -0.2613  0.7580
11162TIP3   OH254900   1.718   3.852   3.324  0.3197 -0.0684  0.0063
11162TIP3    H154901   1.731   3.923   3.261  1.7957 -0.5721 -0.2832
11162TIP3    H254902   1.681   3.781   3.272  0.2126 -0.0088  0.0002
11163TIP3   OH254903   4.643   2.061  11.101 -0.0796  0.0759 -0.1565
11163TIP3    H154904   4.552   2.041  11.079 -0.2015  2.6739 -2.6698
11163TIP3    H254905   4.694   1.991  11.061 -0.8728  0.1220 -1.3021
11164TIP3   OH254906   1.914   3.526  12.462 -0.1506 -0.7002  0.0973
11164TIP3    H154907   1.830   3.571  12.476  0.2510 -0.3231  1.4994
11164TIP3    H254908   1.929   3.530  12.368 -1.1630  0.2273 -0.0362
11165TIP3   OH254909   6.664   6.295  16.928 -0.2669  0.5726 -0.3034
11165TIP3    H154910   6.717   6.374  16.944  0.6554  0.4792 -2.5440
11165TIP3    H254911   6.642   6.299  16.836 -1.6726 -0.9587 -0.0785
11166TIP3   OH254912   6.418   0.986   1.241  0.2388 -0.3912 -0.9644
11166TIP3    H154913   6.379   0.899   1.240  1.6467 -1.0664 -0.6927
11166TIP3    H254914   6.425   1.011   1.149 -0.0415 -0.6258 -1.0498
11167TIP3   OH254915   6.360   2.166  15.163  0.0538  0.1978 -0.1615
11167TIP3    H154916   6.436   2.116  15.130  0.4316 -0.8817  2.1667
11167TIP3    H254917   6.333   2.119  15.242 -2.4996  1.1054 -0.4174
11168TIP3   OH254918   6.560   3.996   2.211  0.1188 -0.1519 -0.0763
11168TIP3    H154919   6.542   3.985   2.304 -0.3093  2.0346  0.1783
11168TIP3    H254920   6.655   4.006   2.205  0.2623 -1.3691 -0.0413
11169TIP3   OH254921   4.259   2.490   5.568  0.4016  0.0309 -0.2676
11169TIP3    H154922   4.257   2.585   5.582  2.7365  0.0962  0.0251
11169TIP3    H254923   4.289   2.455   5.652  2.1722 -0.7040 -1.1685
11170TIP3   OH254924   0.454   2.878   2.969 -0.4367 -0.5101 -0.4729
11170TIP3    H154925   0.420   2.789   2.957  0.6541 -0.6790 -3.1388
11170TIP3    H254926   0.547   2.866   2.987 -0.5807  0.0975  0.8029
11171TIP3   OH254927   5.957   3.833   5.678  0.8545 -0.0848  0.0903
11171TIP3    H154928   5.990   3.875   5.758 -1.5147  1.6630  0.2550
11171TIP3    H254929   5.954   3.904   5.614 -1.3028 -0.4073 -0.2480
11172TIP3   OH254930   2.159   5.786  16.225  0.0698  0.5524 -0.6795
11172TIP3    H154931   2.141   5.784  16.131  2.7264  0.0034 -1.2715
11172TIP3    H254932   2.192   5.699  16.246  1.2083  1.1765  0.3360
11173TIP3   OH254933   3.997   4.756  14.589  0.3718  0.1700 -0.6949
11173TIP3    H154934   3.958   4.688  14.534 -1.9910  0.5088  0.4644
11173TIP3    H254935   3.933   4.771  14.659  1.5871  2.3987  0.0417
11174TIP3   OH254936   3.603   1.505   2.715  0.5100  0.3551 -0.0936
11174TIP3    H154937   3.540   1.568   2.751  2.2840  1.9115  0.4192
11174TIP3    H254938   3.628   1.541   2.630  1.6764  0.4639  0.2802
11175TIP3   OH254939   0.793   2.013   3.506 -0.0241 -0.3281 -0.5058
11175TIP3    H154940   0.800   1.922   3.478 -0.2590 -0.5068 -0.0005
11175TIP3    H254941   0.831   2.064   3.434 -1.7178 -0.6848 -1.6957
11176TIP3   OH254942   0.340   3.476   0.372  0.1940  0.1544 -0.0508
11176TIP3    H154943   0.251   3.454   0.400  0.2377 -2.3112 -1.4897
11176TIP3    H254944   0.397   3.430   0.434  0.3406 -1.4551 -1.3007
11177TIP3   OH254945   4.593   0.633  14.431 -0.5551 -0.1451 -0.1756
11177TIP3    H154946   4.503   0.625  14.461 -0.2311  1.9660  1.6237
11177TIP3    H254947   4.601   0.724  14.401  0.8001 -0.4762 -0.9220
11178TIP3   OH254948   1.934   2.807   0.894 -0.2140 -0.1152  0.3005
11178TIP3    H154949   1.846   2.827   0.862  0.2256 -0.2126 -1.0289
11178TIP3    H254950   1.953   2.878   0.956 -1.1294  0.0201  0.4470
11179TIP3   OH254951   0.711   3.140  17.164 -0.1882  0.3089 -0.1052
11179TIP3    H154952   0.779   3.128  17.097  1.4396  2.3336  1.0662
11179TIP3    H254953   0.736   3.080  17.234  1.3666  2.0707  0.9520
11180TIP3   OH254954   4.564   5.148   2.739  0.4538 -0.0130 -0.0426
11180TIP3    H154955   4.508   5.100   2.677  2.4980 -0.2281 -1.8283
11180TIP3    H254956   4.574   5.235   2.699  1.1644  0.1101  0.4021
11181TIP3   OH254957   1.178   4.308   6.078  0.0832 -0.3066 -0.3020
11181TIP3    H154958   1.188   4.224   6.034 -1.2677 -0.4376 -0.4068
11181TIP3    H254959   1.151   4.286   6.167 -1.6513 -0.0090 -0.7125
11182TIP3   OH254960   1.358   5.792  14.999 -1.0757 -0.5806  0.2681
11182TIP3    H154961   1.384   5.872  15.044 -2.5740 -0.3975  0.8942
11182TIP3    H254962   1.291   5.820  14.936 -1.8688 -1.3531  0.7286
11183TIP3   OH254963   2.708   2.768  16.742  0.0602  0.0487  0.1813
11183TIP3    H154964   2.718   2.824  16.819 -0.3191 -0.7427  0.8155
11183TIP3    H254965   2.626   2.721  16.756  0.5830 -0.9994 -0.1099
11184TIP3   OH254966   2.876   1.458   1.989  0.2724  0.1062  0.8546
11184TIP3    H154967   2.787   1.489   2.001  0.2727  0.4579  0.0570
11184TIP3    H254968   2.922   1.486   2.068 -0.3577 -0.2212  1.3399
11185TIP3   OH254969   1.275   4.270   1.547 -0.6759  0.5053  0.1827
11185TIP3    H154970   1.231   4.218   1.479 -0.1837  1.1160 -0.6217
11185TIP3    H254971   1.207   4.284   1.613 -0.9916 -0.6197  0.1186
11186TIP3   OH254972   1.510   2.843   4.085 -0.1992  0.0644  0.1929
11186TIP3    H154973   1.585   2.902   4.091 -0.3011  0.1095  1.0714
11186TIP3    H254974   1.469   2.867   4.002 -0.9385  2.1057  1.0740
11187TIP3   OH254975   6.548   2.722   0.115  0.2218 -0.5131 -0.3387
11187TIP3    H154976   6.636   2.738   0.149  0.6396 -0.8034 -1.2427
11187TIP3    H254977   6.490   2.734   0.190  0.7823  2.1753 -0.2497
11188TIP3   OH254978   3.604   0.377  15.998 -0.4127 -0.0068 -0.0155
11188TIP3    H154979   3.510   0.388  16.015 -0.2837 -0.5860  1.2365
11188TIP3    H254980   3.620   0.284  16.016  0.1917 -0.1800 -1.3611
11189TIP3   OH254981   2.447   0.434  12.723 -0.1789  0.6078  0.1230
11189TIP3    H154982   2.523   0.490  12.735  0.1883  0.4207 -1.1217
11189TIP3    H254983   2.427   0.399  12.810  1.2373  0.5604  0.4413
11190TIP3   OH254984   0.446   1.216  14.879  0.1263 -0.0719  0.2150
11190TIP3    H154985   0.486   1.149  14.824 -0.1011  0.0103 -0.0534
11190TIP3    H254986   0.441   1.176  14.965 -1.5931 -1.0595 -0.2996
11191TIP3   OH254987   2.959   4.715   0.318  0.4653  0.6358 -0.4863
11191TIP3    H154988   2.955   4.651   0.247 -2.4905  0.5321 -0.3476
11191TIP3    H254989   2.884   4.773   0.301 -1.5110 -0.4604  3.4519
11192TIP3   OH254990   0.470   3.401  15.763 -0.1014 -0.1497  0.1701
11192TIP3    H154991   0.555   3.416  15.804  0.6526  0.9048 -1.6571
11192TIP3    H254992   0.446   3.311  15.788  2.0830 -0.8867 -0.1983
11193TIP3   OH254993   4.415   3.089  16.662  0.1198 -0.5878  0.3246
11193TIP3    H154994   4.466   3.018  16.621  1.6235  0.5103  0.1930
11193TIP3    H254995   4.410   3.065  16.754  3.7242  0.7614  1.0160
11194TIP3   OH254996   6.722   6.721   0.242 -0.0789 -0.2692 -0.1720
11194TIP3    H154997   6.673   6.770   0.309 -1.2899 -1.0619 -0.4360
11194TIP3    H254998   6.670   6.642   0.229 -0.6644  0.5115 -3.1082
11195TIP3   OH254999   1.211   4.980  13.448  0.5807 -0.1604 -0.7342
11195TIP3    H155000   1.182   4.964  13.537 -2.5552 -0.9889 -1.7997
11195TIP3    H255001   1.210   4.893  13.406  1.2329  0.3270 -1.8141
11196TIP3   OH255002   6.707   0.145  13.056  0.3742  0.4548 -0.1756
11196TIP3    H155003   6.625   0.192  13.070 -0.5234 -0.5499 -1.8243
11196TIP3    H255004   6.769   0.188  13.116 -1.2014  1.5481  0.7594
11197TIP3   OH255005   5.914   0.296  16.525 -0.5862 -0.4405 -0.2643
11197TIP3    H155006   5.861   0.346  16.463 -0.1872  1.2691  0.7393
11197TIP3    H255007   5.851   0.260  16.588 -0.6228  1.4397  0.8256
11198TIP3   OH255008   3.363   0.440  13.858  0.2576 -0.1049  0.3030
11198TIP3    H155009   3.303   0.394  13.917 -0.2375 -0.1812 -0.2444
11198TIP3    H255010   3.353   0.532  13.880 -0.0315 -0.1209  0.2410
11199TIP3   OH255011   3.534   3.112   3.736 -0.0849 -0.2929  0.4775
11199TIP3    H155012   3.510   3.130   3.827 -0.8718 -0.1281  0.2484
11199TIP3    H255013   3.604   3.175   3.717  1.4153 -1.5502  1.5114
11200TIP3   OH255014   5.751   5.803   3.519  0.7344  0.8561  0.0604
11200TIP3    H155015   5.827   5.756   3.553  0.7606 -0.1847 -1.3656
11200TIP3    H255016   5.675   5.758   3.557  0.7879  1.3518  0.7888
11201TIP3   OH255017   3.031   4.609   2.620 -0.0453  0.0329 -0.3445
11201TIP3    H155018   3.004   4.595   2.711 -0.9682  1.8863 -0.2859
11201TIP3    H255019   3.013   4.525   2.577 -2.0666 -0.1018  0.6337
11202TIP3   OH255020   4.557   6.068   0.083  0.1002  0.0494 -0.1894
11202TIP3    H155021   4.490   6.133   0.065  0.6651  0.8315  0.4525
11202TIP3    H255022   4.558   6.012   0.005 -1.1997  0.0909 -0.2552
11203TIP3   OH255023   5.205   1.950  14.346  0.6338 -0.0601 -0.1798
11203TIP3    H155024   5.212   1.920  14.255 -0.4468  0.0167 -0.3034
11203TIP3    H255025   5.287   1.923  14.387  0.4228 -1.6330 -0.7402
11204TIP3   OH255026   0.181   2.868   4.869  0.5245  0.3298 -0.3807
11204TIP3    H155027   0.169   2.922   4.791  2.4391  1.7364  0.2200
11204TIP3    H255028   0.115   2.800   4.861 -0.2315  1.2182 -2.5345
11205TIP3   OH255029   2.964   0.729  14.297  0.5206  0.0831 -0.2284
11205TIP3    H155030   3.003   0.658  14.348 -0.5055 -0.1798  0.2223
11205TIP3    H255031   2.870   0.709  14.297  0.2966  1.0978 -0.6398
11206TIP3   OH255032   1.927   0.299   4.310 -0.0086 -0.5121  0.3282
11206TIP3    H155033   2.006   0.247   4.322 -1.6015 -2.6482  2.4433
11206TIP3    H255034   1.935   0.369   4.376 -0.8699 -2.1661  2.3202
11207TIP3   OH255035   4.980   6.760   1.880 -0.1651  0.0854  0.6540
11207TIP3    H155036   5.073   6.737   1.873  0.0099  0.4249  1.7336
11207TIP3    H255037   4.970   6.796   1.968 -0.9589  1.7830 -0.0918
11208TIP3   OH255038   0.453   2.541  11.286 -0.4984 -0.2959 -0.5520
11208TIP3    H155039   0.474   2.531  11.379  1.0756  0.8534 -0.7501
11208TIP3    H255040   0.478   2.631  11.266  0.2620 -0.8783 -2.3592
11209TIP3   OH255041   2.661   0.906   2.123  0.7957  0.0073  0.2464
11209TIP3    H155042   2.754   0.925   2.116  0.7195  0.8467  1.2501
11209TIP3    H255043   2.652   0.860   2.207  0.6549 -2.5820 -1.0964
11210TIP3   OH255044   3.308   0.054  13.661 -0.0806 -0.1199 -0.1913
11210TIP3    H155045   3.261   0.025  13.583 -1.9808  0.8076  0.5621
11210TIP3    H255046   3.329   0.146  13.645 -1.2734  0.3319  0.7262
11211TIP3   OH255047   1.821   5.290  11.858  0.3345  0.0253 -0.1032
11211TIP3    H155048   1.830   5.211  11.805  2.1746 -1.3118  2.0250
11211TIP3    H255049   1.874   5.356  11.814  0.2773 -0.4642 -0.9200
11212TIP3   OH255050   4.571   3.155   1.562  0.1090 -0.1411  0.2003
11212TIP3    H155051   4.479   3.132   1.577  0.2072 -1.1724 -0.6488
11212TIP3    H255052   4.614   3.133   1.645 -0.2550 -0.5934  0.2795
11213TIP3   OH255053   1.822   3.261  13.026 -0.1265 -0.1313 -0.2246
11213TIP3    H155054   1.824   3.230  12.935  0.0039 -0.5925 -0.0717
11213TIP3    H255055   1.732   3.292  13.039 -0.5534 -1.3493 -0.1071
11214TIP3   OH255056   2.320   0.998  14.168  0.3848  0.2281 -0.2444
11214TIP3    H155057   2.335   0.906  14.147  1.2393 -0.4295  2.6670
11214TIP3    H255058   2.316   1.042  14.084  1.4878 -2.2504 -1.7117
11215TIP3   OH255059   3.375   5.473  10.918 -0.3335  0.3126 -0.3161
11215TIP3    H155060   3.453   5.478  10.862 -1.3773 -0.2760 -1.8961
11215TIP3    H255061   3.305   5.445  10.859 -2.1407  2.4945  0.6438
11216TIP3   OH255062   1.846   2.390   0.711  0.2117  0.4400 -0.3277
11216TIP3    H155063   1.911   2.449   0.749 -1.3155  0.4729  2.5336
11216TIP3    H255064   1.802   2.443   0.645  0.2748  1.8758  0.7170
11217TIP3   OH255065   0.084   3.882   3.175  0.0056 -0.0716  0.2401
11217TIP3    H155066   0.165   3.835   3.154  1.1813  3.0240 -3.2655
11217TIP3    H255067   0.024   3.861   3.104 -1.4743 -0.4776  1.5619
11218TIP3   OH255068   0.611   1.204   3.696 -0.4306  0.3669 -0.1458
11218TIP3    H155069   0.574   1.218   3.783  0.8660 -1.0212  0.6778
11218TIP3    H255070   0.540   1.225   3.635 -2.2006 -1.1106  1.3116
11219TIP3   OH255071   4.134   4.139  11.065  0.3506  0.5802  0.2394
11219TIP3    H155072   4.059   4.108  11.115 -0.9321  0.0239 -1.8851
11219TIP3    H255073   4.205   4.080  11.089 -0.0223  0.7314  1.8190
11220TIP3   OH255074   3.163   1.242  11.955  0.3151  0.2702 -0.5821
11220TIP3    H155075   3.135   1.234  11.863  1.3916 -1.0024 -0.8399
11220TIP3    H255076   3.082   1.250  12.005 -0.2834  1.2548 -1.6527
11221TIP3   OH255077   0.248   5.033   5.395  0.2049  0.6570 -0.4196
11221TIP3    H155078   0.310   5.061   5.328 -0.7681  1.4412 -1.0111
11221TIP3    H255079   0.163   5.037   5.352 -0.5852  2.2955  1.1762
11222TIP3   OH255080   5.544   4.492   2.905 -0.2250 -0.4705 -0.3301
11222TIP3    H155081   5.554   4.587   2.897  0.3457 -0.5790 -0.9885
11222TIP3    H255082   5.491   4.467   2.829  1.5403 -0.9542 -1.4526
11223TIP3   OH255083   5.795   0.650  12.733 -0.1058  0.1745  0.0260
11223TIP3    H155084   5.800   0.555  12.740 -2.5876 -0.0329 -0.1568
11223TIP3    H255085   5.841   0.682  12.811  1.5280 -1.1131 -0.3666
11224TIP3   OH255086   0.927   0.590   1.806  0.3559  0.0165 -0.6941
11224TIP3    H155087   0.976   0.521   1.851 -0.5934  1.3070  2.6100
11224TIP3    H255088   0.980   0.669   1.820 -0.4789  0.6419 -1.0070
11225TIP3   OH255089   6.008   2.996  12.000  0.1035 -0.0180 -0.4034
11225TIP3    H155090   6.066   2.945  11.944  0.5164 -0.6937  0.6105
11225TIP3    H255091   5.978   2.934  12.066  0.5246  1.0199  0.7974
11226TIP3   OH255092   3.600   0.343   6.218  0.3680 -0.0730  0.5124
11226TIP3    H155093   3.552   0.266   6.189 -1.0879  0.6366  0.9336
11226TIP3    H255094   3.686   0.335   6.177 -0.4587 -0.8440 -1.1538
11227TIP3   OH255095   4.481   2.033   6.601 -0.2066 -0.0411  0.2861
11227TIP3    H155096   4.409   1.970   6.602 -0.9123  0.7266 -0.4875
11227TIP3    H255097   4.447   2.109   6.649  0.5624 -0.1484  1.0315
11228TIP3   OH255098   4.764   0.890   2.052 -0.1109  0.1153 -0.8830
11228TIP3    H155099   4.722   0.963   2.098  0.4320  0.7991 -1.4302
11228TIP3    H255100   4.744   0.813   2.105 -1.1976  0.5674 -0.6070
11229TIP3   OH255101   6.676   2.943  14.000 -0.5366 -0.3841 -0.5378
11229TIP3    H155102   6.665   2.921  14.093 -1.4831 -1.3707 -0.8675
11229TIP3    H255103   6.622   2.879  13.954  1.9762 -1.6487 -1.9518
11230TIP3   OH255104   5.706   4.308  15.195 -0.1907  0.6759 -0.1664
11230TIP3    H155105   5.759   4.246  15.245 -0.9543 -0.3476 -0.6018
11230TIP3    H255106   5.725   4.393  15.235 -0.3334 -0.0293  1.4905
11231TIP3   OH255107   3.639   2.862   2.945 -0.3113  0.6198 -0.3359
11231TIP3    H155108   3.695   2.933   2.977  2.8525 -0.4914 -2.8791
11231TIP3    H255109   3.577   2.905   2.887  1.5961  1.4300 -1.8893
11232TIP3   OH255110   1.043   5.027   4.503 -0.2001 -1.0155  0.1363
11232TIP3    H155111   1.021   5.083   4.578 -1.2062 -0.4602 -0.5563
11232TIP3    H255112   1.116   5.072   4.461 -0.3616 -0.7360  0.1497
11233TIP3   OH255113   3.328   5.868  11.498 -0.3367  0.2702  0.6052
11233TIP3    H155114   3.376   5.945  11.466  0.8647 -0.5442  0.3385
11233TIP3    H255115   3.299   5.823  11.418  1.6354 -1.1373  0.5949
11234TIP3   OH255116   0.608   1.905   5.721  0.2688  0.1797 -0.0643
11234TIP3    H155117   0.573   1.968   5.658 -0.7207 -0.0509  0.2439
11234TIP3    H255118   0.659   1.845   5.667 -3.2058 -2.0002 -1.2711
11235TIP3   OH255119   4.333   6.248  16.079 -0.1232  0.2187  0.1049
11235TIP3    H155120   4.335   6.153  16.095  0.8872 -0.2381 -2.3120
11235TIP3    H255121   4.407   6.282  16.130 -0.7765 -0.1834  1.3684
11236TIP3   OH255122   4.363   1.235   4.847  0.0820 -0.4627  0.1343
11236TIP3    H155123   4.374   1.330   4.846  0.7798 -0.5383 -0.4089
11236TIP3    H255124   4.408   1.206   4.768 -1.3581 -1.1188 -0.4945
11237TIP3   OH255125   6.421   1.821  11.870 -0.3442  0.0604 -0.5284
11237TIP3    H155126   6.513   1.845  11.871 -0.5673  1.1936  1.8412
11237TIP3    H255127   6.410   1.765  11.793  2.2675 -0.0238 -0.9061
11238TIP3   OH255128   0.072   1.375  15.277  0.1914  0.4882  0.0898
11238TIP3    H155129   0.083   1.382  15.182  1.6645  1.8796  0.3237
11238TIP3    H255130  -0.004   1.431  15.297  0.7060  1.2795 -0.1322
11239TIP3   OH255131   6.482   0.016   1.600 -0.1516  0.3101  0.0581
11239TIP3    H155132   6.512  -0.075   1.588  0.4091  0.6582 -1.3427
11239TIP3    H255133   6.556   0.059   1.643  0.9417  0.8335 -2.1644
11240TIP3   OH255134   2.641   5.253  16.802 -0.3552  0.0021  0.6578
11240TIP3    H155135   2.602   5.216  16.881  1.7135 -0.1349  1.6933
11240TIP3    H255136   2.692   5.328  16.833  2.0120 -1.1421 -0.1901
11241TIP3   OH255137   2.399   1.767   2.621 -0.5656 -0.0547  1.1165
11241TIP3    H155138   2.428   1.718   2.543  1.2934  0.0510  1.6989
11241TIP3    H255139   2.314   1.729   2.642 -0.5999 -0.8526 -0.3210
11242TIP3   OH255140   5.597   0.508   0.896  0.1520 -0.0566 -0.2013
11242TIP3    H155141   5.627   0.475   0.981 -1.7419  1.7132  1.2347
11242TIP3    H255142   5.653   0.583   0.878 -0.2549  0.3363  0.1354
11243TIP3   OH255143   4.758   6.616  12.675  0.0047  0.0651 -0.4041
11243TIP3    H155144   4.730   6.660  12.756 -0.6619 -2.3672  0.7882
11243TIP3    H255145   4.681   6.617  12.619 -0.3334 -0.4901  0.0441
11244TIP3   OH255146   5.449   2.384   3.624  0.0189 -0.4118 -0.0790
11244TIP3    H155147   5.432   2.299   3.583  0.8998 -0.2807 -0.7484
11244TIP3    H255148   5.504   2.363   3.699 -0.6587 -0.5300  0.4014
11245TIP3   OH255149   2.098   5.650   0.899 -0.0433 -0.7944 -0.0053
11245TIP3    H155150   2.106   5.585   0.968  1.6564  0.5806  1.2030
11245TIP3    H255151   2.104   5.600   0.817  1.9903 -2.1145  0.8686
11246TIP3   OH255152   5.429   4.551   5.028 -0.3597  0.0321  0.1651
11246TIP3    H155153   5.510   4.526   5.071  0.2640  0.8470 -0.5049
11246TIP3    H255154   5.431   4.647   5.025 -0.9688  0.0343 -0.5517
11247TIP3   OH255155   4.645   4.486  12.834  0.0422  0.2930  0.0021
11247TIP3    H155156   4.652   4.580  12.823  2.5600  0.1029 -0.6605
11247TIP3    H255157   4.705   4.449  12.769 -1.1683 -1.8003 -0.0423
11248TIP3   OH255158   1.927   5.230  14.251 -0.2112 -0.4164  0.0625
11248TIP3    H155159   1.909   5.172  14.325  0.5981  2.4048  2.7117
11248TIP3    H255160   1.852   5.290  14.249  0.9117  1.0798  0.3151
11249TIP3   OH255161   3.543   3.378  16.413 -0.6170 -0.2135  0.4612
11249TIP3    H155162   3.633   3.408  16.414 -0.7197  0.1125 -0.0004
11249TIP3    H255163   3.541   3.307  16.478 -0.3568  0.6875  1.4937
11250TIP3   OH255164   5.505   3.902  12.876  0.3249 -0.2441  0.2189
11250TIP3    H155165   5.492   3.963  12.802  1.0735 -0.1500  0.1592
11250TIP3    H255166   5.549   3.955  12.943  0.1846 -0.4902  0.5077
11251TIP3   OH255167   4.640   1.561  16.372  0.0199 -0.0347  0.5788
11251TIP3    H155168   4.681   1.478  16.348 -2.1594 -1.0946  0.2840
11251TIP3    H255169   4.630   1.555  16.468 -0.0884 -0.1041  0.5632
11252TIP3   OH255170   2.200   3.836  15.648 -0.2629  0.5232  0.2310
11252TIP3    H155171   2.123   3.812  15.700  0.8945 -0.4757  1.5608
11252TIP3    H255172   2.207   3.766  15.583  0.3786 -0.2361  1.0928
11253TIP3   OH255173   3.123   4.008   0.436 -0.0166 -0.2445  0.3709
11253TIP3    H155174   3.204   3.976   0.398  0.8911  3.8772 -1.7732
11253TIP3    H255175   3.141   4.012   0.530  2.3868  0.6750 -0.0574
11254TIP3   OH255176   0.473   2.207  14.668  0.2892  0.7343  0.6583
11254TIP3    H155177   0.450   2.181  14.757  0.9041 -0.4392  0.5084
11254TIP3    H255178   0.412   2.277  14.645 -1.1704 -0.2942  1.2893
11255TIP3   OH255179   0.597   0.555  15.981 -0.3850 -0.3868  0.1341
11255TIP3    H155180   0.677   0.589  15.941  0.5148 -1.5933  0.8117
11255TIP3    H255181   0.618   0.550  16.075 -1.5200 -0.0566  0.4257
11256TIP3   OH255182   4.946   5.899  10.644  0.1435  0.2828  0.1037
11256TIP3    H155183   4.966   5.806  10.657 -0.6734 -0.0864 -1.1423
11256TIP3    H255184   5.006   5.944  10.703  0.6928 -1.0237  0.5927
11257TIP3   OH255185   2.650   6.116  15.269  0.0755 -0.2393 -0.3041
11257TIP3    H155186   2.720   6.177  15.292 -0.7140  1.4104 -2.0300
11257TIP3    H255187   2.696   6.038  15.238  1.1675  0.6409 -0.9702
11258TIP3   OH255188   4.058   4.734   0.895 -0.1645 -0.5051 -0.4976
11258TIP3    H155189   3.984   4.687   0.856 -3.5164  4.1367 -0.5551
11258TIP3    H255190   4.096   4.784   0.822  2.2171 -1.6693 -0.1540
11259TIP3   OH255191   5.234   1.467   3.126  0.0211 -0.0176 -0.2990
11259TIP3    H155192   5.236   1.562   3.135  1.6236 -0.1986  3.0917
11259TIP3    H255193   5.153   1.449   3.078 -0.5002  3.0239 -0.7723
11260TIP3   OH255194   6.328   1.080  16.399  0.3532 -0.4286 -0.3393
11260TIP3    H155195   6.319   1.094  16.493 -0.9716 -0.3666 -0.4572
11260TIP3    H255196   6.286   0.996  16.383 -3.0877  1.2885 -1.3670
11261TIP3   OH255197   4.036   4.835  13.242 -0.4291 -0.2804  0.3393
11261TIP3    H155198   4.082   4.888  13.177  0.4461 -1.7406 -0.2897
11261TIP3    H255199   3.949   4.823  13.205 -1.3827  2.3625  1.4580
11262TIP3   OH255200   0.452   0.208   1.048 -0.2351 -0.0115 -0.0794
11262TIP3    H155201   0.389   0.198   1.119 -0.2108  2.9196  0.4698
11262TIP3    H255202   0.402   0.189   0.968 -1.3774  0.7276  0.4474
11263TIP3   OH255203   4.691   2.092   2.222 -0.2635  0.1181 -0.0126
11263TIP3    H155204   4.756   2.041   2.269 -1.3581 -0.1174  1.2952
11263TIP3    H255205   4.714   2.183   2.242 -0.6838  0.0229  0.9522
11264TIP3   OH255206   3.341   6.700   1.936 -0.0312  0.3289 -0.1467
11264TIP3    H155207   3.388   6.676   2.016  0.7307 -0.0231 -0.6840
11264TIP3    H255208   3.372   6.637   1.871 -3.5823 -1.9942  0.1655
11265TIP3   OH255209   4.774   2.201  14.986  0.4029 -0.6189  0.4828
11265TIP3    H155210   4.695   2.187  15.038 -0.1735 -0.1822 -0.2521
11265TIP3    H255211   4.758   2.284  14.941 -0.1197 -2.0564 -2.1560
11266TIP3   OH255212   2.765   6.538  13.699 -0.4598 -0.4641  0.0818
11266TIP3    H155213   2.789   6.604  13.634  0.1230 -2.0181 -1.3424
11266TIP3    H255214   2.822   6.464  13.681 -1.4394 -1.5654  1.2998
11267TIP3   OH255215   1.911   2.174   6.674 -0.1094 -0.0952 -0.4488
11267TIP3    H155216   1.999   2.191   6.707  0.6132 -1.1512 -1.7204
11267TIP3    H255217   1.917   2.086   6.636 -1.7479 -0.2249 -0.4674
11268TIP3   OH255218   4.206   4.579   2.398 -0.4334 -0.1754  0.0176
11268TIP3    H155219   4.226   4.573   2.304 -0.4774 -2.6966  0.1006
11268TIP3    H255220   4.114   4.555   2.404 -0.4951  0.2036  0.7059
11269TIP3   OH255221   2.674   1.770  17.031 -0.5706  0.5885  0.1699
11269TIP3    H155222   2.579   1.762  17.036 -0.5609  0.5181  0.2546
11269TIP3    H255223   2.689   1.846  16.975 -0.6337 -2.2339 -4.1235
11270TIP3   OH255224   0.283   4.662   4.613 -0.3300 -0.2855 -0.1635
11270TIP3    H155225   0.306   4.699   4.698 -0.4832 -2.4674  0.8986
11270TIP3    H255226   0.363   4.670   4.561  0.0973  0.1082  0.5359
11271TIP3   OH255227   0.285   4.099   5.594 -0.0797 -0.2440  0.2358
11271TIP3    H155228   0.224   4.171   5.614  1.5114  1.3435 -0.3702
11271TIP3    H255229   0.252   4.061   5.513 -1.2739 -0.6285  0.8688
11272TIP3   OH255230   6.201   2.276  14.702  0.3381 -0.8085  0.3965
11272TIP3    H155231   6.193   2.223  14.781 -1.2816 -1.3117 -0.0687
11272TIP3    H255232   6.262   2.227  14.646 -1.4101 -2.4484 -0.1755
11273TIP3   OH255233   5.716   3.796  12.155 -0.4733 -0.3381 -0.1992
11273TIP3    H155234   5.740   3.829  12.068  0.7530  1.1114  0.6321
11273TIP3    H255235   5.774   3.721  12.169  0.4062  0.3548 -0.0470
11274TIP3   OH255236   0.344   1.247  15.344  0.0007  0.4022 -0.3466
11274TIP3    H155237   0.326   1.265  15.252  0.0714 -0.5123 -0.5456
11274TIP3    H255238   0.258   1.249  15.387 -0.4715 -2.4295 -1.0235
11275TIP3   OH255239   5.312   1.054  15.538 -0.4008  0.0643  0.1194
11275TIP3    H155240   5.330   1.004  15.458 -3.4351 -0.8934 -0.1098
11275TIP3    H255241   5.270   1.134  15.506 -2.6280 -0.8017  0.6924
11276TIP3   OH255242   1.307   1.518  16.558  0.4083  0.0557 -0.2203
11276TIP3    H155243   1.267   1.497  16.474  0.1034  1.8147 -0.5608
11276TIP3    H255244   1.401   1.517  16.541  0.6128 -3.5680  0.4552
11277TIP3   OH255245   4.831   6.469   5.917  0.0396 -0.3594  0.2055
11277TIP3    H155246   4.887   6.491   5.842 -1.8710 -0.5931 -1.3853
11277TIP3    H255247   4.836   6.546   5.974  0.6919  0.3015 -0.7062
11278TIP3   OH255248   0.165   1.206  13.193  0.3760  0.4279  0.4359
11278TIP3    H155249   0.137   1.278  13.249 -3.5978 -1.4769  1.2392
11278TIP3    H255250   0.204   1.142  13.253  1.1141  0.6195  0.1718
11279TIP3   OH255251   0.198   5.372  13.915 -0.3035 -0.4714  0.4536
11279TIP3    H155252   0.282   5.414  13.932  1.2485 -3.3799  0.4792
11279TIP3    H255253   0.200   5.350  13.822 -1.4442  0.1831  0.2516
11280TIP3   OH255254   6.027   0.836  11.962 -0.1745 -0.1117  0.6681
11280TIP3    H155255   6.118   0.824  11.986  0.7912 -0.7623 -2.7924
11280TIP3    H255256   5.983   0.758  11.994  0.7450 -0.4276  1.1943
11281TIP3   OH255257   4.023   1.022   5.445 -0.2815  0.0334  0.5800
11281TIP3    H155258   4.097   0.961   5.447 -0.5594 -0.3078  0.6437
11281TIP3    H255259   3.946   0.966   5.431 -0.4839  0.4225  0.0835
11282TIP3   OH255260   0.329   2.866  14.989 -0.1421 -0.2244  0.0948
11282TIP3    H155261   0.339   2.811  15.067  0.4568  0.5462  0.5823
11282TIP3    H255262   0.235   2.872  14.975 -0.4541  1.7735  2.3657
11283TIP3   OH255263   5.912   6.008   1.877 -0.3344 -0.3018 -0.2670
11283TIP3    H155264   5.911   6.103   1.866  1.3662 -0.0050  1.6055
11283TIP3    H255265   5.944   5.975   1.792  0.9554  0.9646 -0.3173
11284TIP3   OH255266   0.602   6.739  16.409 -0.0195  0.5442  0.2776
11284TIP3    H155267   0.684   6.774  16.374  0.4929  0.6883  1.5715
11284TIP3    H255268   0.587   6.659  16.358  1.4325  0.0160  0.6328
11285TIP3   OH255269   0.674   0.470  11.305 -1.2719  0.5081  0.0843
11285TIP3    H155270   0.630   0.418  11.373  0.2628 -0.1031  0.6469
11285TIP3    H255271   0.645   0.431  11.223  1.0450 -2.3891  0.4904
11286TIP3   OH255272   3.226   4.333  16.593  0.2559 -0.6252  0.1600
11286TIP3    H155273   3.146   4.280  16.588 -0.0287 -0.1139 -2.2204
11286TIP3    H255274   3.283   4.295  16.526  0.6337  1.1185 -0.5499
11287TIP3   OH255275   4.932   2.458  16.751 -0.4619 -0.0152  0.0265
11287TIP3    H155276   4.905   2.508  16.827  0.0274 -0.1409  0.2886
11287TIP3    H255277   4.853   2.450  16.698 -0.2639  2.1705 -0.6851
11288TIP3   OH255278   5.083   0.891   3.345  0.4646 -0.0317 -0.0513
11288TIP3    H155279   5.137   0.964   3.376  2.4040 -0.0282 -2.9737
11288TIP3    H255280   5.146   0.820   3.329 -1.0275 -1.5092  0.3435
11289TIP3   OH255281   3.059   3.827   5.770 -0.2313 -0.0166  0.0771
11289TIP3    H155282   3.043   3.918   5.793 -2.6746 -0.4698  0.4639
11289TIP3    H255283   3.051   3.825   5.674  0.6143  0.2744 -0.0120
11290TIP3   OH255284   0.526   6.160  13.883  0.2117 -0.4686 -0.1753
11290TIP3    H155285   0.473   6.234  13.911  2.7761  1.3866  0.1228
11290TIP3    H255286   0.529   6.167  13.787 -0.2281 -0.7118 -0.2097
11291TIP3   OH255287   2.785   2.123   3.245  0.0717  0.5200  0.1512
11291TIP3    H155288   2.727   2.186   3.203 -0.4706  2.2146  3.1898
11291TIP3    H255289   2.725   2.058   3.283  0.1565  1.5177  2.1047
11292TIP3   OH255290   4.684   2.303  10.956  0.4889 -0.0066  0.0847
11292TIP3    H155291   4.687   2.260  10.871 -1.1364  1.7158 -0.9103
11292TIP3    H255292   4.646   2.238  11.015 -0.9929 -0.3159 -1.1533
11293TIP3   OH255293   0.203   5.309  12.067 -0.8003  0.5595  0.3889
11293TIP3    H155294   0.194   5.398  12.100 -0.7371 -0.0522  2.1850
11293TIP3    H255295   0.113   5.276  12.062 -0.7415  0.2241  1.2852
11294TIP3   OH255296   3.604   6.290   1.119 -0.0369 -0.3573 -0.2072
11294TIP3    H155297   3.552   6.213   1.094 -0.8681 -0.9953  3.0082
11294TIP3    H255298   3.543   6.364   1.112 -1.3178 -0.9875  2.7292
11295TIP3   OH255299   2.926   1.869   2.610 -0.0956 -0.6078  0.0756
11295TIP3    H155300   2.849   1.875   2.554 -0.1713 -0.2743  0.2150
11295TIP3    H255301   2.978   1.946   2.588 -0.6452  0.1269  1.2335
11296TIP3   OH255302   5.140   2.930  15.577 -0.6330  0.3138 -0.1792
11296TIP3    H155303   5.182   2.887  15.502  0.2729  0.7370  0.0762
11296TIP3    H255304   5.212   2.970  15.625 -1.3861  1.5682 -0.0490
11297TIP3   OH255305   3.461   1.293   5.415  0.0858 -0.3209  0.2688
11297TIP3    H155306   3.525   1.239   5.461  0.4434 -0.7731 -0.7487
11297TIP3    H255307   3.395   1.232   5.383 -0.1953 -0.0032  0.2271
11298TIP3   OH255308   2.068   6.725   2.184  0.3010 -0.0950  0.3930
11298TIP3    H155309   2.001   6.778   2.227 -0.5441 -1.5330  0.8949
11298TIP3    H255310   2.125   6.695   2.255  1.7988  1.4415 -0.0621
11299TIP3   OH255311   6.380   3.459  15.594 -0.2434 -0.0599 -0.5562
11299TIP3    H155312   6.463   3.507  15.596  0.1090 -0.5196 -2.0929
11299TIP3    H255313   6.324   3.503  15.657 -0.2840  3.0254 -2.5685
11300TIP3   OH255314   0.208   5.004  14.112 -0.3098 -0.2079  0.0358
11300TIP3    H155315   0.234   5.009  14.204 -1.1382 -1.5314  0.3677
11300TIP3    H255316   0.218   4.911  14.089 -1.7137 -0.1979 -0.7162
11301TIP3   OH255317   0.315   2.572   5.823  0.4676  0.8330 -0.1211
11301TIP3    H155318   0.249   2.509   5.794  0.5301 -0.0314  1.5208
11301TIP3    H255319   0.363   2.594   5.743 -1.1129  0.6821 -1.1639
11302TIP3   OH255320   2.845   4.393   2.850 -0.4090  0.1440  0.4035
11302TIP3    H155321   2.907   4.464   2.869 -0.4373  0.5461 -0.9058
11302TIP3    H255322   2.771   4.411   2.907  0.3490  0.0930  1.4403
11303TIP3   OH255323   6.391   0.013  15.508 -0.0588  0.1130  0.4241
11303TIP3    H155324   6.404   0.106  15.489  0.7648 -0.0577  0.1296
11303TIP3    H255325   6.379  -0.028  15.422 -1.3245  0.0615  0.5992
11304TIP3   OH255326   0.587   4.759  15.574 -0.4192 -0.2346  0.1362
11304TIP3    H155327   0.577   4.848  15.607 -0.9195 -0.3027  0.1676
11304TIP3    H255328   0.512   4.711  15.609 -1.1362 -0.2401 -1.3426
11305TIP3   OH255329   1.467   5.409  14.936 -0.2593 -0.2244 -0.5761
11305TIP3    H155330   1.489   5.322  14.905  1.3859 -0.5878  1.3783
11305TIP3    H255331   1.515   5.469  14.879 -0.4415 -0.6516 -1.1796
11306TIP3   OH255332   1.413   5.533  14.530  0.0391  0.1667  0.5120
11306TIP3    H155333   1.428   5.583  14.450 -1.0207 -0.6627 -0.2431
11306TIP3    H255334   1.403   5.442  14.500 -2.2093  0.0899  1.3327
11307TIP3   OH255335   3.353   5.979  16.016 -0.3608 -0.3076 -0.0753
11307TIP3    H155336   3.418   6.048  16.012 -2.4745  1.7499 -2.0443
11307TIP3    H255337   3.378   5.927  16.093  1.9164  2.0086  0.9029
11308TIP3   OH255338   1.619   6.532   3.979 -0.1116 -0.0291  0.0903
11308TIP3    H155339   1.635   6.561   3.890  1.1496  0.5946  0.4951
11308TIP3    H255340   1.676   6.587   4.033 -1.7895  0.5069  1.4149
11309TIP3   OH255341   3.514   4.695   4.942 -0.5325 -0.3963  0.0176
11309TIP3    H155342   3.570   4.651   4.878  2.8157 -0.4518  2.7280
11309TIP3    H255343   3.541   4.659   5.027 -1.2825  3.1249  1.9484
11310TIP3   OH255344   4.817   6.022   3.189 -0.1173 -0.1025  0.7155
11310TIP3    H155345   4.786   6.076   3.261  0.1696  1.3701 -0.2213
11310TIP3    H255346   4.781   6.063   3.110  0.4132 -1.0588 -0.0505
11311TIP3   OH255347   3.373   2.253   3.512 -0.3344 -0.5164  0.7003
11311TIP3    H155348   3.384   2.340   3.476 -0.6264 -1.0673 -0.7647
11311TIP3    H255349   3.361   2.267   3.606 -0.4688  1.0159  0.4694
11312TIP3   OH255350   1.639   4.298  13.462  0.6471 -0.1399  0.2550
11312TIP3    H155351   1.668   4.300  13.554  1.1990 -0.7273  0.1043
11312TIP3    H255352   1.544   4.310  13.467  0.6752 -0.1169  0.9031
11313TIP3   OH255353   5.262   4.647  11.848  0.1494  0.3117 -0.4195
11313TIP3    H155354   5.171   4.638  11.819  0.4865 -1.1784 -1.1524
11313TIP3    H255355   5.314   4.615  11.774  1.1693 -0.7762  0.7023
11314TIP3   OH255356   6.617   0.856  15.882 -0.0603 -0.1632  0.0463
11314TIP3    H155357   6.668   0.789  15.928 -0.2117 -0.4287 -0.1745
11314TIP3    H255358   6.542   0.810  15.847  0.4874 -0.1410 -1.2102
11315TIP3   OH255359   3.377   0.737  12.139 -0.4447 -0.1434 -0.6059
11315TIP3    H155360   3.429   0.778  12.070  2.2325 -0.0909  1.2947
11315TIP3    H255361   3.379   0.800  12.211  0.2375 -1.8429  0.9198
11316TIP3   OH255362   1.589   5.882  16.620  0.3686  0.8368  0.6131
11316TIP3    H155363   1.514   5.896  16.562 -0.2920 -0.2724  1.1459
11316TIP3    H255364   1.554   5.827  16.690  1.4955  0.9804  1.3105
11317TIP3   OH255365   5.546   5.370   6.218  0.4120  0.0447 -0.6459
11317TIP3    H155366   5.566   5.411   6.302 -0.0521 -0.0179 -0.5010
11317TIP3    H255367   5.477   5.306   6.238 -0.9979  1.2807 -1.3586
11318TIP3   OH255368   0.774   2.764  12.374 -0.2902  0.2795 -0.1720
11318TIP3    H155369   0.773   2.675  12.338 -0.1084 -0.3941  1.4196
11318TIP3    H255370   0.685   2.776  12.409 -0.5988  1.0912 -1.1732
11319TIP3   OH255371   2.491   2.691  15.586  0.3228 -0.7072 -0.3842
11319TIP3    H155372   2.396   2.684  15.573  0.5246 -1.5987 -1.5667
11319TIP3    H255373   2.500   2.728  15.674 -1.1278  1.1914 -0.9534
11320TIP3   OH255374   2.956   6.414   1.707 -0.1857  0.5841  0.2068
11320TIP3    H155375   2.913   6.352   1.766  0.1157 -0.7473 -0.9196
11320TIP3    H255376   3.048   6.412   1.733 -0.3428  1.3541  0.8388
11321TIP3   OH255377   2.436   5.385   2.571 -0.4873  0.4992  0.4110
11321TIP3    H155378   2.528   5.377   2.547 -1.1648  0.5153 -2.6487
11321TIP3    H255379   2.417   5.478   2.564 -1.3690  0.2135 -2.1561
11322TIP3   OH255380   2.686   5.423   6.143  0.3212 -0.6908  0.2981
11322TIP3    H155381   2.719   5.512   6.137  0.0828 -0.2460  3.6233
11322TIP3    H255382   2.761   5.371   6.172 -0.0264 -1.1732  0.3471
11323TIP3   OH255383   3.568   5.839  14.672  0.1817  0.2711  0.2387
11323TIP3    H155384   3.489   5.796  14.705  0.4334 -0.6691 -0.3529
11323TIP3    H255385   3.610   5.875  14.750 -1.1458  1.3548  0.5054
11324TIP3   OH255386   4.890   5.433   4.441 -0.2443  0.1752 -0.4550
11324TIP3    H155387   4.920   5.399   4.356 -1.1826 -0.3819 -0.5708
11324TIP3    H255388   4.892   5.528   4.431 -0.7798  0.1070 -1.2626
11325TIP3   OH255389   0.093   5.500   0.315  0.1703  0.0704 -0.0733
11325TIP3    H155390   0.039   5.455   0.250 -0.3860  0.2384  0.2654
11325TIP3    H255391   0.144   5.430   0.356 -0.0404 -0.1371 -0.1616
11326TIP3   OH255392   5.362   3.734   5.506  0.1607 -0.5963 -0.1914
11326TIP3    H155393   5.278   3.716   5.548 -3.1769  2.9440 -4.4263
11326TIP3    H255394   5.384   3.823   5.533  0.8302 -0.3270 -1.5498
11327TIP3   OH255395   1.063   5.682   1.248 -0.4596 -0.1935 -0.2488
11327TIP3    H155396   0.991   5.712   1.304 -1.2664 -2.3055 -0.0636
11327TIP3    H255397   1.034   5.704   1.159 -0.0074  1.5021 -0.0121
11328TIP3   OH255398   3.888   2.175   4.297 -0.1563 -0.2933  0.2585
11328TIP3    H155399   3.851   2.129   4.222  0.5624 -1.4001  0.5540
11328TIP3    H255400   3.812   2.206   4.347 -0.6387  0.4093 -0.8690
11329TIP3   OH255401   0.840   2.448   4.898 -0.0071 -0.2695  0.5779
11329TIP3    H155402   0.762   2.406   4.933  0.4905 -2.3332 -0.6253
11329TIP3    H255403   0.903   2.445   4.969  0.0074 -1.5904  0.5294
11330TIP3   OH255404   2.863   0.892   0.485  0.4214 -0.2479  0.1353
11330TIP3    H155405   2.889   0.807   0.449  0.2869  0.4709 -1.7991
11330TIP3    H255406   2.775   0.907   0.451  0.1423  0.3302  1.0857
11331TIP3   OH255407   0.476   3.848  15.879 -0.2509  0.3353  0.3645
11331TIP3    H155408   0.461   3.942  15.866  1.5542  0.5210 -0.7544
11331TIP3    H255409   0.438   3.830  15.965 -2.1909  1.6911 -0.1297
11332TIP3   OH255410   4.153   2.494   1.225  0.0763 -0.0812 -0.5359
11332TIP3    H155411   4.144   2.436   1.151  0.5876 -0.1074 -0.5850
11332TIP3    H255412   4.096   2.457   1.293 -0.4805  0.0101 -0.9496
11333TIP3   OH255413   0.028   0.805  14.235 -0.3697  0.6186 -0.0905
11333TIP3    H155414   0.001   0.725  14.280  3.1174 -1.0608 -0.6595
11333TIP3    H255415   0.082   0.852  14.298  0.1803  0.9348 -0.7862
11334TIP3   OH255416   0.321   3.527   4.628  0.5450 -0.2978 -0.0602
11334TIP3    H155417   0.299   3.479   4.548  0.0939  1.0376 -0.7565
11334TIP3    H255418   0.415   3.541   4.623  0.3044  1.1154 -1.1410
11335TIP3   OH255419   2.057   6.100   3.496 -0.0955  0.1665 -0.0817
11335TIP3    H155420   2.144   6.101   3.536  0.3540  0.6966 -1.0449
11335TIP3    H255421   2.073   6.085   3.403 -0.9805  1.0909 -0.4059
11336TIP3   OH255422   6.181   3.347   4.197 -0.6264 -0.0541  0.0804
11336TIP3    H155423   6.273   3.337   4.221 -1.0074 -1.7099  0.9492
11336TIP3    H255424   6.156   3.264   4.157 -1.5094  0.7166 -1.0710
11337TIP3   OH255425   5.264   2.544   5.189 -0.4480 -0.1851  0.1332
11337TIP3    H155426   5.230   2.569   5.275  1.3094 -2.6475  1.6809
11337TIP3    H255427   5.220   2.462   5.169  1.3430 -1.1971  0.1776
11338TIP3   OH255428   0.923   0.211   3.888  0.2012  0.4676  0.3682
11338TIP3    H155429   0.954   0.125   3.916 -2.1082 -1.4082 -2.2123
11338TIP3    H255430   0.859   0.237   3.954  2.6855  1.5131  2.4990
11339TIP3   OH255431   4.730   5.167   4.507 -0.4184  0.2930 -0.3260
11339TIP3    H155432   4.772   5.245   4.469 -2.0189  1.5459  0.3373
11339TIP3    H255433   4.653   5.202   4.551  0.5337 -1.2721  2.8231
11340TIP3   OH255434   0.874   4.611  17.174  0.4363  0.1684 -0.0271
11340TIP3    H155435   0.799   4.552  17.172  0.6721 -0.1141 -1.0734
11340TIP3    H255436   0.880   4.639  17.265 -0.8261  0.0549  0.1061
11341TIP3   OH255437   5.117   4.191  12.163  0.0355 -0.4587  0.0204
11341TIP3    H155438   5.070   4.199  12.080  1.2261  1.7810 -0.5043
11341TIP3    H255439   5.176   4.117  12.150 -0.1356 -0.4398 -0.9397
11342TIP3   OH255440   2.320   3.864   0.373 -0.4065 -0.2870 -0.4313
11342TIP3    H155441   2.409   3.879   0.343 -0.3986  1.6069  0.3862
11342TIP3    H255442   2.296   3.944   0.419 -3.6190  0.5627 -3.1547
11343TIP3   OH255443   0.044   5.099   3.700 -0.1115 -0.2052 -0.1990
11343TIP3    H155444   0.132   5.089   3.738 -0.5559  1.2631  1.3406
11343TIP3    H255445   0.049   5.179   3.649 -0.2652 -0.7536 -1.1054
11344TIP3   OH255446   6.544   6.687  10.679  0.1139 -0.6476 -0.0198
11344TIP3    H155447   6.460   6.663  10.639 -0.1099 -0.3591  0.2731
11344TIP3    H255448   6.577   6.759  10.625 -1.5770  1.7554  1.9652
11345TIP3   OH255449   0.459   3.155  12.896 -0.1560 -0.0844  0.0859
11345TIP3    H155450   0.504   3.136  12.814  1.2712  0.5259  0.7013
11345TIP3    H255451   0.528   3.175  12.958 -1.2806  3.5907  0.3915
11346TIP3   OH255452   4.605   6.427  15.394 -0.3666 -0.3095  0.7329
11346TIP3    H155453   4.530   6.483  15.415  1.3578  1.5220  2.4605
11346TIP3    H255454   4.581   6.341  15.430 -2.2721 -0.2398 -0.2422
11347TIP3   OH255455   0.002   2.143   3.609  0.5109 -0.1307  0.2948
11347TIP3    H155456  -0.043   2.062   3.585 -3.0096  1.9888 -0.8812
11347TIP3    H255457  -0.000   2.145   3.704 -0.2538 -0.9484  0.3019
11348TIP3   OH255458   3.825   0.551   1.019 -0.1196  0.4273  0.2337
11348TIP3    H155459   3.764   0.620   0.992 -0.4619  0.3036  0.6811
11348TIP3    H255460   3.785   0.512   1.097  2.5498  3.2013  3.2992
11349TIP3   OH255461   0.016   3.202   3.695  0.5676  0.2271 -0.3223
11349TIP3    H155462  -0.037   3.145   3.638  1.7193  0.2540 -1.4722
11349TIP3    H255463   0.078   3.142   3.736  1.0049  0.4835 -0.6070
11350TIP3   OH255464   4.558   3.281   6.130 -0.3492  0.1286  0.1859
11350TIP3    H155465   4.463   3.294   6.135 -0.4094  0.7262 -1.6294
11350TIP3    H255466   4.568   3.191   6.098 -0.3788  0.4703 -0.8427
11351TIP3   OH255467   1.081   0.773   0.354  0.0050 -0.6911 -0.0951
11351TIP3    H155468   1.052   0.735   0.270 -0.9347 -0.8576  0.2922
11351TIP3    H255469   1.000   0.790   0.402  0.5293 -0.4580  0.7304
11352TIP3   OH255470   1.579   6.722   0.722  0.0685  0.2679  0.7521
11352TIP3    H155471   1.526   6.798   0.746  1.1766  1.7469 -1.1934
11352TIP3    H255472   1.670   6.750   0.737  0.4784 -0.8573  0.4828
11353TIP3   OH255473   6.786   4.465   0.158 -0.2570 -0.2986 -1.1366
11353TIP3    H155474   6.834   4.382   0.164  0.1293  0.0348  1.6218
11353TIP3    H255475   6.851   4.528   0.127 -0.6510 -1.0257 -3.6285
11354TIP3   OH255476   3.235   2.462   5.872 -0.3117 -0.8017  0.0866
11354TIP3    H155477   3.158   2.409   5.891  0.1970 -1.1162  1.3907
11354TIP3    H255478   3.201   2.552   5.867 -0.7184 -0.8903  1.0436
11355TIP3   OH255479   3.683   2.835   4.322 -0.1284  0.2733 -0.8706
11355TIP3    H155480   3.695   2.885   4.403 -0.9302 -0.2754 -0.3979
11355TIP3    H255481   3.591   2.809   4.323  0.2864 -1.2735 -1.0625
11356TIP3   OH255482   1.879   5.991   0.523 -0.0073  0.0604  0.1453
11356TIP3    H155483   1.928   5.986   0.441 -2.8377 -0.7552 -1.6658
11356TIP3    H255484   1.896   5.908   0.567 -0.4936 -0.6375 -0.9448
11357TIP3   OH255485   3.152   4.290   2.904  0.2658 -0.7401 -0.0362
11357TIP3    H155486   3.194   4.375   2.918  0.3042 -0.5876 -1.0026
11357TIP3    H255487   3.223   4.227   2.916  0.2392 -0.6365  0.6761
11358TIP3   OH255488   2.176   6.347  11.784 -0.0739 -0.3681  0.2564
11358TIP3    H155489   2.155   6.305  11.868 -0.0259 -1.6466 -0.3517
11358TIP3    H255490   2.123   6.426  11.783 -1.6806 -1.4008  0.5961
11359TIP3   OH255491   2.245   5.855  12.803 -0.2695 -0.2426  0.1524
11359TIP3    H155492   2.322   5.890  12.758 -1.8104 -0.2308 -2.6542
11359TIP3    H255493   2.231   5.915  12.877  1.4202  0.7204 -0.2595
11360TIP3   OH255494   2.835   3.949  16.138 -0.2060 -0.3815 -0.4400
11360TIP3    H155495   2.847   4.043  16.154 -0.4569  0.3089 -3.5364
11360TIP3    H255496   2.916   3.922  16.094  0.1894 -1.8472  1.1150
11361TIP3   OH255497   5.530   0.458  12.408 -0.0826  0.0934  0.3722
11361TIP3    H155498   5.489   0.416  12.484  1.8848 -1.8218  0.4606
11361TIP3    H255499   5.624   0.453  12.425  0.4376 -0.5503 -2.2563
11362TIP3   OH255500   0.183   4.479   0.782  0.0631 -0.1477  0.9650
11362TIP3    H155501   0.252   4.532   0.823 -1.3987  2.6694  0.0431
11362TIP3    H255502   0.167   4.521   0.698 -1.5554 -1.8222  0.3649
11363TIP3   OH255503   5.168   0.693   1.590  0.8355  0.2834 -0.1062
11363TIP3    H155504   5.193   0.747   1.665  1.5936 -1.3448  0.8708
11363TIP3    H255505   5.246   0.692   1.535  0.8557  0.1191 -0.0751
11364TIP3   OH255506   6.093   2.116   6.371  0.2623  0.1393 -0.2317
11364TIP3    H155507   6.002   2.086   6.371  0.9895 -2.3582 -1.2326
11364TIP3    H255508   6.139   2.054   6.427  1.6893  0.0201 -1.4656
11365TIP3   OH255509   3.206   0.326  15.732 -0.4462 -0.5179  0.7380
11365TIP3    H155510   3.237   0.402  15.781  1.6813 -1.7002  1.3778
11365TIP3    H255511   3.159   0.362  15.658  1.2593  1.4733  0.5466
11366TIP3   OH255512   1.117   0.104  12.571  0.3060  0.3288 -0.3963
11366TIP3    H155513   1.174   0.058  12.509  1.5867 -0.7748  1.4977
11366TIP3    H255514   1.170   0.177  12.603  0.8313 -0.8101  1.5131
11367TIP3   OH255515   1.121   6.087   3.907 -0.4777  0.3432 -0.1221
11367TIP3    H155516   1.061   6.060   3.977 -0.3473 -0.1725 -0.2006
11367TIP3    H255517   1.198   6.120   3.954  0.4775 -1.9047  0.0427
11368TIP3   OH255518   4.388   2.451  14.080 -0.3705  0.2295  0.6073
11368TIP3    H155519   4.363   2.381  14.020 -0.9293  0.4008  0.6329
11368TIP3    H255520   4.386   2.410  14.167  0.7719 -0.1085  0.4927
11369TIP3   OH255521   5.049   6.086   5.788  0.3758  0.6184  0.3654
11369TIP3    H155522   5.035   6.058   5.878  0.3634 -0.4280  0.0552
11369TIP3    H255523   5.082   6.007   5.743 -0.2113  0.9496 -0.6824
11370TIP3   OH255524   4.017   3.876  10.765  0.6147  0.1427 -0.4725
11370TIP3    H155525   3.962   3.805  10.799 -0.0737  1.1449  0.6105
11370TIP3    H255526   4.077   3.897  10.837  0.2219  1.2159 -0.4268
11371TIP3   OH255527   0.934   4.352   4.142  0.0748 -0.3710 -0.3549
11371TIP3    H155528   0.984   4.272   4.160 -0.2591 -0.4505  0.2478
11371TIP3    H255529   0.843   4.324   4.140 -0.2838  0.3405  2.2980
11372TIP3   OH255530   2.055   4.462  11.781 -0.0950 -0.6762  0.4390
11372TIP3    H155531   2.098   4.547  11.773 -1.1345 -0.1660  0.0685
11372TIP3    H255532   1.982   4.478  11.840 -2.2616 -0.4601 -2.0945
11373TIP3   OH255533   6.124   1.626   0.496 -0.4431  0.0670  0.0320
11373TIP3    H155534   6.044   1.671   0.524  0.0918  0.4179  1.0772
11373TIP3    H255535   6.133   1.647   0.403 -1.9085 -0.5167 -0.2568
11374TIP3   OH255536   1.219   5.112   2.165  0.1651  0.4711  0.1900
11374TIP3    H155537   1.248   5.111   2.257  0.4789 -0.3659  0.0903
11374TIP3    H255538   1.124   5.097   2.171 -0.2113  2.6948  0.4863
11375TIP3   OH255539   4.435   1.342   1.006 -0.0141  0.0172 -0.1768
11375TIP3    H155540   4.528   1.328   1.027 -0.0340 -0.6572 -0.5133
11375TIP3    H255541   4.399   1.381   1.086  0.5904  0.4315 -0.0956
11376TIP3   OH255542   4.474   2.014   5.784  0.0998  0.0838  0.0381
11376TIP3    H155543   4.463   2.075   5.857 -1.6754  0.6182 -0.6090
11376TIP3    H255544   4.488   2.070   5.708 -0.7315 -0.3388 -0.4380
11377TIP3   OH255545   5.438   4.492   1.693 -0.3570 -0.4640  0.5541
11377TIP3    H155546   5.509   4.449   1.645 -0.7022  0.1777 -0.5390
11377TIP3    H255547   5.448   4.459   1.783  0.9019 -0.9128  0.2789
11378TIP3   OH255548   6.538   6.036   5.244 -0.2609 -0.0752  0.1499
11378TIP3    H155549   6.625   6.026   5.204  0.1187 -1.3026  1.1938
11378TIP3    H255550   6.479   5.990   5.185 -0.4190  1.7093 -1.1483
11379TIP3   OH255551   0.804   5.395   3.519  0.6699 -0.2212 -0.3103
11379TIP3    H155552   0.774   5.412   3.609 -1.6005 -0.3240 -0.9981
11379TIP3    H255553   0.794   5.478   3.474  1.2488 -0.3261 -0.6441
11380TIP3   OH255554   6.669   4.079   3.554  0.0853 -0.0194  0.3439
11380TIP3    H155555   6.743   4.026   3.584 -0.6518 -2.4587 -1.8011
11380TIP3    H255556   6.612   4.085   3.631  0.5847 -1.7343  0.9000
11381TIP3   OH255557   4.822   1.071  17.112  0.3556  0.3261 -0.1354
11381TIP3    H155558   4.792   1.048  17.200  0.9248  0.6838  0.1588
11381TIP3    H255559   4.917   1.066  17.117  0.3704 -0.3288 -0.9252
11382TIP3   OH255560   1.191   3.651   0.759 -0.3674 -0.2322 -0.2603
11382TIP3    H155561   1.222   3.710   0.691  0.2585 -0.7272 -0.4157
11382TIP3    H255562   1.098   3.638   0.740 -0.3002 -0.0054 -0.7434
11383TIP3   OH255563   0.583   5.178  12.490  0.3787 -0.1484 -0.3656
11383TIP3    H155564   0.643   5.114  12.528  0.5905  0.0866 -0.3070
11383TIP3    H255565   0.633   5.259  12.485 -0.4437  0.5370  1.3338
11384TIP3   OH255566   1.720   1.990   5.347  0.3795 -0.1501  0.2943
11384TIP3    H155567   1.679   2.010   5.263  0.1563 -0.9686  0.2032
11384TIP3    H255568   1.717   1.895   5.354  4.7955 -0.5854 -0.9828
11385TIP3   OH255569   3.835   6.449  14.799  0.0526 -0.0980 -0.3356
11385TIP3    H155570   3.924   6.461  14.766  0.3928  0.2249  0.6563
11385TIP3    H255571   3.838   6.485  14.888 -0.4791 -2.1073  0.5408
11386TIP3   OH255572   6.618   1.032  15.024 -0.7790 -0.1896  0.2941
11386TIP3    H155573   6.593   1.082  15.102  2.5810  3.1587 -0.4944
11386TIP3    H255574   6.587   1.085  14.951  0.0062 -0.9911 -0.6457
11387TIP3   OH255575   6.771   1.555   0.660  0.1600 -0.0160 -0.2454
11387TIP3    H155576   6.680   1.579   0.679 -0.0181  0.8187 -1.9653
11387TIP3    H255577   6.823   1.611   0.717 -0.3196  3.2311 -2.6642
11388TIP3   OH255578   4.757   4.802   1.818  0.2768  0.0881 -0.0135
11388TIP3    H155579   4.668   4.801   1.854  0.9496 -1.8400  1.7875
11388TIP3    H255580   4.759   4.728   1.757  0.4308  0.6358 -0.6839
11389TIP3   OH255581   1.317   1.499  13.304 -0.6955  0.1726 -0.7969
11389TIP3    H155582   1.343   1.441  13.376  0.1033 -0.7569 -1.8008
11389TIP3    H255583   1.252   1.558  13.343 -0.5127 -0.5095  0.5989
11390TIP3   OH255584   3.053   3.482  17.234  0.0690 -0.2460  0.0880
11390TIP3    H155585   3.102   3.402  17.253  0.3863  0.2123  1.3037
11390TIP3    H255586   3.064   3.536  17.312 -1.3201  0.4070 -0.1288
11391TIP3   OH255587   4.025   3.181   1.613 -0.2009  0.3675 -0.3670
11391TIP3    H155588   3.965   3.213   1.546  2.0879  1.5931 -1.9915
11391TIP3    H255589   4.003   3.232   1.691 -0.6679  1.4730 -1.1852
11392TIP3   OH255590   3.459   6.021   3.637 -0.1658 -0.1242 -0.1732
11392TIP3    H155591   3.447   5.932   3.670 -0.3571  0.5682  1.7313
11392TIP3    H255592   3.402   6.075   3.692 -0.3543  1.1339 -1.5577
11393TIP3   OH255593   5.853   4.933   0.520 -0.1346  0.1210 -0.3279
11393TIP3    H155594   5.843   5.025   0.496 -1.7834  0.3420  0.9731
11393TIP3    H255595   5.808   4.885   0.451  1.3331  0.2104 -1.3801
11394TIP3   OH255596   6.304   1.539  16.454  0.4150 -0.3705  0.1670
11394TIP3    H155597   6.266   1.466  16.502 -0.2474 -1.8317 -2.3507
11394TIP3    H255598   6.376   1.570  16.509 -1.0054 -1.0895  2.5704
11395TIP3   OH255599   2.841   3.752  15.536  0.1607 -0.0191  0.5891
11395TIP3    H155600   2.759   3.800  15.552  0.2330  0.0647  0.7114
11395TIP3    H255601   2.845   3.743  15.441 -1.0436 -1.8592  0.6495
11396TIP3   OH255602   1.061   5.594  16.560 -0.2658  0.0496 -0.6811
11396TIP3    H155603   1.107   5.534  16.502  0.1047  0.6674 -1.0369
11396TIP3    H255604   1.128   5.657  16.587 -0.4553 -0.1571  0.3284
11397TIP3   OH255605   1.272   5.421   4.446  0.3049  0.3669 -0.1238
11397TIP3    H155606   1.316   5.336   4.451 -0.4944 -0.0844 -0.5901
11397TIP3    H255607   1.181   5.402   4.469 -0.3225  0.7314 -2.1584
11398TIP3   OH255608   0.462   3.701  11.421 -0.4276 -0.3974 -0.0009
11398TIP3    H155609   0.389   3.733  11.472 -0.2842 -0.2989  0.1436
11398TIP3    H255610   0.476   3.611  11.453 -0.1131 -0.2156  0.3853
11399TIP3   OH255611   0.092   0.016  14.145  0.8967 -0.1917  0.3544
11399TIP3    H155612   0.065  -0.048  14.080  0.3981  0.5425 -0.1733
11399TIP3    H255613   0.126  -0.037  14.217 -0.3347 -1.0932  0.3155
11400TIP3   OH255614   3.489   5.404   5.386 -0.4548  0.1247  0.7472
11400TIP3    H155615   3.399   5.391   5.358 -0.6611 -0.9000  1.8123
11400TIP3    H255616   3.481   5.447   5.472  0.0519 -0.5340  1.1299
11401TIP3   OH255617   6.106   2.935  16.624  0.1114 -0.2305 -0.1057
11401TIP3    H155618   6.154   2.971  16.698  2.3492 -1.9620 -0.6003
11401TIP3    H255619   6.104   2.840  16.641  0.3721 -0.6260 -2.0554
11402TIP3   OH255620   0.643   3.833  10.197  0.2035 -0.3529  0.9845
11402TIP3    H155621   0.629   3.890  10.272 -0.0797  0.9339 -0.0177
11402TIP3    H255622   0.739   3.824  10.190  0.2455 -0.0220  1.1556
11403TIP3   OH255623   5.479   1.883   0.680  0.1550  0.1596  0.0007
11403TIP3    H155624   5.400   1.894   0.627 -0.9422  0.4727  1.6384
11403TIP3    H255625   5.459   1.928   0.762  1.1664 -1.7170  1.3315
11404TIP3   OH255626   5.085   0.647  13.883  1.0053 -0.1368  0.2529
11404TIP3    H155627   5.064   0.628  13.792  1.6863 -0.2219  0.1124
11404TIP3    H255628   5.180   0.655  13.886  0.9598  0.3076  0.8760
11405TIP3   OH255629   0.208   1.939  13.024  0.2443  0.1992 -0.4719
11405TIP3    H155630   0.241   1.913  12.938  0.0439 -0.8451 -0.2444
11405TIP3    H255631   0.279   1.920  13.085  0.5916  1.4420 -0.4506
11406TIP3   OH255632   2.637   2.228   0.316 -0.3792  0.5796  0.1045
11406TIP3    H155633   2.701   2.295   0.295 -0.0882  0.8009  1.6126
11406TIP3    H255634   2.581   2.268   0.383 -3.0523  0.9457 -2.1388
11407TIP3   OH255635   2.282   2.792   2.871 -0.4576  0.5414  0.6963
11407TIP3    H155636   2.264   2.794   2.777 -0.3090 -1.5732  0.5777
11407TIP3    H255637   2.378   2.794   2.877 -0.4024 -0.8798  0.6863
11408TIP3   OH255638   4.456   3.411  15.625  0.4033 -0.2204 -0.7875
11408TIP3    H155639   4.409   3.353  15.685  1.1897 -1.5182 -1.3758
11408TIP3    H255640   4.427   3.499  15.649 -2.2360 -0.9293 -1.0505
11409TIP3   OH255641   6.644   1.367   2.398 -0.3303  0.1225 -0.0201
11409TIP3    H155642   6.686   1.400   2.478 -1.0251  2.3566 -0.4946
11409TIP3    H255643   6.550   1.378   2.414 -0.4523  1.6370 -1.5017
11410TIP3   OH255644   1.948   3.610  16.560  0.0678  0.2274 -0.2280
11410TIP3    H155645   1.924   3.586  16.470  3.0326 -2.3798 -0.5136
11410TIP3    H255646   2.041   3.634  16.554 -0.5401  3.6060  1.6660
11411TIP3   OH255647   0.218   5.275   2.110  0.3994  0.3110 -0.3022
11411TIP3    H155648   0.147   5.270   2.047  0.0778  0.4314  0.0465
11411TIP3    H255649   0.183   5.327   2.182  0.6482 -0.0961  0.1223
11412TIP3   OH255650   4.466   2.913   5.665 -0.5283 -0.4804 -0.7757
11412TIP3    H155651   4.490   2.853   5.594  0.6443 -1.2497  0.2221
11412TIP3    H255652   4.422   2.857   5.730  0.8915 -0.3885  0.3231
11413TIP3   OH255653   4.867   2.806   1.941 -0.4148  0.4046  0.2379
11413TIP3    H155654   4.805   2.878   1.943 -0.0999  0.6836  1.7584
11413TIP3    H255655   4.938   2.836   1.885 -1.4523  0.2264 -1.2173
11414TIP3   OH255656   6.253   5.039  14.553  0.1999 -0.2094 -0.2504
11414TIP3    H155657   6.220   5.026  14.464  2.4245 -0.9096 -1.0273
11414TIP3    H255658   6.213   5.122  14.581  0.0193  0.4064 -2.1848
11415TIP3   OH255659   5.909   2.525  15.613  0.0669 -0.3070  0.2394
11415TIP3    H155660   5.922   2.618  15.631  1.8118 -0.9084  2.5473
11415TIP3    H255661   5.956   2.510  15.531 -0.9820  0.9819 -0.6295
11416TIP3   OH255662   4.424   3.579   6.079 -0.2679  0.4942 -0.2621
11416TIP3    H155663   4.439   3.589   6.173  0.0487 -0.1900 -0.2375
11416TIP3    H255664   4.495   3.628   6.038 -0.5987  1.0766 -0.1501
11417TIP3   OH255665   6.666   0.223  13.426  0.5085  0.7099  0.1249
11417TIP3    H155666   6.643   0.240  13.335  0.7869 -0.4664 -0.1919
11417TIP3    H255667   6.633   0.299  13.475 -0.8829  0.7094 -0.7644
11418TIP3   OH255668   2.689   3.346   2.601 -0.1812 -0.2859  0.1384
11418TIP3    H155669   2.702   3.386   2.688 -0.6213  2.8445 -1.0955
11418TIP3    H255670   2.776   3.316   2.576  0.0841 -0.6193  1.3533
11419TIP3   OH255671   3.848   4.950  12.059  0.2240  0.3909  0.3067
11419TIP3    H155672   3.920   4.891  12.038  1.7731  1.4493  2.3359
11419TIP3    H255673   3.772   4.893  12.065  1.0315 -0.8978 -0.9327
11420TIP3   OH255674   5.351   0.825  11.284 -0.3069  0.1769  0.1142
11420TIP3    H155675   5.316   0.738  11.265 -1.3264  0.5085  0.4052
11420TIP3    H255676   5.400   0.814  11.365  2.4093 -0.8240 -1.5449
11421TIP3   OH255677   4.501   0.055  16.029 -0.2823 -0.3349  0.0251
11421TIP3    H155678   4.556  -0.019  16.054 -0.7409 -0.8333 -0.3966
11421TIP3    H255679   4.487   0.044  15.935  0.2919  0.7386 -0.1952
11422TIP3   OH255680   3.893   3.049   6.132 -0.1582  0.0042  0.5044
11422TIP3    H155681   3.935   3.005   6.058 -0.7595 -2.0490  1.2985
11422TIP3    H255682   3.964   3.071   6.191  0.6141  3.5642 -1.4511
11423TIP3   OH255683   3.576   5.681  12.827 -0.0011 -0.0771  0.1375
11423TIP3    H155684   3.604   5.631  12.904  3.1157  0.8758 -0.2437
11423TIP3    H255685   3.556   5.768  12.860  0.5469  0.1048  0.0022
11424TIP3   OH255686   0.720   3.168  12.987 -0.2460  0.2889 -0.1242
11424TIP3    H155687   0.669   3.239  13.026  0.1014 -0.8034  2.4772
11424TIP3    H255688   0.811   3.188  13.008 -0.0618 -0.4529 -0.1688
11425TIP3   OH255689   6.079   3.034  12.664  0.3267 -0.3590  0.4350
11425TIP3    H155690   6.148   3.086  12.706  0.4748  0.4549 -0.7439
11425TIP3    H255691   5.998   3.075  12.693  0.4483  0.6631 -0.6144
11426TIP3   OH255692   4.684   0.024   0.341 -0.3466  0.2655 -0.7505
11426TIP3    H155693   4.746   0.013   0.269  1.8481 -1.1595  1.2061
11426TIP3    H255694   4.702   0.112   0.375  0.9011 -0.2510 -0.0027
11427TIP3   OH255695   2.851   2.651   0.451 -0.2391  0.4865  0.1612
11427TIP3    H155696   2.903   2.708   0.395  1.0636 -0.5764  0.2210
11427TIP3    H255697   2.760   2.668   0.426  0.1896  1.5803 -0.7474
11428TIP3   OH255698   0.669   6.231  16.465  0.1075  0.4197 -1.0610
11428TIP3    H155699   0.684   6.249  16.373 -0.7012 -1.4693 -1.6057
11428TIP3    H255700   0.585   6.274  16.485 -0.5862 -0.5961 -1.6953
11429TIP3   OH255701   2.149   2.471  10.981 -0.2011 -0.3732 -0.3153
11429TIP3    H155702   2.135   2.537  10.913 -1.6277  0.2929  0.5856
11429TIP3    H255703   2.145   2.520  11.063 -1.8597 -1.6346  0.4065
11430TIP3   OH255704   3.100   4.383   5.569 -0.1154 -0.0176  0.3778
11430TIP3    H155705   3.031   4.364   5.632 -1.1494 -0.0033 -0.7341
11430TIP3    H255706   3.056   4.426   5.496  1.3025  1.4809  0.3323
11431TIP3   OH255707   6.113   6.055  11.758  0.4933  0.6158 -0.3439
11431TIP3    H155708   6.136   6.109  11.834  0.4950  0.3095 -0.1251
11431TIP3    H255709   6.019   6.068  11.748  0.7157  1.7481 -1.1450
11432TIP3   OH255710   3.299   0.719   4.575 -0.1652  0.3748  0.0791
11432TIP3    H155711   3.249   0.719   4.494  0.8553 -0.8432 -0.5895
11432TIP3    H255712   3.257   0.652   4.629 -0.8085  1.1448  0.5473
11433TIP3   OH255713   4.557   4.528   3.122  0.3563  0.2561  0.7784
11433TIP3    H155714   4.555   4.472   3.044 -0.6161  0.3161  0.7498
11433TIP3    H255715   4.544   4.616   3.088  2.2837  0.5955  0.7811
11434TIP3   OH255716   2.672   5.330   3.090 -0.1087  0.4595 -0.1942
11434TIP3    H155717   2.677   5.319   3.185 -0.3418  1.3393 -0.0715
11434TIP3    H255718   2.759   5.305   3.058 -0.1513 -0.2182  0.2027
11435TIP3   OH255719   5.713   0.666  15.303 -0.4952 -0.2436 -0.0257
11435TIP3    H155720   5.649   0.674  15.232 -0.0445 -1.8075 -0.6567
11435TIP3    H255721   5.676   0.719  15.374 -1.9828 -0.2857 -0.7163
11436TIP3   OH255722   5.587   4.832  15.068  0.3051  0.2041  0.0534
11436TIP3    H155723   5.533   4.866  14.996  1.0059  0.3193 -0.4316
11436TIP3    H255724   5.528   4.778  15.119 -0.9929  2.4299  1.0860
11437TIP3   OH255725   0.159   3.239   3.452  0.0405 -0.3880 -0.3131
11437TIP3    H155726   0.109   3.295   3.513  0.1957 -1.8748  1.2565
11437TIP3    H255727   0.100   3.167   3.432  1.0205 -1.4152  0.4120
11438TIP3   OH255728   2.196   6.322  11.430  0.4884  0.3260 -0.4124
11438TIP3    H155729   2.272   6.332  11.488  1.0190  0.2570 -1.0795
11438TIP3    H255730   2.120   6.327  11.489  1.0151  0.1014  0.3094
11439TIP3   OH255731   4.840   3.554  11.274 -0.0199  0.4089  0.0886
11439TIP3    H155732   4.884   3.522  11.353 -1.5104  2.6787  1.9623
11439TIP3    H255733   4.903   3.540  11.204  1.7760 -0.7468  1.8348
11440TIP3   OH255734   4.323   3.220   5.861 -0.4489 -0.3291 -0.3171
11440TIP3    H155735   4.409   3.190   5.890 -0.6111  0.5182  1.1884
11440TIP3    H255736   4.341   3.295   5.805 -0.1860 -0.0526  0.1239
11441TIP3   OH255737   2.120   5.539  15.757  0.2059  0.1610  0.5747
11441TIP3    H155738   2.142   5.572  15.844  2.6238  0.6883 -0.1650
11441TIP3    H255739   2.200   5.498  15.726 -1.0938 -1.4875 -0.7915
11442TIP3   OH255740   6.667   6.618  11.697 -0.3433  0.4114 -0.2844
11442TIP3    H155741   6.601   6.583  11.758 -1.2526 -1.3969 -2.1846
11442TIP3    H255742   6.686   6.545  11.639  0.9983  1.8801 -1.7722
11443TIP3   OH255743   6.278   1.168   0.607  0.4578  0.5310 -0.3807
11443TIP3    H155744   6.217   1.145   0.537 -0.2315  2.6526 -0.5504
11443TIP3    H255745   6.282   1.264   0.606  0.7879  0.6370  2.1716
11444TIP3   OH255746   2.430   3.738   2.367 -0.1450 -0.3495 -0.4156
11444TIP3    H155747   2.391   3.695   2.444 -1.2378 -0.1860 -0.8777
11444TIP3    H255748   2.370   3.719   2.296 -0.8954  2.3190 -0.5636
11445TIP3   OH255749   0.921   6.315   2.414 -0.2389 -0.7147 -0.2141
11445TIP3    H155750   0.891   6.388   2.360  1.6614  0.8436  0.7274
11445TIP3    H255751   0.866   6.320   2.493  0.2666  0.0711  0.0950
11446TIP3   OH255752   2.528   6.570  13.497  0.4947 -0.0211  0.2374
11446TIP3    H155753   2.524   6.474  13.491  2.5519 -0.4001  2.8409
11446TIP3    H255754   2.555   6.599  13.410 -0.3321 -1.7540 -0.6569
11447TIP3   OH255755   3.772   3.325  17.019 -0.3175 -0.5665 -0.5538
11447TIP3    H155756   3.783   3.420  17.019 -1.4261 -0.3769  1.6856
11447TIP3    H255757   3.828   3.294  16.948 -0.1168  1.7663 -1.4867
11448TIP3   OH255758   5.186   1.121   2.646  0.2624  0.0641 -0.0897
11448TIP3    H155759   5.147   1.154   2.565  1.3518 -0.3494 -0.8019
11448TIP3    H255760   5.205   1.029   2.628  0.2741 -0.1002  0.7349
11449TIP3   OH255761   3.887   5.366  13.538  0.0549  0.2505  0.4774
11449TIP3    H155762   3.791   5.370  13.533  0.1057  0.5513 -0.3560
11449TIP3    H255763   3.907   5.272  13.536 -0.2264  0.1812  0.8322
11450TIP3   OH255764   2.985   1.269  11.769  0.0950 -0.0519 -0.4358
11450TIP3    H155765   2.959   1.197  11.712  0.2811 -0.3737 -0.1237
11450TIP3    H255766   3.002   1.342  11.710  0.1176 -0.3292 -0.7771
11451TIP3   OH255767   3.275   3.972   3.707 -0.1968  0.6803 -0.2247
11451TIP3    H155768   3.311   4.047   3.755 -0.5248 -0.1358  1.3764
11451TIP3    H255769   3.351   3.916   3.690 -0.4563 -0.6786  2.4880
11452TIP3   OH255770   5.197   0.176  16.420  0.3414 -0.0513 -0.2480
11452TIP3    H155771   5.192   0.119  16.343  0.2431 -0.6448  0.1858
11452TIP3    H255772   5.116   0.227  16.417 -0.8059 -1.7137  0.6934
11453TIP3   OH255773   3.649   0.074  12.575 -0.4262  0.1740  0.4546
11453TIP3    H155774   3.561   0.036  12.585 -1.1172  1.8862  1.4144
11453TIP3    H255775   3.648   0.114  12.489  0.0398 -1.2604 -0.2447
11454TIP3   OH255776   5.163   1.930   2.070 -0.5310  0.2575  0.2584
11454TIP3    H155777   5.104   1.915   2.144 -1.2205  2.9506  0.3531
11454TIP3    H255778   5.228   1.992   2.103  2.0495 -2.0961 -0.0576
11455TIP3   OH255779   2.198   0.682   4.578  1.2093 -0.1156 -0.0632
11455TIP3    H155780   2.263   0.689   4.648 -0.0994  1.6737  1.0645
11455TIP3    H255781   2.136   0.753   4.596 -2.0876 -2.7457  0.0025
11456TIP3   OH255782   1.606   0.879   1.158  0.0130  0.3467  0.3559
11456TIP3    H155783   1.638   0.790   1.173 -0.3617 -0.0256 -0.9623
11456TIP3    H255784   1.518   0.880   1.194  0.1823  0.3280  0.7789
11457TIP3   OH255785   3.150   3.861   1.393  0.0581 -0.6113  0.2119
11457TIP3    H155786   3.097   3.803   1.447 -0.0396 -0.2944  0.4639
11457TIP3    H255787   3.195   3.917   1.456 -0.1233 -0.1792 -0.0348
11458TIP3   OH255788   6.184   3.331   1.514 -0.5517 -0.2532  0.4728
11458TIP3    H155789   6.271   3.334   1.472 -0.6129 -0.7156  0.3042
11458TIP3    H255790   6.132   3.395   1.466 -0.4044 -0.2372  0.3332
11459TIP3   OH255791   4.949   4.156  15.778  0.6078 -0.0499 -0.1428
11459TIP3    H155792   4.944   4.222  15.709 -2.7147  0.6742  0.6393
11459TIP3    H255793   5.040   4.125  15.774  1.1766  1.5709 -3.2631
11460TIP3   OH255794   1.211   6.685  14.268 -0.0829  0.2767 -0.6817
11460TIP3    H155795   1.286   6.724  14.313  0.4657 -0.8596 -0.5769
11460TIP3    H255796   1.134   6.721  14.313  0.4373 -1.2261  1.5355
11461TIP3   OH255797   1.166   6.706   5.298  0.0151  0.2403  0.0755
11461TIP3    H155798   1.105   6.637   5.323  0.3813 -0.4667 -0.9107
11461TIP3    H255799   1.243   6.659   5.265  0.7639  1.1192  0.5439
11462TIP3   OH255800   0.569   4.252   5.992 -0.3497  0.4119  0.2528
11462TIP3    H155801   0.541   4.294   6.074 -2.8567  0.9913 -0.7964
11462TIP3    H255802   0.586   4.161   6.016 -0.0726  0.7897  1.5827
11463TIP3   OH255803   0.636   0.507   2.292  0.3768 -0.4307 -0.2652
11463TIP3    H155804   0.686   0.425   2.295 -1.1531 -1.3989  1.8677
11463TIP3    H255805   0.549   0.482   2.323 -1.0152  1.4860 -2.3472
11464TIP3   OH255806   3.511   0.980   4.503  0.2076  0.4731  0.0019
11464TIP3    H155807   3.459   1.005   4.579  0.6453 -0.2962  0.5672
11464TIP3    H255808   3.564   1.058   4.484  0.0178  0.7080  0.4153
11465TIP3   OH255809   0.640   3.154  14.591  0.2845 -0.2128  0.0567
11465TIP3    H155810   0.567   3.155  14.529 -0.5344 -4.8859  0.6400
11465TIP3    H255811   0.600   3.157  14.677  1.1460  1.5207  0.4462
11466TIP3   OH255812   4.302   0.300  12.097 -0.3023 -0.3242  0.1807
11466TIP3    H155813   4.341   0.215  12.075 -0.2562 -0.2180 -0.1532
11466TIP3    H255814   4.305   0.349  12.015 -1.7728 -0.5601 -0.0384
11467TIP3   OH255815   1.597   6.057   1.753  0.0854 -0.2350  0.3065
11467TIP3    H155816   1.569   5.969   1.728 -2.0691  0.3289  0.5271
11467TIP3    H255817   1.586   6.110   1.674  1.3748 -0.1379  0.1708
11468TIP3   OH255818   3.321   5.810   3.727 -0.1329  0.1271  0.2233
11468TIP3    H155819   3.262   5.864   3.779 -0.0999 -0.3739  0.7893
11468TIP3    H255820   3.263   5.748   3.682 -0.2691  1.2457 -1.2050
11469TIP3   OH255821   3.882   6.256   2.270  0.0263 -0.1710  0.4866
11469TIP3    H155822   3.871   6.284   2.361  0.0447  0.4266  0.3097
11469TIP3    H255823   3.977   6.253   2.258  0.0607 -1.7624  0.9342
11470TIP3   OH255824   3.630   3.980  14.870 -0.3134  0.5405 -0.5901
11470TIP3    H155825   3.590   4.065  14.886  1.5263  0.9073  2.9951
11470TIP3    H255826   3.716   3.999  14.831  0.0733  0.3339  0.1484
11471TIP3   OH255827   4.566   5.961   3.639  0.3252  0.3293 -0.3019
11471TIP3    H155828   4.530   5.954   3.728  0.2268 -2.1814 -0.4543
11471TIP3    H255829   4.660   5.972   3.652  0.5195 -1.5577  0.1830
11472TIP3   OH255830   5.763   5.731   2.688 -0.1177  0.2696  0.3527
11472TIP3    H155831   5.708   5.807   2.708 -2.5315 -0.2232 -3.4805
11472TIP3    H255832   5.841   5.769   2.647 -0.7541  0.7717 -0.4237
11473TIP3   OH255833   6.237   4.302  10.807 -0.2057 -0.1940  0.8620
11473TIP3    H155834   6.204   4.344  10.727  0.9372 -2.2320 -0.7842
11473TIP3    H255835   6.176   4.230  10.822 -0.3344  0.1009  1.7904
11474TIP3   OH255836   3.088   1.652   5.509 -0.4355  0.1150  0.5528
11474TIP3    H155837   3.026   1.594   5.552 -0.1193 -0.7767 -0.1728
11474TIP3    H255838   3.173   1.612   5.525 -0.4001 -0.9406 -1.8995
11475TIP3   OH255839   2.890   1.051  16.601  0.2310  0.3554 -0.1385
11475TIP3    H155840   2.887   1.079  16.692 -1.0328  0.7096 -0.2794
11475TIP3    H255841   2.880   1.132  16.551  0.5386  0.1162 -0.5906
11476TIP3   OH255842   4.838   3.116   6.164  0.3185 -0.1657 -0.0160
11476TIP3    H155843   4.758   3.092   6.211  0.4117  1.6093  1.1784
11476TIP3    H255844   4.900   3.046   6.184  0.0749  0.0921  1.8650
11477TIP3   OH255845   3.656   1.598  17.157 -0.0644 -0.1743  0.6386
11477TIP3    H155846   3.628   1.521  17.108 -0.4549 -0.1410  0.8046
11477TIP3    H255847   3.668   1.666  17.090 -2.4859  0.4390  0.7318
11478TIP3   OH255848   3.473   2.523   5.413 -0.2727 -0.5673 -0.4440
11478TIP3    H155849   3.400   2.582   5.433  0.7093  0.9724 -1.2144
11478TIP3    H255850   3.456   2.445   5.466 -0.3307  1.3328  2.5713
11479TIP3   OH255851   6.217   1.659   4.833 -0.0861  0.7751 -0.5486
11479TIP3    H155852   6.279   1.714   4.881  0.3608  0.2407 -0.5031
11479TIP3    H255853   6.152   1.721   4.800  0.5104  1.3623 -0.6635
11480TIP3   OH255854   0.234   1.965   3.564  0.0418 -0.7051 -0.4782
11480TIP3    H155855   0.277   2.015   3.496 -0.4543 -0.9106 -0.9566
11480TIP3    H255856   0.161   2.020   3.593 -0.2930 -0.9897 -0.7583
11481TIP3   OH255857   3.369   5.611   4.584  0.2359 -0.3361 -0.2998
11481TIP3    H155858   3.454   5.593   4.624  1.3085  0.6531 -2.0230
11481TIP3    H255859   3.331   5.680   4.639  1.1152  0.1031 -0.2164
11482TIP3   OH255860   5.342   0.541  10.344  0.4556 -0.0946  0.7631
11482TIP3    H155861   5.308   0.455  10.369  1.2275 -0.5384  0.3089
11482TIP3    H255862   5.398   0.524  10.268 -1.2742  1.1200 -0.8842
11483TIP3   OH255863   4.212   3.575   0.747  0.0751 -0.0426 -0.6968
11483TIP3    H155864   4.200   3.489   0.785  2.0173 -0.7126 -1.4624
11483TIP3    H255865   4.147   3.630   0.790 -1.5863 -1.9798 -0.5863
11484TIP3   OH255866   2.034   3.550   1.943  0.0296 -0.1176 -1.0152
11484TIP3    H155867   2.123   3.574   1.918  0.1781  0.1117 -0.2990
11484TIP3    H255868   2.005   3.489   1.875  1.0588 -0.8748 -0.8038
11485TIP3   OH255869   1.724   0.106  15.732  0.0478 -0.7432 -0.4161
11485TIP3    H155870   1.670   0.121  15.810 -0.3367  0.9669 -0.9507
11485TIP3    H255871   1.812   0.135  15.758  0.3789 -2.0597 -0.0234
11486TIP3   OH255872   6.673   0.188   4.950 -0.5273  0.3499 -0.2642
11486TIP3    H155873   6.669   0.176   4.855 -1.6743  0.3843 -0.2404
11486TIP3    H255874   6.706   0.277   4.962  0.7030 -0.0520 -0.5996
11487TIP3   OH255875   4.403   4.423   2.534  0.3515 -0.2450 -0.1094
11487TIP3    H155876   4.438   4.383   2.455 -2.8923 -0.6350 -1.5072
11487TIP3    H255877   4.335   4.482   2.503 -0.7795 -0.1154  2.3757
11488TIP3   OH255878   3.309   3.805   5.409  0.0983 -0.0095  0.8201
11488TIP3    H155879   3.216   3.811   5.430 -0.4677 -0.7654 -1.1714
11488TIP3    H255880   3.310   3.768   5.320  2.3231 -0.8181  1.1298
11489TIP3   OH255881   2.052   3.880  12.753 -0.0786  0.0895 -0.0058
11489TIP3    H155882   1.968   3.835  12.750 -1.5798  2.7037  0.5808
11489TIP3    H255883   2.030   3.973  12.757  2.8555  0.8919 -0.3386
11490TIP3   OH255884   3.484   2.797   3.528 -0.4220 -0.4133  0.0607
11490TIP3    H155885   3.464   2.755   3.444  0.0686 -0.6216  0.0471
11490TIP3    H255886   3.579   2.792   3.536 -0.4438 -0.1805  0.5201
11491TIP3   OH255887   2.263   2.841  13.773  0.0762 -0.0897  0.4419
11491TIP3    H155888   2.315   2.892  13.835 -1.1897 -0.2535  1.7011
11491TIP3    H255889   2.315   2.763  13.756  1.3228  0.8678 -0.2603
11492TIP3   OH255890   1.087   4.180   1.713 -0.0464 -0.0870 -0.1927
11492TIP3    H155891   1.102   4.178   1.808  0.0826 -0.2396 -0.2152
11492TIP3    H255892   1.117   4.094   1.683 -0.1023 -0.0442 -0.3698
11493TIP3   OH255893   4.732   5.164   4.154 -0.0893  0.2768  0.0515
11493TIP3    H155894   4.804   5.106   4.177 -0.8973 -0.6664  0.2874
11493TIP3    H255895   4.698   5.128   4.071  0.6904  1.6533 -0.8978
11494TIP3   OH255896   4.446   5.074   3.619  0.1941  0.2907  0.1779
11494TIP3    H155897   4.446   4.986   3.656 -0.0471 -0.3401 -1.2411
11494TIP3    H255898   4.354   5.098   3.611  0.1348 -0.3811 -1.7198
11495TIP3   OH255899   4.156   5.535   0.023 -0.1366 -0.2233 -0.5229
11495TIP3    H155900   4.216   5.484   0.076  0.3081 -1.0120 -1.7470
11495TIP3    H255901   4.188   5.624   0.028 -0.2224 -0.2497  0.6761
11496TIP3   OH255902   5.099   6.292  15.218 -0.1609 -0.6751  0.4593
11496TIP3    H155903   5.039   6.226  15.184  0.0439 -0.6990  0.1420
11496TIP3    H255904   5.184   6.247  15.224 -0.3885 -0.9492  1.8985
11497TIP3   OH255905   1.209   3.951  11.727 -0.0538 -0.6634 -0.0528
11497TIP3    H155906   1.172   4.030  11.686 -0.7144 -0.8889  0.1054
11497TIP3    H255907   1.136   3.890  11.731  0.0912 -0.7648  1.1640
11498TIP3   OH255908   3.362   6.553   1.682  1.0098  0.2937 -0.0822
11498TIP3    H155909   3.344   6.526   1.592  0.5772  1.1687 -0.2742
11498TIP3    H255910   3.438   6.611   1.674  1.2216  0.0522  0.1725
11499TIP3   OH255911   1.220   1.209  16.646 -0.4990  0.6022  0.2390
11499TIP3    H155912   1.240   1.201  16.739 -0.3171  2.6331  0.4047
11499TIP3    H255913   1.303   1.236  16.606 -0.4196 -0.8239 -0.6397
11500TIP3   OH255914   0.133   4.787   4.444  0.0043  0.9347 -0.3511
11500TIP3    H155915   0.171   4.713   4.491 -1.9210  0.2609  0.2295
11500TIP3    H255916   0.134   4.859   4.507 -0.8362  0.5497  0.1281
11501TIP3   OH255917   6.493   1.400   4.898 -0.2384 -0.4677  0.2324
11501TIP3    H155918   6.502   1.341   4.823 -1.4909  0.0014 -0.3171
11501TIP3    H255919   6.400   1.399   4.919 -0.2551  1.0677  0.4021
11502TIP3   OH255920   0.305   5.633  16.952 -0.1138 -0.2175 -0.0855
11502TIP3    H155921   0.269   5.563  16.898 -1.7875  0.2701  0.3258
11502TIP3    H255922   0.228   5.674  16.993  0.9017  1.0894  0.6169
11503TIP3   OH255923   0.200   3.110  15.255 -0.1093 -0.2628 -0.3533
11503TIP3    H155924   0.286   3.124  15.216  0.9484 -0.6844  1.6549
11503TIP3    H255925   0.174   3.198  15.285  1.2574 -0.5669  2.0351
11504TIP3   OH255926   2.996   6.036  17.182  0.5261 -0.1881 -0.2162
11504TIP3    H155927   3.060   5.991  17.127  0.3709 -0.2555 -0.3457
11504TIP3    H255928   2.918   6.043  17.126  0.1014 -0.9621  0.2543
11505TIP3   OH255929   5.894   4.833   6.319  0.3651 -0.0046 -0.0821
11505TIP3    H155930   5.970   4.892   6.321 -0.7449  1.4906  1.0387
11505TIP3    H255931   5.823   4.888   6.285 -0.6682 -0.7263  0.8390
11506TIP3   OH255932   5.776   5.249   3.298 -0.2458 -0.1976  0.2134
11506TIP3    H155933   5.869   5.263   3.285 -0.2038 -0.5703  0.1132
11506TIP3    H255934   5.734   5.325   3.257 -0.0637 -0.7544 -1.0270
11507TIP3   OH255935   2.033   3.468   0.262 -0.0579  0.1481  0.3724
11507TIP3    H155936   1.970   3.410   0.305 -1.0512  1.5546  0.8927
11507TIP3    H255937   2.113   3.459   0.314 -0.6962  0.4365  1.4371
11508TIP3   OH255938   1.754   1.129  14.269  0.2626 -0.6119 -0.0926
11508TIP3    H155939   1.835   1.106  14.223  0.3044 -0.5478 -0.0527
11508TIP3    H255940   1.781   1.197  14.332  0.0094  0.0719 -0.7082
11509TIP3   OH255941   6.537   4.021  12.488 -0.6040 -0.0407  0.0695
11509TIP3    H155942   6.627   3.997  12.469 -0.5575 -1.2048  1.5411
11509TIP3    H255943   6.485   3.950  12.450 -0.7929 -0.0284  0.3000
11510TIP3   OH255944   6.223   3.846  15.755  0.4966 -0.0676  0.2661
11510TIP3    H155945   6.174   3.896  15.820 -1.8892 -1.7830 -0.0989
11510TIP3    H255946   6.199   3.884  15.671  1.2430  0.2354  0.1806
11511TIP3   OH255947   2.679   1.382  12.544 -0.2882  0.0374 -0.1869
11511TIP3    H155948   2.675   1.378  12.640  0.4946  0.9394 -0.1139
11511TIP3    H255949   2.645   1.297  12.516  0.9657 -0.8697  0.9255
11512TIP3   OH255950   0.485   4.593   5.963  0.2359  0.0618 -0.0655
11512TIP3    H155951   0.435   4.525   5.918 -1.4500  1.4978 -0.5044
11512TIP3    H255952   0.565   4.603   5.912  0.7678 -1.9169  0.3227
11513TIP3   OH255953   4.517   6.284   5.669  0.1022  0.0815  0.1972
11513TIP3    H155954   4.469   6.257   5.747 -0.5207 -0.9084 -0.5063
11513TIP3    H255955   4.563   6.206   5.640 -0.0808  0.2934 -0.7081
11514TIP3   OH255956   6.170   3.088   5.571 -0.3878 -0.0874 -0.1621
11514TIP3    H155957   6.210   3.170   5.601  0.6735  0.1088 -1.9394
11514TIP3    H255958   6.138   3.108   5.483  0.1592 -1.6462 -0.7457
11515TIP3   OH255959   5.789   0.395  14.151  0.6952 -0.2046 -0.0928
11515TIP3    H155960   5.750   0.475  14.117  1.9335 -0.0887 -1.3320
11515TIP3    H255961   5.714   0.338  14.171 -0.1468  0.6934 -0.6330
11516TIP3   OH255962   5.358   3.809   1.814  0.4596 -0.1708 -0.7141
11516TIP3    H155963   5.364   3.849   1.728  0.4903  2.1869  0.2885
11516TIP3    H255964   5.384   3.718   1.801 -1.1812 -0.3411 -3.4573
11517TIP3   OH255965   4.673   4.604  15.157 -0.1672 -0.1773 -0.3166
11517TIP3    H155966   4.578   4.605  15.153 -0.1847  2.3621 -1.2008
11517TIP3    H255967   4.694   4.581  15.247 -1.7005  1.3444  0.4754
11518TIP3   OH255968   2.733   3.308  11.693 -0.0673  0.3703  0.0881
11518TIP3    H155969   2.705   3.314  11.601 -0.3162 -3.0030 -0.1859
11518TIP3    H255970   2.684   3.377  11.738 -1.2969  0.9611 -2.0238
11519TIP3   OH255971   0.863   3.876   4.630  0.1406 -0.1068 -0.3680
11519TIP3    H155972   0.813   3.955   4.650  0.5480 -0.0884  0.6714
11519TIP3    H255973   0.884   3.839   4.716  1.2435 -0.5325 -0.8067
11520TIP3   OH255974   1.595   6.739  16.384  0.1849 -0.5736 -0.0463
11520TIP3    H155975   1.660   6.727  16.316  0.2413 -0.3710 -0.0281
11520TIP3    H255976   1.612   6.669  16.447 -1.0355 -1.9223 -1.1346
11521TIP3   OH255977   0.471   5.553   4.341  0.1404 -0.2823  0.5600
11521TIP3    H155978   0.433   5.507   4.266 -0.2381  0.0498  0.5409
11521TIP3    H255979   0.398   5.563   4.402 -0.2159  1.6583 -0.0894
11522TIP3   OH255980   6.398   5.163  13.458  0.6849 -0.0983  0.1587
11522TIP3    H155981   6.451   5.114  13.521  1.5026 -0.7113 -0.9747
11522TIP3    H255982   6.345   5.097  13.414 -1.5849  0.5603  1.7062
11523TIP3   OH255983   3.044   1.897  10.776  0.1807 -0.3821  0.1460
11523TIP3    H155984   3.116   1.927  10.721  0.0818  1.6260  1.0629
11523TIP3    H255985   2.997   1.835  10.720  0.7370  0.7220 -1.6435
11524TIP3   OH255986   6.338   3.162  12.109 -0.0125  0.0246  0.3149
11524TIP3    H155987   6.307   3.226  12.046  1.3927 -0.0660 -0.5165
11524TIP3    H255988   6.343   3.080  12.060  0.6010 -0.1610  0.6770
11525TIP3   OH255989   4.070   1.903   6.001 -1.2573 -0.5166  0.0074
11525TIP3    H155990   4.132   1.960   6.048 -0.0667 -1.3010 -0.5527
11525TIP3    H255991   4.001   1.962   5.971  0.3605  0.8086 -1.2905
11526TIP3   OH255992   1.709   0.569   4.213 -0.3204 -0.2459 -0.2576
11526TIP3    H155993   1.801   0.568   4.187 -0.0348 -1.0552  0.7114
11526TIP3    H255994   1.680   0.479   4.199 -1.5577  0.4189 -2.4561
11527TIP3   OH255995   1.312   4.448  15.056 -0.1480 -0.0375 -0.7369
11527TIP3    H155996   1.361   4.476  14.979  0.7850  2.6699  0.6907
11527TIP3    H255997   1.377   4.444  15.127 -1.5219  1.3680  0.6997
11528TIP3   OH255998   3.159   5.023   2.565 -0.7706  0.0385 -0.5069
11528TIP3    H155999   3.085   4.976   2.605 -2.1914  1.8935 -0.8003
11528TIP3    H256000   3.128   5.114   2.558  1.2821  0.7184 -1.3416
11529TIP3   OH256001   1.427   2.726   6.555  0.1166 -0.6612  0.0316
11529TIP3    H156002   1.360   2.794   6.560  0.3776 -0.3553 -0.5715
11529TIP3    H256003   1.509   2.774   6.541  0.5924 -0.9695  1.5881
11530TIP3   OH256004   0.078   6.353  13.672  0.3148 -0.3796 -0.1175
11530TIP3    H156005   0.088   6.309  13.588 -1.0114 -2.2017  0.6101
11530TIP3    H256006   0.097   6.285  13.737 -1.8257  0.0637  1.0557
11531TIP3   OH256007   6.327   6.273   1.230 -0.3238  1.2524 -0.3934
11531TIP3    H156008   6.296   6.360   1.207  0.0682  1.3455 -0.5808
11531TIP3    H256009   6.403   6.258   1.173  0.2739  1.2281  0.3817
11532TIP3   OH256010   0.506   5.516   0.227  0.5976  0.3167 -0.3771
11532TIP3    H156011   0.514   5.511   0.323  1.0787 -3.0902 -0.4626
11532TIP3    H256012   0.455   5.596   0.211  0.8526  1.2170  2.6716
11533TIP3   OH256013   2.250   0.697   3.480 -0.3124 -0.6939 -0.4609
11533TIP3    H156014   2.291   0.781   3.500  1.0317 -1.4560  0.1573
11533TIP3    H256015   2.178   0.718   3.421 -0.3320  0.9361  0.0986
11534TIP3   OH256016   5.698   2.983  11.855  0.6321 -0.2461  0.0352
11534TIP3    H156017   5.629   2.970  11.790  1.1482  0.0571 -0.5928
11534TIP3    H256018   5.754   2.906  11.845 -0.5854 -1.4355  1.8269
11535TIP3   OH256019   1.380   2.468   4.647  0.5431  0.0151 -0.2120
11535TIP3    H156020   1.388   2.387   4.596  3.0568 -0.5122  0.8681
11535TIP3    H256021   1.316   2.447   4.715 -1.9394  0.3450 -2.2678
11536TIP3   OH256022   3.285   4.479  13.612 -0.1340 -0.6231  0.0845
11536TIP3    H156023   3.303   4.566  13.576 -0.0976 -0.5595  0.2518
11536TIP3    H256024   3.194   4.461  13.588 -0.2910 -0.3328  0.4604
11537TIP3   OH256025   5.340   5.450  11.659  0.6744  0.6194 -0.3239
11537TIP3    H156026   5.410   5.408  11.710 -2.3668 -1.6489  2.3654
11537TIP3    H256027   5.295   5.378  11.615  0.0894  2.0438 -2.1922
11538TIP3   OH256028   3.703   2.281  14.521 -0.8128 -0.6496 -0.4305
11538TIP3    H156029   3.679   2.323  14.604  1.7699  0.2257 -0.0378
11538TIP3    H256030   3.673   2.342  14.454 -0.8189 -0.2182 -0.0414
11539TIP3   OH256031   5.964   1.039  16.037 -0.3707 -0.0939  0.0402
11539TIP3    H156032   5.886   0.987  16.054 -0.4605 -0.4373 -1.3063
11539TIP3    H256033   5.998   1.060  16.123 -1.0733 -1.2663  0.6269
11540TIP3   OH256034   5.791   2.894   0.840 -0.1223  0.0609 -0.1044
11540TIP3    H156035   5.827   2.899   0.928  0.3200  2.2912 -0.3493
11540TIP3    H256036   5.783   2.985   0.812 -2.8864 -0.4505 -1.3360
11541TIP3   OH256037   0.435   6.483  12.497  0.0099  0.0749 -0.0694
11541TIP3    H156038   0.441   6.526  12.411  1.5871 -0.1783 -0.1139
11541TIP3    H256039   0.414   6.554  12.558  0.3783  0.5278 -0.4586
11542TIP3   OH256040   1.941   1.199  11.754 -0.1440 -0.2742  0.4762
11542TIP3    H156041   1.965   1.140  11.683  0.9956  0.4763  0.2025
11542TIP3    H256042   1.950   1.287  11.717  1.0642  0.1521  1.6827
11543TIP3   OH256043   4.518   3.426   5.815 -0.2929 -0.0846 -0.2241
11543TIP3    H156044   4.490   3.465   5.898  1.5266 -1.1574  0.9727
11543TIP3    H256045   4.488   3.488   5.748 -0.5925  1.5303  1.3230
11544TIP3   OH256046   1.454   1.071   2.083  0.0950 -0.3533 -0.0457
11544TIP3    H156047   1.453   1.025   2.167  1.3297  0.6133  0.5205
11544TIP3    H256048   1.526   1.031   2.034 -0.2845 -0.5518 -0.4547
11545TIP3   OH256049   2.298   0.466   3.052  0.6315  0.1918 -0.1775
11545TIP3    H156050   2.373   0.507   3.008  0.3026  0.7281 -0.2373
11545TIP3    H256051   2.337   0.416   3.123  1.0551  0.4030 -0.2563
11546TIP3   OH256052   5.208   3.628  14.248 -0.9912 -0.0689  0.3827
11546TIP3    H156053   5.127   3.672  14.272 -0.6539  0.4085  0.6547
11546TIP3    H256054   5.179   3.544  14.212 -1.5886 -0.0655  0.8263
11547TIP3   OH256055   0.043   2.004  16.280 -0.1511  0.1768  0.3294
11547TIP3    H156056   0.099   2.059  16.335  1.0690 -0.3160 -0.3771
11547TIP3    H256057   0.065   2.029  16.190 -1.2981  0.1756  0.0310
11548TIP3   OH256058   4.301   2.568  15.665  0.4551  0.0843  0.2579
11548TIP3    H156059   4.302   2.659  15.637  1.8203  0.0669  0.1696
11548TIP3    H256060   4.210   2.540  15.654 -0.1783  1.6797  1.1493
11549TIP3   OH256061   0.947   5.082  13.460  0.4389 -0.0751 -0.5079
11549TIP3    H156062   0.935   4.990  13.484 -1.2622 -0.0661 -1.2013
11549TIP3    H256063   1.031   5.084  13.413  1.7346 -0.8033  1.6418
11550TIP3   OH256064   2.378   0.967   3.205  0.1069 -0.4992 -0.6122
11550TIP3    H156065   2.461   1.007   3.177  0.6986 -2.4295 -1.7382
11550TIP3    H256066   2.402   0.914   3.281 -0.4515  0.3089  0.1445
11551TIP3   OH256067   5.299   0.217  17.027  0.5062  0.1134 -0.0579
11551TIP3    H156068   5.355   0.153  16.983  0.3794  0.3118 -0.5097
11551TIP3    H256069   5.298   0.189  17.118  1.7148  0.3670  0.0520
11552TIP3   OH256070   2.811   5.995  13.483 -0.7158 -0.0984 -0.1985
11552TIP3    H156071   2.885   5.951  13.440  0.8474 -0.1195  2.3014
11552TIP3    H256072   2.739   5.988  13.421  1.5267  0.4755 -3.0680
11553TIP3   OH256073   1.822   6.766   2.902 -0.0173  0.5357  0.8360
11553TIP3    H156074   1.838   6.767   2.997 -0.4163  1.0133  0.9009
11553TIP3    H256075   1.814   6.673   2.881 -0.9505  0.4569  1.4532
11554TIP3   OH256076   6.578   3.825  10.517 -0.1529  0.5694 -0.0924
11554TIP3    H156077   6.672   3.835  10.532 -0.2860  1.3194  0.3169
11554TIP3    H256078   6.551   3.907  10.476 -0.8863  0.9970  1.1828
11555TIP3   OH256079   1.653   5.374   3.068  0.1859  0.3435  0.1775
11555TIP3    H156080   1.658   5.463   3.032  1.7497  0.4330  0.5299
11555TIP3    H256081   1.573   5.337   3.031  0.7163  1.0979 -1.8448
11556TIP3   OH256082   4.806   4.013   3.303 -0.2561 -0.3746  0.5893
11556TIP3    H156083   4.851   4.093   3.330  1.5873 -0.7826 -1.0544
11556TIP3    H256084   4.777   3.973   3.385 -0.4903  1.5174  1.4948
11557TIP3   OH256085   0.820   2.794  15.527  0.2622 -0.3975  0.0232
11557TIP3    H156086   0.731   2.762  15.542 -0.1781  0.6487 -0.2854
11557TIP3    H256087   0.837   2.854  15.599  1.0096 -1.1320  0.4841
11558TIP3   OH256088   4.629   0.111  16.368 -0.1036  0.1870 -0.8423
11558TIP3    H156089   4.639   0.030  16.419  0.0907  0.3608 -0.6009
11558TIP3    H256090   4.678   0.094  16.287  1.0965  0.5467 -0.2204
11559TIP3   OH256091   6.246   2.470  16.562 -0.3519 -0.2235 -0.1208
11559TIP3    H156092   6.192   2.417  16.504 -0.1594 -2.4471  1.5692
11559TIP3    H256093   6.189   2.488  16.638 -0.2105  1.5385 -0.4019
11560TIP3   OH256094   6.755   3.605   1.385  0.1712  0.1894 -0.4268
11560TIP3    H156095   6.756   3.522   1.336 -1.0806 -0.1491  0.0846
11560TIP3    H256096   6.794   3.582   1.469 -0.7320 -0.0500 -0.0593
11561TIP3   OH256097   2.620   0.071  16.332  0.2077  0.2996 -0.5838
11561TIP3    H156098   2.714   0.064  16.349 -0.0864  1.1150  1.5944
11561TIP3    H256099   2.595   0.155  16.369 -1.7094 -0.6902  0.5040
11562TIP3   OH256100   3.924   1.228   0.533 -0.6100 -0.4654  0.0178
11562TIP3    H156101   3.908   1.322   0.535  0.1395 -0.3428  0.9737
11562TIP3    H256102   3.983   1.212   0.606  0.5810 -1.4350 -1.1076
11563TIP3   OH256103   5.956   5.906   0.774  0.3331 -0.0557 -0.0677
11563TIP3    H156104   5.981   5.832   0.830  1.1034  0.7805  0.7398
11563TIP3    H256105   6.012   5.978   0.803 -0.4924  0.8908 -0.7359
11564TIP3   OH256106   0.972   0.458  16.075 -0.5406 -0.5092 -0.0225
11564TIP3    H156107   0.961   0.486  16.166 -1.4955 -0.9082  0.0034
11564TIP3    H256108   0.946   0.534  16.023  1.3891  0.2120  0.0135
11565TIP3   OH256109   0.264   4.779   0.215  0.0013  0.2578 -0.1436
11565TIP3    H156110   0.297   4.708   0.270  1.0555  1.3683  0.7054
11565TIP3    H256111   0.308   4.857   0.248 -0.9492  1.2766 -1.2160
11566TIP3   OH256112   6.591   3.736   3.187  0.0658  0.9661  0.2523
11566TIP3    H156113   6.643   3.799   3.137 -0.2887  0.7841 -0.3538
11566TIP3    H256114   6.555   3.677   3.121  0.3418  0.1625  0.8109
11567TIP3   OH256115   2.442   0.782  13.790 -0.6144  0.2036 -0.2546
11567TIP3    H156116   2.382   0.857  13.799  0.2025  1.0477 -1.5490
11567TIP3    H256117   2.424   0.748  13.702  1.6104  1.2414 -1.1872
11568TIP3   OH256118   1.086   6.177   2.142  0.1383  0.2406 -0.4705
11568TIP3    H156119   0.990   6.173   2.140  0.1768 -0.7416 -0.8826
11568TIP3    H256120   1.106   6.238   2.212 -0.7789 -0.9023  0.8490
11569TIP3   OH256121   1.608   3.183   3.889 -0.2036 -0.0891 -0.4148
11569TIP3    H156122   1.517   3.182   3.919 -0.0420 -0.1919  0.0836
11569TIP3    H256123   1.651   3.114   3.940 -0.3925 -1.7660 -2.3998
11570TIP3   OH256124   6.761   0.009  14.606 -0.1353  0.4149 -0.9337
11570TIP3    H156125   6.672   0.023  14.575 -0.5213  1.3945  0.4832
11570TIP3    H256126   6.761  -0.079  14.644 -0.7900  0.7728 -0.0700
11571TIP3   OH256127   1.259   4.406  15.482  0.0488 -0.8011 -0.2046
11571TIP3    H156128   1.340   4.394  15.432  0.3079  0.0032  0.0039
11571TIP3    H256129   1.191   4.412  15.415 -0.0822 -2.9860 -0.3397
11572TIP3   OH256130   1.187   4.178  15.303  0.0949 -0.0531 -0.0014
11572TIP3    H156131   1.107   4.190  15.251  0.8591 -0.2049 -1.2564
11572TIP3    H256132   1.182   4.087  15.332  0.3171 -0.3972 -0.9978
11573TIP3   OH256133   4.456   4.440  17.237  0.0196  0.0931  0.6321
11573TIP3    H156134   4.537   4.454  17.187 -1.6753  0.4973 -2.2613
11573TIP3    H256135   4.415   4.365  17.194 -1.0420 -0.2957  2.2362
11574TIP3   OH256136   1.640   5.824   5.700  0.5250  0.1236 -0.0448
11574TIP3    H156137   1.610   5.915   5.697  0.6600  0.1597 -0.2986
11574TIP3    H256138   1.735   5.830   5.707  0.6645 -0.0014 -1.5778
11575TIP3   OH256139   1.281   4.957   5.947 -0.4491  0.2880  0.1447
11575TIP3    H156140   1.340   5.010   5.892 -0.4150 -0.8380 -0.9408
11575TIP3    H256141   1.206   5.014   5.963 -0.6634  0.4906 -1.4533
11576TIP3   OH256142   0.329   6.475  11.707 -0.7335 -0.4608 -0.1738
11576TIP3    H156143   0.281   6.405  11.663 -1.1584 -0.4034  0.1814
11576TIP3    H256144   0.288   6.556  11.674  0.7514 -0.3036 -1.7346
11577TIP3   OH256145   4.964   4.833  15.926 -0.2867 -0.5026  0.1103
11577TIP3    H156146   4.956   4.924  15.953  1.0277 -0.2975 -0.1118
11577TIP3    H256147   4.939   4.833  15.833 -2.2238 -0.7410  0.6038
11578TIP3   OH256148   1.284   2.798  13.064 -0.0299  0.5152  0.1181
11578TIP3    H156149   1.254   2.761  13.147  0.9667 -1.9953 -0.5759
11578TIP3    H256150   1.210   2.852  13.034 -2.1461 -1.9621  0.5521
11579TIP3   OH256151   1.876   4.254  15.005 -0.1607  0.1411 -0.8295
11579TIP3    H156152   1.785   4.223  15.010 -0.0472 -0.1552 -0.5976
11579TIP3    H256153   1.889   4.301  15.087  0.8889 -2.5299  0.6663
11580TIP3   OH256154   2.392   0.903  11.161  0.5903 -0.0619  0.5997
11580TIP3    H156155   2.465   0.841  11.152  2.0491  1.6129  0.2599
11580TIP3    H256156   2.342   0.892  11.081  2.6891  1.4008 -1.0267
11581TIP3   OH256157   1.746   1.726  13.954 -0.0799  0.0451 -0.4023
11581TIP3    H156158   1.685   1.733  14.028  0.0035 -0.0485 -0.3234
11581TIP3    H256159   1.801   1.651  13.977  0.6841  0.7126 -0.0223
11582TIP3   OH256160   1.655   4.967   3.367 -0.7136 -0.8085 -0.2500
11582TIP3    H156161   1.647   4.877   3.337 -2.3782 -0.7239 -0.1574
11582TIP3    H256162   1.684   5.016   3.289 -1.1087 -1.2162 -0.6579
11583TIP3   OH256163   5.553   5.374  13.980 -0.0662 -0.2277  0.5502
11583TIP3    H156164   5.615   5.384  14.052  0.7971 -0.0205 -0.2010
11583TIP3    H256165   5.500   5.298  14.004  0.7939 -0.7012  0.9850
11584TIP3   OH256166   5.799   1.347   5.408  0.3086  0.2230  0.3296
11584TIP3    H156167   5.834   1.308   5.488  0.1234 -2.6258 -0.8261
11584TIP3    H256168   5.704   1.347   5.421  0.2441 -0.6949 -0.0029
11585TIP3   OH256169   4.810   1.371   4.096  0.7015  0.7065  0.0843
11585TIP3    H156170   4.763   1.303   4.144  2.4482  1.2500  2.7851
11585TIP3    H256171   4.782   1.453   4.136 -0.4985  1.5901 -2.3437
11586TIP3   OH256172   1.771   5.959  12.397 -0.0809  0.4460 -0.3586
11586TIP3    H156173   1.744   5.893  12.461  1.1726  0.5945  0.3392
11586TIP3    H256174   1.747   5.920  12.313  2.4835 -1.9068 -0.1564
11587TIP3   OH256175   6.758   6.322  12.421  0.1704 -0.4947  0.3796
11587TIP3    H156176   6.713   6.382  12.362 -0.3932 -2.1780 -0.9863
11587TIP3    H256177   6.850   6.327  12.395  0.0034 -0.8229 -0.3002
11588TIP3   OH256178   3.349   0.554  15.807 -0.3078  0.0467  0.0090
11588TIP3    H156179   3.411   0.599  15.865 -1.7666  0.1311  1.5991
11588TIP3    H256180   3.360   0.596  15.722  0.1213  1.7235  0.8495
11589TIP3   OH256181   0.370   6.661  12.299 -0.2488  0.3445  0.1697
11589TIP3    H156182   0.280   6.650  12.268 -0.6404  0.3161  1.2677
11589TIP3    H256183   0.414   6.710  12.230 -0.9608 -0.1146 -0.6267
11590TIP3   OH256184   2.166   6.116  11.941  0.0634 -0.4276  0.2177
11590TIP3    H156185   2.121   6.034  11.961 -0.5792 -0.4105 -1.0544
11590TIP3    H256186   2.235   6.091  11.878 -0.3534  0.0442 -0.4362
11591TIP3   OH256187   2.429   5.942   2.383 -0.2054 -0.2121 -0.2999
11591TIP3    H156188   2.428   5.885   2.460  0.5975 -0.0958 -0.2001
11591TIP3    H256189   2.426   6.031   2.420  2.8308 -0.0498 -0.2595
11592TIP3   OH256190   3.383   4.261   3.251 -0.4271 -0.0062 -0.3802
11592TIP3    H156191   3.350   4.181   3.210 -2.1439  0.5274 -0.1199
11592TIP3    H256192   3.394   4.239   3.343 -0.5761 -0.0494 -0.3719
11593TIP3   OH256193   3.416   1.568  14.918  0.4015 -0.5219 -0.2419
11593TIP3    H156194   3.351   1.498  14.916  0.0422 -0.1738 -1.6722
11593TIP3    H256195   3.366   1.648  14.900  1.0113 -0.0566  0.0708
11594TIP3   OH256196   3.999   1.723  11.841  0.3662  0.1618  0.4184
11594TIP3    H156197   3.912   1.762  11.845 -0.4588 -1.5909  0.9068
11594TIP3    H256198   3.982   1.629  11.835  2.2329 -0.2395  0.8295
11595TIP3   OH256199   4.987   6.776   2.188 -0.4595 -0.6472  0.3487
11595TIP3    H156200   4.895   6.754   2.177 -0.6681  0.5264 -0.5217
11595TIP3    H256201   4.986   6.869   2.213  0.4020 -1.1684  2.5616
11596TIP3   OH256202   2.934   2.823   0.218  0.2490 -0.4984 -0.1351
11596TIP3    H156203   2.970   2.752   0.166  0.1487 -0.8242  0.2322
11596TIP3    H256204   3.006   2.885   0.229  0.0894 -0.1035 -1.2089
11597TIP3   OH256205   1.341   2.606  10.522 -0.5158 -0.5810  0.3270
11597TIP3    H156206   1.251   2.589  10.552 -0.6062  0.5101  0.7358
11597TIP3    H256207   1.349   2.702  10.524  0.1183 -0.5720 -1.3177
11598TIP3   OH256208   4.912   5.174   5.054 -0.4726  0.6523 -0.2135
11598TIP3    H156209   4.843   5.134   5.002 -1.5209  2.0196  0.0934
11598TIP3    H256210   4.888   5.155   5.145 -0.4496  1.1579 -0.1024
11599TIP3   OH256211   1.509   6.565  14.300  0.3666 -1.1503 -0.0734
11599TIP3    H156212   1.436   6.519  14.258 -2.1737  1.5811  1.0134
11599TIP3    H256213   1.504   6.538  14.391 -0.4468  0.2731  0.3434
11600TIP3   OH256214   0.421   0.127  14.722  0.2156  0.5400 -0.8370
11600TIP3    H156215   0.463   0.058  14.672  0.8368 -1.0048  1.6563
11600TIP3    H256216   0.446   0.110  14.813 -1.4156  2.7635  0.1238
11601TIP3   OH256217   1.169   6.611   1.599  0.4559 -0.6940 -0.2327
11601TIP3    H156218   1.133   6.560   1.671  0.8698 -0.6893 -0.0203
11601TIP3    H256219   1.234   6.552   1.559 -0.0467 -0.8457 -0.8479
11602TIP3   OH256220   2.869   5.181  12.407  0.0003 -0.4812  0.1949
11602TIP3    H156221   2.835   5.097  12.437 -1.7847  0.0972 -0.0940
11602TIP3    H256222   2.941   5.200  12.468 -0.8635 -1.2893  1.5380
11603TIP3   OH256223   4.093   6.030  15.801  0.3070 -0.1412 -0.1863
11603TIP3    H156224   4.131   6.111  15.835  1.2631 -0.8287  0.4386
11603TIP3    H256225   4.055   5.987  15.878 -1.4055  0.3184 -0.7239
11604TIP3   OH256226   0.829   5.330  15.422  0.0251 -0.5167 -0.2978
11604TIP3    H156227   0.886   5.352  15.349  1.5098 -0.4868  0.8253
11604TIP3    H256228   0.878   5.357  15.500 -2.1073  0.7781  0.6762
11605TIP3   OH256229   1.536   6.590  15.364  0.1089  0.4630  0.5491
11605TIP3    H156230   1.573   6.508  15.331 -0.4236  0.7981 -0.9617
11605TIP3    H256231   1.575   6.601  15.452  3.6480  0.8262 -0.8826
11606TIP3   OH256232   4.002   4.591  13.908 -0.0414  0.0098 -0.1701
11606TIP3    H156233   3.913   4.598  13.941 -0.3115 -0.5660 -0.7491
11606TIP3    H256234   3.998   4.623  13.818  0.7676  1.9296  0.4270
11607TIP3   OH256235   0.871   3.087   2.190  0.3499  0.8687 -0.3297
11607TIP3    H156236   0.785   3.116   2.219 -0.1341  3.0074 -3.4494
11607TIP3    H256237   0.853   3.019   2.126  1.1425 -0.2515  0.5974
11608TIP3   OH256238   2.629   6.109  11.770  0.1099  0.3697  0.3239
11608TIP3    H156239   2.593   6.108  11.859 -0.2621  1.1593  0.1873
11608TIP3    H256240   2.686   6.032  11.766  0.4275  0.5405  1.3705
11609TIP3   OH256241   1.638   4.683  16.358  0.3229 -0.7013  0.1331
11609TIP3    H156242   1.605   4.770  16.334  0.4061 -0.7211 -0.0515
11609TIP3    H256243   1.572   4.623  16.324 -0.2725 -0.6612  1.1782
11610TIP3   OH256244   6.417   1.681   0.589  0.3753  0.2022 -0.0553
11610TIP3    H156245   6.439   1.757   0.534 -0.4971 -0.0229 -0.7521
11610TIP3    H256246   6.324   1.666   0.571  0.6008 -1.2109 -0.1455
11611TIP3   OH256247   4.963   4.736   0.479 -0.3094 -0.9782  0.2438
11611TIP3    H156248   4.899   4.735   0.408  0.2790 -1.1757 -0.2879
11611TIP3    H256249   5.015   4.657   0.466  0.3112 -0.6064  0.4223
11612TIP3   OH256250   4.357   1.237   2.879 -0.0296 -0.1657  0.2366
11612TIP3    H156251   4.377   1.222   2.787  0.9125  0.2092  0.3727
11612TIP3    H256252   4.262   1.230   2.884 -0.1477  0.4330 -0.8733
11613TIP3   OH256253   5.606   0.343   2.749 -0.0566  0.0502  0.0819
11613TIP3    H156254   5.610   0.438   2.751  0.2519  0.0387  0.1069
11613TIP3    H256255   5.631   0.320   2.659  0.4612 -0.0301  0.2436
11614TIP3   OH256256   1.598   3.368  12.122  0.6367 -0.3518 -0.4306
11614TIP3    H156257   1.648   3.395  12.044 -0.1093  2.7611  0.0495
11614TIP3    H256258   1.527   3.432  12.128 -0.3613 -1.5732  1.8312
11615TIP3   OH256259   3.457   3.652  12.629  0.0023  0.3173  0.3998
11615TIP3    H156260   3.490   3.606  12.706  1.5295  0.1313 -0.3305
11615TIP3    H256261   3.441   3.584  12.565  0.4771  0.6288 -0.0548
11616TIP3   OH256262   3.067   6.202   2.827  0.7116  0.2661 -0.1164
11616TIP3    H156263   3.068   6.119   2.874  1.3827  0.5966  0.4875
11616TIP3    H256264   3.064   6.179   2.735  0.3005 -0.4165  0.0685
11617TIP3   OH256265   5.022   3.072   0.728  0.2147 -0.5748 -0.0897
11617TIP3    H156266   4.944   3.047   0.678 -1.1393  1.1943  1.0270
11617TIP3    H256267   4.998   3.057   0.819  1.6227 -1.0442  0.2325
11618TIP3   OH256268   1.707   4.136  15.548  0.0379  0.2041  0.0481
11618TIP3    H156269   1.630   4.172  15.503  0.1009 -0.0317 -0.2481
11618TIP3    H256270   1.672   4.067  15.604 -0.0508  0.5503  0.4246
11619TIP3   OH256271   3.343   6.027   3.030  0.0055  0.3085 -0.1139
11619TIP3    H156272   3.265   5.990   2.988  0.4820  0.2682 -0.9950
11619TIP3    H256273   3.395   5.951   3.055  0.6385  0.3498 -1.2521
11620TIP3   OH256274   2.931   5.440   2.325 -0.2141  0.5238 -0.1022
11620TIP3    H156275   2.942   5.500   2.252 -1.3632  0.9868  0.0809
11620TIP3    H256276   2.842   5.455   2.356 -0.6295 -1.4251 -0.1925
11621TIP3   OH256277   0.782   2.013  15.878 -0.3477 -0.1620 -0.5290
11621TIP3    H156278   0.806   2.067  15.953 -1.3407  1.9421 -1.6419
11621TIP3    H256279   0.865   1.980  15.844  0.5758  2.6879 -1.2391
11622TIP3   OH256280   0.174   2.595  15.971  0.3479 -0.4195  0.1720
11622TIP3    H156281   0.194   2.676  15.925  0.0584 -0.5490 -0.1877
11622TIP3    H256282   0.225   2.528  15.925  1.2333 -0.3224  0.9796
11623TIP3   OH256283   5.820   3.557  15.968 -0.1854  0.2078  0.7379
11623TIP3    H156284   5.764   3.481  15.985  0.2587  0.0728  1.6540
11623TIP3    H256285   5.873   3.566  16.047  1.0337  0.3958 -0.0801
11624TIP3   OH256286   4.296   6.771   1.195  0.4826 -0.7404 -0.1899
11624TIP3    H156287   4.248   6.850   1.169  1.7479  0.7867  1.8006
11624TIP3    H256288   4.325   6.733   1.112 -1.2427  0.1407 -1.2700
11625TIP3   OH256289   4.934   1.343   2.471  0.3386  0.5783 -0.3007
11625TIP3    H156290   4.924   1.421   2.417 -0.5825  0.1229 -0.8111
11625TIP3    H256291   4.979   1.280   2.414  2.3503  1.1430  0.5473
11626TIP3   OH256292   4.742   4.003   1.250 -0.0148  0.5409 -0.4823
11626TIP3    H156293   4.705   3.968   1.169  0.5944  0.4973 -0.7395
11626TIP3    H256294   4.691   4.083   1.267  0.7949  1.3234 -1.6627
11627TIP3   OH256295   0.532   4.889   6.140  0.2925 -0.1225 -0.5529
11627TIP3    H156296   0.461   4.865   6.079 -1.5945  2.4372  0.4681
11627TIP3    H256297   0.511   4.840   6.220  0.3768 -0.2846 -0.6290
11628TIP3   OH256298   4.660   5.664   1.187  0.0375  0.0806  0.8699
11628TIP3    H156299   4.631   5.702   1.104 -0.0578 -1.1287  0.3198
11628TIP3    H256300   4.715   5.731   1.227 -2.0774  1.7616  1.1365
11629TIP3   OH256301   6.682   6.732   5.316  0.3550  0.4844  0.5294
11629TIP3    H156302   6.710   6.806   5.262 -0.1622 -0.1589 -0.6539
11629TIP3    H256303   6.717   6.655   5.272  0.7467 -0.0000  1.6573
11630TIP3   OH256304   1.470   1.258  14.058  0.0030 -0.0316  0.2547
11630TIP3    H156305   1.434   1.236  14.144 -2.1955 -0.2917 -0.6751
11630TIP3    H256306   1.417   1.331  14.027  1.8283  1.1729 -0.2427
11631TIP3   OH256307   2.871   5.847  14.048  0.0573 -0.4390 -0.0601
11631TIP3    H156308   2.859   5.796  13.968 -1.1725 -0.6148  0.2173
11631TIP3    H256309   2.829   5.931  14.029  0.7088 -0.0853  0.0323
11632TIP3   OH256310   5.799   5.550   3.201 -0.2042  0.6361  0.3669
11632TIP3    H156311   5.883   5.577   3.164 -0.2934 -0.0627 -0.3715
11632TIP3    H256312   5.751   5.631   3.216 -0.1371  0.9426 -0.9974
11633TIP3   OH256313   1.521   0.896   3.080  0.4399 -0.1099 -0.3135
11633TIP3    H156314   1.501   0.907   2.987  0.6553 -1.8178 -0.5849
11633TIP3    H256315   1.582   0.967   3.100  0.0448  0.5435 -1.3542
11634TIP3   OH256316   4.393   5.460   0.194  0.2003  0.4682 -0.1226
11634TIP3    H156317   4.387   5.440   0.287 -1.0845 -0.0791 -0.2979
11634TIP3    H256318   4.430   5.381   0.155 -2.0291 -0.4866 -0.4257
11635TIP3   OH256319   4.438   4.588  13.423 -0.5007 -0.2896 -0.0926
11635TIP3    H156320   4.433   4.659  13.487 -2.0899 -1.4125  1.1162
11635TIP3    H256321   4.385   4.618  13.350 -2.2548 -0.7036  0.9582
11636TIP3   OH256322   1.993   6.736  13.655  0.0184 -0.1229 -0.0783
11636TIP3    H156323   1.952   6.654  13.627 -1.2830 -0.1673  1.7418
11636TIP3    H256324   2.070   6.745  13.599  0.6433 -2.9827  0.1532
11637TIP3   OH256325   1.980   5.505   5.688  0.3933  0.5178 -0.2289
11637TIP3    H156326   2.021   5.437   5.635  0.0499 -0.1225  0.3091
11637TIP3    H256327   1.899   5.526   5.642  1.1935  1.6672 -1.2043
11638TIP3   OH256328   0.308   3.773  11.638 -0.0047  0.3182 -0.3420
11638TIP3    H156329   0.263   3.773  11.722  1.4005 -1.1023  0.4736
11638TIP3    H256330   0.358   3.854  11.637  1.3146 -0.4269  1.0218
11639TIP3   OH256331   3.238   2.888   6.343 -0.4314 -0.5329 -0.3308
11639TIP3    H156332   3.160   2.902   6.397  0.7042  2.6424  0.7473
11639TIP3    H256333   3.310   2.921   6.396  0.8770  2.0190 -3.3580
11640TIP3   OH256334   2.190   2.973  13.025  0.9117 -0.7981 -0.3184
11640TIP3    H156335   2.116   2.966  13.086  0.4952 -0.2346 -0.7438
11640TIP3    H256336   2.196   3.066  13.006  1.6291 -0.8640 -0.4226
11641TIP3   OH256337   1.084   1.726  15.651 -0.1363 -1.0865  0.3021
11641TIP3    H156338   1.052   1.640  15.621  0.0103 -0.2914 -2.3729
11641TIP3    H256339   1.103   1.774  15.571  2.8022  0.3856  1.7250
11642TIP3   OH256340   5.270   6.135   2.773 -0.1494 -0.6986 -0.3628
11642TIP3    H156341   5.355   6.091   2.786  0.7640  0.1850 -2.7833
11642TIP3    H256342   5.234   6.094   2.694 -1.4635 -0.2645 -0.0037
11643TIP3   OH256343   6.230   2.668   4.791  0.0928 -0.7873 -0.0896
11643TIP3    H156344   6.240   2.762   4.806  0.3162 -0.8473  0.1519
11643TIP3    H256345   6.176   2.661   4.712 -0.3243 -0.4601  0.1672
11644TIP3   OH256346   2.553   6.270   5.710 -0.6154 -0.1124  0.1732
11644TIP3    H156347   2.541   6.274   5.616  2.1757 -1.6502 -0.3344
11644TIP3    H256348   2.465   6.255   5.745 -1.6542  0.1861 -2.1646
11645TIP3   OH256349   6.183   4.585  14.849 -0.0804 -0.6993  0.2823
11645TIP3    H156350   6.160   4.501  14.890  2.7531 -1.3581  0.7768
11645TIP3    H256351   6.266   4.609  14.890  1.1061  0.4350 -2.5445
11646TIP3   OH256352   4.237   4.888   5.081 -0.0850  0.3262  0.0286
11646TIP3    H156353   4.229   4.892   4.986 -2.2819 -2.2205 -0.0360
11646TIP3    H256354   4.184   4.960   5.113  2.2319  2.4243 -0.5827
11647TIP3   OH256355   0.772   4.132   2.730 -0.3498 -0.2249  0.0944
11647TIP3    H156356   0.860   4.169   2.732 -0.6576  0.5179  0.4118
11647TIP3    H256357   0.768   4.074   2.806 -0.4288  0.4663  0.6304
11648TIP3   OH256358   2.798   0.655   5.400 -0.3572 -0.0388  0.0733
11648TIP3    H156359   2.780   0.620   5.487  0.1398 -0.2626  0.0860
11648TIP3    H256360   2.754   0.740   5.399  0.9371  0.6796  1.1025
11649TIP3   OH256361   0.706   0.102   5.116  0.2512  0.0676 -0.9191
11649TIP3    H156362   0.669   0.074   5.033  1.7992 -0.9052 -1.3075
11649TIP3    H256363   0.647   0.065   5.182 -1.7575  1.9409 -1.5217
11650TIP3   OH256364   0.966   4.825  13.551  0.0100  0.4396  0.1592
11650TIP3    H156365   0.958   4.772  13.472  0.8742 -0.5693  0.7308
11650TIP3    H256366   1.040   4.788  13.598 -0.6845  0.8074  1.6096
11651TIP3   OH256367   2.557   1.214   5.475  0.1533  1.0999  0.3571
11651TIP3    H156368   2.473   1.248   5.505  0.3598  0.5785  1.5665
11651TIP3    H256369   2.584   1.274   5.405 -1.0912  1.4133  0.1254
11652TIP3   OH256370   0.394   1.396  15.096 -0.0030  0.1127  0.2793
11652TIP3    H156371   0.362   1.426  15.011  0.7449  0.8057  0.2239
11652TIP3    H256372   0.480   1.358  15.077 -0.2605 -0.6299  0.5850
11653TIP3   OH256373   2.853   5.873   2.131 -0.9145 -0.2092  0.9463
11653TIP3    H156374   2.883   5.872   2.040 -1.2596  2.2059  0.7415
11653TIP3    H256375   2.924   5.831   2.180 -0.0860 -0.2538 -0.2525
11654TIP3   OH256376   5.705   4.147   3.921 -0.0183  0.4507 -0.4783
11654TIP3    H156377   5.658   4.082   3.973 -0.5132  0.3700 -1.0249
11654TIP3    H256378   5.772   4.181   3.981  0.3033 -0.6180 -0.2090
11655TIP3   OH256379   5.433   0.683  15.716 -0.1034 -0.2717  0.2253
11655TIP3    H156380   5.489   0.653  15.788 -0.4697 -0.7850  0.2944
11655TIP3    H256381   5.421   0.606  15.660  0.3407  0.1669 -0.4999
11656TIP3   OH256382   3.362   4.108   6.142  0.3751  0.1601 -0.2401
11656TIP3    H156383   3.405   4.192   6.124  0.7781  0.2423  1.0385
11656TIP3    H256384   3.269   4.131   6.153  0.7019  0.7159  1.7024
11657TIP3   OH256385   3.114   3.599  14.182 -0.0604 -0.0073  0.2584
11657TIP3    H156386   3.114   3.605  14.086 -0.6788  0.8547  0.3047
11657TIP3    H256387   3.205   3.617  14.206  0.1326 -0.3730 -0.1699
11658TIP3   OH256388   5.779   0.640   2.171 -0.2867  0.2120 -0.7064
11658TIP3    H156389   5.858   0.691   2.151 -0.5602  0.4945 -1.1028
11658TIP3    H256390   5.707   0.700   2.149 -0.6108 -0.2063 -0.7923
11659TIP3   OH256391   4.036   3.357   5.738 -0.3245  0.2651  0.2045
11659TIP3    H156392   4.117   3.314   5.766 -0.4243 -0.7798 -0.9874
11659TIP3    H256393   4.018   3.319   5.652 -2.6547 -0.3421  0.8854
11660TIP3   OH256394   2.703   0.723  13.781 -0.1980 -0.3447 -0.0825
11660TIP3    H156395   2.716   0.765  13.696  0.6122 -0.0374  0.1794
11660TIP3    H256396   2.609   0.729  13.797 -0.2645  0.2086 -0.6438
11661TIP3   OH256397   5.364   6.061   5.435 -0.2675 -0.0032 -0.2557
11661TIP3    H156398   5.296   6.057   5.367 -2.8412  0.3020  2.1441
11661TIP3    H256399   5.372   5.972   5.467 -0.6198  0.2103  0.4459
11662TIP3   OH256400   3.130   5.710  14.076 -0.3823  0.5477  0.2337
11662TIP3    H156401   3.039   5.684  14.091 -1.0691  1.9324 -1.2870
11662TIP3    H256402   3.151   5.676  13.990  0.1528  1.2223  0.0911
11663TIP3   OH256403   4.154   1.690   5.268 -0.0714 -0.0374  0.3906
11663TIP3    H156404   4.228   1.711   5.211  0.4620 -0.9421  0.7280
11663TIP3    H256405   4.146   1.767   5.325  1.0103 -0.1721  0.7530
11664TIP3   OH256406   4.648   0.967  16.193  0.0654  0.5271 -0.3637
11664TIP3    H156407   4.734   0.947  16.228 -0.0906  0.3451 -0.0805
11664TIP3    H256408   4.664   1.029  16.122  0.3023  1.9605  0.8776
11665TIP3   OH256409   0.908   5.884   2.227  0.0575  0.5184 -1.1383
11665TIP3    H156410   0.822   5.846   2.212 -0.4224  0.2717  1.7542
11665TIP3    H256411   0.922   5.877   2.321  2.0962  2.9756 -1.1394
11666TIP3   OH256412   1.698   4.104  11.540 -0.3708  0.0550  0.0446
11666TIP3    H156413   1.782   4.074  11.574 -0.2020 -0.7524 -1.0331
11666TIP3    H256414   1.673   4.176  11.598  0.8107 -0.0281  0.6869
11667TIP3   OH256415   3.807   3.898   6.172 -0.0798 -0.2141  0.3925
11667TIP3    H156416   3.715   3.898   6.201  0.5295  0.9589  2.5452
11667TIP3    H256417   3.857   3.897   6.253  1.8157  1.6646 -0.6705
11668TIP3   OH256418   4.073   6.659  17.114 -0.4546  0.2447 -0.4515
11668TIP3    H156419   4.073   6.678  17.208  1.1692 -0.0790 -0.3585
11668TIP3    H256420   4.075   6.745  17.072 -0.2126  0.3828 -0.1653
11669TIP3   OH256421   1.415   5.417  13.066 -0.4567  0.1988  0.1935
11669TIP3    H156422   1.420   5.326  13.095  0.1307  0.9190  2.5257
11669TIP3    H256423   1.324   5.428  13.038 -0.1487 -1.5114 -1.7820
11670TIP3   OH256424   1.414   3.390  12.734  0.5428  0.3954 -0.6762
11670TIP3    H156425   1.465   3.314  12.761  0.7529  1.0916  1.0269
11670TIP3    H256426   1.475   3.463  12.742 -0.0385  0.9210 -0.9601
11671TIP3   OH256427   3.746   4.536  12.964 -0.0952  0.1611 -0.1523
11671TIP3    H156428   3.676   4.601  12.958 -0.1808 -0.0284 -1.5565
11671TIP3    H256429   3.774   4.522  12.874  0.7981 -0.8120  0.2465
11672TIP3   OH256430   1.615   3.389  11.642 -0.4914  0.0899  0.5981
11672TIP3    H156431   1.583   3.473  11.675  1.9802  1.7489 -0.8746
11672TIP3    H256432   1.575   3.381  11.555  1.2625  1.1578 -0.3803
11673TIP3   OH256433   5.313   3.704  14.002 -0.5352 -0.0825 -0.4788
11673TIP3    H156434   5.263   3.703  14.083  0.2466  0.3080  0.0212
11673TIP3    H256435   5.375   3.776  14.012 -1.1462  0.6847 -1.8781
11674TIP3   OH256436   0.888   4.834   0.947  0.3050 -0.8933 -0.0699
11674TIP3    H156437   0.959   4.881   0.903 -0.2431  1.5497  1.4551
11674TIP3    H256438   0.920   4.817   1.035 -0.6069 -0.6096  0.3381
11675TIP3   OH256439   0.697   3.670  15.087 -0.5430  0.3330 -0.4123
11675TIP3    H156440   0.791   3.684  15.075 -0.7476  0.8025 -1.5887
11675TIP3    H256441   0.688   3.576  15.101  0.3390  0.5478  2.3405
11676TIP3   OH256442   2.029   3.253   1.841  0.1758  0.1153 -0.0363
11676TIP3    H156443   1.940   3.244   1.808  0.0679  0.3214  0.1915
11676TIP3    H256444   2.084   3.241   1.764  0.0789 -2.4761  0.2335
11677TIP3   OH256445   4.469   2.718  15.312 -0.2525  0.1681  0.5222
11677TIP3    H156446   4.376   2.737  15.298 -0.1814  0.6299  0.6769
11677TIP3    H256447   4.486   2.641  15.257  0.0730  2.0678 -2.2076
11678TIP3   OH256448   6.054   0.033  12.544 -0.4935 -0.1872 -0.5134
11678TIP3    H156449   6.108  -0.047  12.548 -0.9255 -0.4527  0.0380
11678TIP3    H256450   6.116   0.102  12.519  0.0738 -0.5216 -0.0482
11679TIP3   OH256451   1.017   6.162   4.769  0.0327  0.0806 -0.3860
11679TIP3    H156452   1.084   6.229   4.755  1.2153 -0.4823  2.0873
11679TIP3    H256453   0.967   6.193   4.844  0.5840 -1.6941  0.8042
11680TIP3   OH256454   1.267   6.179  15.847 -0.2967  0.0609 -0.3637
11680TIP3    H156455   1.215   6.101  15.829  0.3905 -0.4064 -0.3414
11680TIP3    H256456   1.321   6.155  15.922 -0.0376  0.5427 -0.3930
11681TIP3   OH256457   5.489   1.600   6.061 -0.3487  0.3905  0.1634
11681TIP3    H156458   5.581   1.610   6.037 -0.2089  0.0912  0.5596
11681TIP3    H256459   5.481   1.644   6.145 -0.9376  1.8296 -0.6099
11682TIP3   OH256460   1.970   1.378  16.247  0.1374  0.4360 -0.2361
11682TIP3    H156461   1.963   1.321  16.170 -0.1300 -0.5156  0.4821
11682TIP3    H256462   1.890   1.361  16.297  0.7443  0.3493  0.7229
11683TIP3   OH256463   2.727   3.115   3.321 -0.0579  0.3019  0.3597
11683TIP3    H156464   2.786   3.174   3.275  1.0466  1.1190  2.6684
11683TIP3    H256465   2.748   3.028   3.286 -0.0958  0.9918 -1.4503
11684TIP3   OH256466   0.690   3.944  11.109 -0.2350 -0.1482 -0.2403
11684TIP3    H156467   0.720   4.029  11.076  1.7691 -1.0711 -0.9887
11684TIP3    H256468   0.723   3.940  11.199  0.9822 -0.6866 -0.6834
11685TIP3   OH256469   4.561   0.314   0.781  0.1097  0.3595  0.2298
11685TIP3    H156470   4.542   0.387   0.722 -0.3812  0.3356  0.3600
11685TIP3    H256471   4.631   0.347   0.838 -0.1258  0.7336  0.3023
11686TIP3   OH256472   6.261   1.475  11.906 -0.4900 -0.6123 -0.1583
11686TIP3    H156473   6.307   1.449  11.826 -1.1621  0.3944 -0.8889
11686TIP3    H256474   6.323   1.453  11.976  0.6110 -0.4123 -1.0286
11687TIP3   OH256475   2.943   4.329  11.383  0.0910  0.4182 -0.2166
11687TIP3    H156476   2.883   4.285  11.323  1.3495 -0.6677 -0.7383
11687TIP3    H256477   2.948   4.419  11.350  1.6406 -0.4320 -2.5327
11688TIP3   OH256478   1.989   2.075  15.120 -0.0316 -0.1934  0.0146
11688TIP3    H156479   1.969   1.987  15.154  0.0657  0.2118  1.1709
11688TIP3    H256480   2.054   2.110  15.181 -0.8985  1.1091  0.2245
11689TIP3   OH256481   2.810   3.001   4.348  0.1800  0.1451 -0.6513
11689TIP3    H156482   2.772   2.913   4.352  2.7442 -1.0275  0.1665
11689TIP3    H256483   2.802   3.026   4.256  1.1704 -1.8474 -1.3507
11690TIP3   OH256484   0.957   4.750  12.998 -0.0555 -0.3164 -0.1839
11690TIP3    H156485   1.001   4.753  12.913 -1.1867  1.6757 -0.7792
11690TIP3    H256486   1.006   4.685  13.048  1.6336 -0.4037 -1.8161
11691TIP3   OH256487   6.485   6.085  11.082  0.1382 -0.3671  0.1039
11691TIP3    H156488   6.537   6.150  11.130 -1.3377  0.0706  1.1744
11691TIP3    H256489   6.527   6.080  10.996  0.7609  1.4197  0.2591
11692TIP3   OH256490   4.391   1.350  17.022  0.1077 -0.8010 -0.0633
11692TIP3    H156491   4.454   1.282  16.998  1.3617  0.5990 -0.9262
11692TIP3    H256492   4.418   1.427  16.971 -2.9946 -0.4375 -1.3768
11693TIP3   OH256493   1.394   4.393  13.168 -0.2405  0.2321  0.2937
11693TIP3    H156494   1.400   4.310  13.121 -1.6771  0.5707 -0.5463
11693TIP3    H256495   1.464   4.447  13.131 -0.0386 -0.2132  0.0179
11694TIP3   OH256496   5.257   0.766   3.755 -0.3396  0.0635 -0.1123
11694TIP3    H156497   5.321   0.696   3.754 -0.8234 -0.4123 -1.7885
11694TIP3    H256498   5.303   0.841   3.716  0.8755  1.4557  3.5762
11695TIP3   OH256499   3.468   5.182  15.668 -0.3459 -0.5574  0.0025
11695TIP3    H156500   3.503   5.268  15.691  1.6767 -1.2721 -0.1722
11695TIP3    H256501   3.490   5.170  15.576 -0.7203 -1.2170 -0.0143
11696TIP3   OH256502   3.552   2.963   0.046  0.0742  0.4595 -0.5960
11696TIP3    H156503   3.602   2.954   0.127 -0.8738  1.2795  0.1036
11696TIP3    H256504   3.614   2.939  -0.023  1.7482  2.3249  0.1522
11697TIP3   OH256505   2.759   4.116  16.713  1.4173 -0.0214 -0.0876
11697TIP3    H156506   2.814   4.038  16.719  1.4571  0.0754  1.0740
11697TIP3    H256507   2.706   4.114  16.793  0.6250  0.5510 -0.5873
11698TIP3   OH256508   3.645   0.489   1.819 -0.2783  0.5338 -0.2080
11698TIP3    H156509   3.625   0.516   1.729  0.8422  1.3321 -0.2359
11698TIP3    H256510   3.649   0.394   1.815 -1.2634  0.5015 -0.7783
11699TIP3   OH256511   0.433   5.136  13.449 -0.5259  0.2348  0.9288
11699TIP3    H156512   0.526   5.157  13.449 -0.5615  0.5663 -1.0510
11699TIP3    H256513   0.426   5.059  13.505  1.9339 -3.5642 -3.3220
11700TIP3   OH256514   1.376   5.125  12.553  0.1269 -0.3831  0.2439
11700TIP3    H156515   1.384   5.176  12.473  2.0573 -0.0665  0.5844
11700TIP3    H256516   1.460   5.079  12.561 -0.0336 -0.4502  2.0403
11701TIP3   OH256517   5.275   5.806   5.501 -0.3557  0.1502 -0.3549
11701TIP3    H156518   5.236   5.752   5.432 -0.8235 -1.7561  1.2901
11701TIP3    H256519   5.200   5.831   5.556  0.3751 -1.8548  1.7120
11702TIP3   OH256520   4.713   0.436   4.020 -0.8272 -0.1999  0.1860
11702TIP3    H156521   4.629   0.431   4.066 -1.7531  2.4456 -0.9726
11702TIP3    H256522   4.688   0.451   3.929  0.9356 -1.0759 -0.4638
11703TIP3   OH256523   3.933   1.628  16.626  0.2149 -0.0174  0.2322
11703TIP3    H156524   3.897   1.641  16.539  0.0307 -0.5750  0.2223
11703TIP3    H256525   3.922   1.713  16.669  1.4649  0.6434 -0.6840
11704TIP3   OH256526   3.697   6.356   1.800 -0.6127 -0.3055 -0.3791
11704TIP3    H156527   3.784   6.322   1.821 -0.3822 -0.4749 -1.5533
11704TIP3    H256528   3.652   6.360   1.884  0.1998 -1.1491  0.1079
11705TIP3   OH256529   3.116   4.425  15.415  0.0961  0.1799  0.3106
11705TIP3    H156530   3.152   4.438  15.327  1.6269 -0.5745  0.7983
11705TIP3    H256531   3.181   4.465  15.473 -0.4555 -0.1469  1.1579
11706TIP3   OH256532   1.575   0.511   3.627 -0.1332  0.2135 -0.3626
11706TIP3    H156533   1.646   0.468   3.579 -0.9456 -1.3917 -0.1955
11706TIP3    H256534   1.620   0.561   3.696  0.9059  0.5841 -1.2797
11707TIP3   OH256535   0.773   5.477  11.589 -0.0174 -0.5526  0.0335
11707TIP3    H156536   0.736   5.558  11.625 -1.0484 -0.6575 -0.7326
11707TIP3    H256537   0.696   5.424  11.568  0.5872 -0.9344 -1.2986
11708TIP3   OH256538   5.200   5.923   5.086  0.1248  0.2568 -0.1801
11708TIP3    H156539   5.293   5.939   5.100  0.1490  0.4452 -0.5412
11708TIP3    H256540   5.157   5.957   5.164  0.7165 -4.1604  2.4517
11709TIP3   OH256541   6.277   3.783  12.722  0.2579  0.0740  0.0661
11709TIP3    H156542   6.362   3.824  12.736  1.0771 -2.1648  2.2350
11709TIP3    H256543   6.234   3.787  12.807 -1.5703  0.5068 -0.8147
11710TIP3   OH256544   1.951   4.898  12.972  0.3570  0.9268 -0.1356
11710TIP3    H156545   2.011   4.913  12.899  0.6482 -0.2749 -0.1652
11710TIP3    H256546   1.993   4.939  13.047  0.5643  1.2484 -0.4245
11711TIP3   OH256547   0.577   2.424  11.667 -0.6413  0.4661 -0.0195
11711TIP3    H156548   0.532   2.375  11.735 -0.0481  0.9543  0.7473
11711TIP3    H256549   0.588   2.512  11.704 -0.0980  0.6735 -0.6474
11712TIP3   OH256550   5.986   2.274  11.930  0.0561  0.5784 -0.2894
11712TIP3    H156551   5.948   2.318  11.854  0.0141  0.4847 -0.3223
11712TIP3    H256552   6.072   2.245  11.900 -0.7307 -1.2430 -0.9491
11713TIP3   OH256553   5.438   3.762   0.671 -0.4279 -0.2277 -0.5604
11713TIP3    H156554   5.420   3.676   0.634  1.4388 -0.5410 -0.8741
11713TIP3    H256555   5.520   3.750   0.720 -0.9462  1.0167  0.6847
11714TIP3   OH256556   3.738   6.527   1.573 -0.0795 -0.1304 -0.2720
11714TIP3    H156557   3.710   6.602   1.625  0.8076 -0.0883  0.1685
11714TIP3    H256558   3.737   6.453   1.633 -0.0534 -0.2871 -0.4617
11715TIP3   OH256559   0.249   4.621   1.172  0.0038 -0.5000 -0.0052
11715TIP3    H156560   0.192   4.642   1.246  1.3186  1.2127  0.6011
11715TIP3    H256561   0.243   4.526   1.163 -1.3174 -0.5908  1.3525
11716TIP3   OH256562   6.602   0.091   3.307  0.3925  0.4629  0.2224
11716TIP3    H156563   6.556   0.016   3.345 -0.5262  0.5751 -0.6374
11716TIP3    H256564   6.546   0.121   3.236  2.1241  0.1822 -1.3280
11717TIP3   OH256565   5.870   5.432   5.959 -0.1602  0.3359 -0.4192
11717TIP3    H156566   5.775   5.425   5.973  0.1967 -1.5131  1.7607
11717TIP3    H256567   5.890   5.524   5.974 -1.4889  0.5284  0.3646
11718TIP3   OH256568   6.729   6.185   4.998  0.1365  0.1367 -0.4696
11718TIP3    H156569   6.773   6.192   5.082  1.6457 -1.6491 -1.0443
11718TIP3    H256570   6.798   6.192   4.933 -0.8913  0.6318 -1.5574
11719TIP3   OH256571   0.876   3.581  15.741  0.0413 -0.2136 -0.5884
11719TIP3    H156572   0.826   3.545  15.815 -0.2433  0.2752 -0.5357
11719TIP3    H256573   0.894   3.505  15.686 -0.5684 -0.4408 -0.4917
11720TIP3   OH256574   0.937   1.032  14.559 -0.2371  0.2957 -0.1266
11720TIP3    H156575   0.868   1.097  14.552  0.7302  1.1997 -2.1752
11720TIP3    H256576   0.971   1.023  14.470  1.5921 -0.8750  0.6167
11721TIP3   OH256577   5.183   4.348   3.295 -0.7194  0.4896  0.0036
11721TIP3    H156578   5.234   4.315   3.221  2.3106  0.9253  1.6894
11721TIP3    H256579   5.168   4.440   3.273  0.3970  0.6907 -0.0121
11722TIP3   OH256580   0.656   3.213  12.014  0.4351 -0.6725 -0.3574
11722TIP3    H156581   0.699   3.160  12.081  1.9916  1.4026  0.3717
11722TIP3    H256582   0.585   3.157  11.982  0.0375 -2.0134  2.5200
11723TIP3   OH256583   0.290   5.976  16.532 -0.3916 -0.1198 -0.0262
11723TIP3    H156584   0.275   6.021  16.615  0.6277 -1.3620  0.8736
11723TIP3    H256585   0.378   6.004  16.506  0.0168 -1.0891  0.2496
11724TIP3   OH256586   6.429   5.372   5.985  0.1466 -0.6141 -0.1114
11724TIP3    H156587   6.361   5.322   5.940  0.7417 -0.1702 -1.6033
11724TIP3    H256588   6.427   5.458   5.943  1.7267 -0.6543 -0.3286
11725TIP3   OH256589   6.134   5.051   6.288 -0.0901 -0.3552 -0.3522
11725TIP3    H156590   6.093   5.056   6.375  1.8236  3.0833  0.5355
11725TIP3    H256591   6.091   5.120   6.237  1.0670 -0.1140 -1.0370
11726TIP3   OH256592   0.038   6.140  11.585  0.5176 -0.0502 -0.1017
11726TIP3    H156593   0.069   6.084  11.515 -0.6734  0.3951 -1.0242
11726TIP3    H256594  -0.052   6.112  11.601  0.0935  1.2069 -0.1905
11727TIP3   OH256595   0.827   2.204  16.875  0.1102 -0.5408 -0.0435
11727TIP3    H156596   0.908   2.153  16.881  0.0748 -0.7125 -0.8458
11727TIP3    H256597   0.762   2.141  16.842 -1.0130 -1.0920  2.9309
11728TIP3   OH256598   0.129   3.512  11.337  0.4068  0.3530 -0.1932
11728TIP3    H156599   0.217   3.476  11.323  0.5653  1.0204 -0.9609
11728TIP3    H256600   0.092   3.458  11.407  0.5935 -1.4008 -1.3794
11729TIP3   OH256601   5.089   5.251  16.821 -0.3833 -0.1493  0.2974
11729TIP3    H156602   5.157   5.190  16.849 -0.6251 -0.1149  0.9811
11729TIP3    H256603   5.077   5.232  16.728  1.3437  0.5953 -0.1197
11730TIP3   OH256604   6.329   0.915  15.532  0.1589 -0.7386 -0.0416
11730TIP3    H156605   6.311   0.839  15.476  0.6596 -0.2142 -0.9474
11730TIP3    H256606   6.424   0.918  15.538  0.1703  0.1460 -0.5021
11731TIP3   OH256607   4.313   5.061  11.667 -0.8610 -0.5102  0.3395
11731TIP3    H156608   4.365   5.024  11.739 -0.3585  1.8421  1.2893
11731TIP3    H256609   4.369   5.129  11.630 -2.1342  0.0711 -0.5816
11732TIP3   OH256610   1.796   2.045  16.188 -0.2688  0.1426  0.3084
11732TIP3    H156611   1.756   2.013  16.269 -1.0839  0.4243  0.0314
11732TIP3    H256612   1.722   2.066  16.132  0.1437 -3.2196 -1.8382
11733TIP3   OH256613   5.916   4.572  10.642 -0.7889  0.4027  0.4760
11733TIP3    H156614   5.941   4.664  10.650 -0.3600  0.3394 -0.0819
11733TIP3    H256615   5.825   4.574  10.613 -0.2708  0.6783 -1.2156
11734TIP3   OH256616   5.422   2.626  12.085 -0.2747 -0.0559  0.2375
11734TIP3    H156617   5.362   2.553  12.099 -1.3450  0.7567  0.0022
11734TIP3    H256618   5.462   2.609  12.000 -0.8898 -0.1158 -0.0431
11735TIP3   OH256619   6.600   3.605   1.794 -0.5071  0.1204  0.3954
11735TIP3    H156620   6.691   3.599   1.763 -0.0821 -0.0543  1.6201
11735TIP3    H256621   6.569   3.515   1.793 -0.7016  0.1880 -0.0875
11736TIP3   OH256622   1.899   5.827   4.160 -0.0979  0.2241 -0.3360
11736TIP3    H156623   1.897   5.817   4.065 -0.4255  0.3474 -0.3449
11736TIP3    H256624   1.827   5.771   4.191  0.2110 -0.0701 -0.1359
11737TIP3   OH256625   4.610   5.263  12.463 -0.0954  0.5683 -0.7611
11737TIP3    H156626   4.597   5.353  12.431  0.7277  0.6248 -0.9555
11737TIP3    H256627   4.687   5.232  12.416 -0.4589 -0.2992 -0.7975
11738TIP3   OH256628   3.958   2.953   3.886 -0.2646 -0.1265 -0.8904
11738TIP3    H156629   3.999   3.039   3.902 -1.5938  0.4556 -0.4633
11738TIP3    H256630   3.883   2.951   3.945 -0.5705 -1.3742 -1.2918
11739TIP3   OH256631   2.723   6.699  15.309 -0.5126 -0.3685  0.2508
11739TIP3    H156632   2.762   6.669  15.391 -1.7109 -0.6327  0.7418
11739TIP3    H256633   2.748   6.632  15.245  0.6884 -0.0013  0.3052
11740TIP3   OH256634   2.262   0.007  15.539 -0.0079 -0.1488 -0.0221
11740TIP3    H156635   2.217  -0.077  15.530 -0.5204  0.2009 -0.8336
11740TIP3    H256636   2.277   0.016  15.633 -0.3434 -0.9390  0.1174
11741TIP3   OH256637   0.255   5.511  10.656  0.9327 -0.0415  0.6440
11741TIP3    H156638   0.196   5.473  10.721  0.2640 -1.1635 -0.5690
11741TIP3    H256639   0.342   5.500  10.694  0.5378 -0.3945  1.4819
11742TIP3   OH256640   0.961   1.261  13.228 -0.3650  0.2734 -0.1710
11742TIP3    H156641   0.970   1.237  13.136  0.0353  1.3254 -0.4104
11742TIP3    H256642   0.922   1.183  13.269  1.4752 -1.0405 -0.7968
11743TIP3   OH256643   2.061   4.503   4.176  0.2030 -0.2213 -0.2393
11743TIP3    H156644   2.110   4.530   4.098  0.0207  0.0867 -0.2489
11743TIP3    H256645   2.120   4.524   4.249  0.9127 -1.6927 -0.3495
11744TIP3   OH256646   0.399   3.036  13.807 -0.2602  1.0861 -0.2231
11744TIP3    H156647   0.416   2.972  13.877 -0.3721 -0.7008 -1.7299
11744TIP3    H256648   0.313   3.011  13.773  0.8104  0.3304 -2.5490
11745TIP3   OH256649   2.712   4.721  12.232  0.7460  0.1515  0.3890
11745TIP3    H156650   2.646   4.785  12.204  0.0085  0.1468  1.9874
11745TIP3    H256651   2.781   4.773  12.273  0.7928  0.0199  0.4796
11746TIP3   OH256652   5.848   6.028   6.446 -0.0026  0.0564 -0.4259
11746TIP3    H156653   5.755   6.014   6.426 -0.0678 -0.5083  0.2228
11746TIP3    H256654   5.873   5.950   6.495  0.8320  0.1885 -0.6389
11747TIP3   OH256655   0.838   2.609  10.811  0.3057 -0.0034 -0.3089
11747TIP3    H156656   0.821   2.517  10.789  2.1245 -0.4935  0.2199
11747TIP3    H256657   0.884   2.606  10.895 -1.2264  1.5234  0.6715
11748TIP3   OH256658   6.300   6.154   5.651  0.0653 -0.2345  0.6268
11748TIP3    H156659   6.292   6.246   5.626 -0.9417 -0.3185  0.5757
11748TIP3    H256660   6.374   6.121   5.600 -0.1453  0.3181 -0.0546
11749TIP3   OH256661   4.749   3.136   5.853 -0.2886 -0.4538 -0.1654
11749TIP3    H156662   4.697   3.104   5.927 -1.5603 -1.5778 -1.4765
11749TIP3    H256663   4.829   3.082   5.856  0.9314  1.3210  1.8919
11750TIP3   OH256664   1.074   2.259   4.525  0.0268 -0.7653 -0.2258
11750TIP3    H156665   1.107   2.209   4.599 -1.2009 -1.7468 -0.3079
11750TIP3    H256666   1.101   2.208   4.448  2.7338  1.0819 -0.6191
11751TIP3   OH256667   2.798   1.699   4.354 -0.0766 -0.1010 -0.2440
11751TIP3    H156668   2.714   1.700   4.399  0.3519 -0.4036  0.5742
11751TIP3    H256669   2.776   1.704   4.261 -0.9453  3.0710 -0.0026
11752TIP3   OH256670   0.924   6.451  12.067 -0.0476  0.3938 -0.0198
11752TIP3    H156671   0.958   6.534  12.099  2.7577 -0.6808  0.1188
11752TIP3    H256672   0.977   6.432  11.990 -1.1616 -0.9046 -0.5015
11753TIP3   OH256673   0.681   5.784   0.787  0.3040 -0.5210 -0.3780
11753TIP3    H156674   0.641   5.708   0.828 -1.6090 -0.2880 -1.6710
11753TIP3    H256675   0.670   5.854   0.851  0.9106 -1.0202  0.2879
11754TIP3   OH256676   1.530   1.932  14.612 -0.9465  0.1722  0.2027
11754TIP3    H156677   1.562   2.019  14.592  0.9801 -0.8219 -1.3097
11754TIP3    H256678   1.459   1.947  14.675 -0.5452  2.7770  0.1474
11755TIP3   OH256679   1.778   5.793   4.931  0.5336  0.0486  0.2223
11755TIP3    H156680   1.691   5.817   4.962  0.8461  2.7996 -0.7076
11755TIP3    H256681   1.767   5.781   4.836  0.8221 -1.6308  0.3726
11756TIP3   OH256682   2.939   4.866   2.612 -0.6626  0.4703  0.2950
11756TIP3    H156683   2.844   4.853   2.620 -0.6652 -0.6937 -1.2341
11756TIP3    H256684   2.975   4.778   2.607  0.6728  0.8561  2.0388
11757TIP3   OH256685   3.105   6.040  13.893 -0.0995  0.2973  0.1197
11757TIP3    H156686   3.081   5.968  13.950  2.0329 -0.1388  0.5382
11757TIP3    H256687   3.101   6.118  13.949 -1.6328  0.4378 -0.1369
11758TIP3   OH256688   2.139   2.236  13.911  0.0046  0.4855 -0.3784
11758TIP3    H156689   2.096   2.257  13.828 -0.9441  1.1034  0.2477
11758TIP3    H256690   2.084   2.167  13.950 -0.3370  1.1519  0.3487
11759TIP3   OH256691   0.824   5.522  14.360 -0.0505  0.4118  0.5452
11759TIP3    H156692   0.805   5.495  14.450  0.0120  0.1217  0.4720
11759TIP3    H256693   0.835   5.440  14.312 -2.7210  0.4439 -0.2996
11760TIP3   OH256694   1.917   3.091  11.868 -0.4279 -0.3880 -0.0494
11760TIP3    H156695   1.996   3.140  11.843 -1.4982  1.4579  0.0868
11760TIP3    H256696   1.856   3.106  11.796 -1.6472  0.5391  1.1526
11761TIP3   OH256697   2.744   3.824   0.207  0.0392  0.5736 -0.1429
11761TIP3    H156698   2.715   3.758   0.144  0.1327 -0.9602  1.3237
11761TIP3    H256699   2.806   3.778   0.264  1.1256  2.3061  0.1551
11762TIP3   OH256700   6.607   2.850   4.805 -0.0869  0.6638  0.2714
11762TIP3    H156701   6.642   2.765   4.833 -1.4490 -0.5269 -1.4632
11762TIP3    H256702   6.548   2.875   4.876  0.4125  0.2099  0.8595
11763TIP3   OH256703   3.308   1.385  12.498  0.3642  0.4028 -0.2171
11763TIP3    H156704   3.337   1.416  12.584 -0.4211  0.0182  0.2000
11763TIP3    H256705   3.368   1.312  12.478  0.6414  0.5864 -0.0630
11764TIP3   OH256706   6.276   1.857  17.176  0.2980 -0.0403  0.4893
11764TIP3    H156707   6.279   1.771  17.135  0.3632 -0.5450  1.5151
11764TIP3    H256708   6.183   1.879  17.180  0.2091 -0.5137  1.1186
11765TIP3   OH256709   5.493   3.497  13.149 -0.0573 -0.5421 -0.2255
11765TIP3    H156710   5.422   3.433  13.156 -0.1409 -0.4064  0.2001
11765TIP3    H256711   5.483   3.535  13.062 -0.7045 -0.2998 -0.0504
11766TIP3   OH256712   0.686   3.475   0.451 -0.4781 -0.0401 -0.0205
11766TIP3    H156713   0.673   3.483   0.357 -0.6703 -0.6365 -0.0494
11766TIP3    H256714   0.735   3.553   0.476 -0.7688  0.3122 -0.5521
11767TIP3   OH256715   1.350   6.664  14.722  0.5679  0.5515  0.1814
11767TIP3    H156716   1.425   6.717  14.750  0.4314  1.2147 -0.6737
11767TIP3    H256717   1.302   6.646  14.803  2.1778 -0.7565  0.9126
11768TIP3   OH256718   3.143   2.005  11.250  0.3134 -0.2458  0.1494
11768TIP3    H156719   3.099   1.997  11.165  0.2388 -2.9013  0.3843
11768TIP3    H256720   3.224   2.053  11.230 -0.6027  0.9018 -1.0254
11769TIP3   OH256721   6.653   5.790  16.462  0.0176 -0.2743 -0.5914
11769TIP3    H156722   6.659   5.697  16.484  1.4195  0.1933  1.2753
11769TIP3    H256723   6.741   5.813  16.432 -0.6558  0.1954 -2.2805
11770TIP3   OH256724   5.288   5.388  14.221  0.2307 -0.4375  0.1550
11770TIP3    H156725   5.359   5.351  14.169  0.0396  0.7857 -1.0515
11770TIP3    H256726   5.221   5.412  14.156 -0.7800 -0.4869  1.1481
11771TIP3   OH256727   5.511   6.751  13.960 -0.0376 -0.1162 -0.0578
11771TIP3    H156728   5.578   6.796  13.908 -0.1319 -0.1944 -0.2500
11771TIP3    H256729   5.462   6.700  13.896 -0.4982  0.2089  0.0384
11772TIP3   OH256730   5.381   4.088  12.732  0.2476 -0.3637 -0.0357
11772TIP3    H156731   5.344   4.148  12.797  1.1391  1.1227 -0.8428
11772TIP3    H256732   5.305   4.045  12.693 -0.4202  0.2096  0.6037
11773TIP3   OH256733   3.281   1.608  13.411 -0.1975 -0.4033 -0.2910
11773TIP3    H156734   3.319   1.547  13.475  1.9755 -0.2422 -1.3191
11773TIP3    H256735   3.193   1.625  13.444 -0.2263 -2.6210  1.0491
11774TIP3   OH256736   5.680   0.042   5.464  0.3354  0.6509 -0.1671
11774TIP3    H156737   5.691   0.124   5.512  0.2720 -0.4140  1.7872
11774TIP3    H256738   5.763   0.032   5.416  1.3111  0.7663  1.4010
11775TIP3   OH256739   4.561   1.421  14.740 -0.0615 -0.4774 -0.0643
11775TIP3    H156740   4.492   1.487  14.753  0.5359  0.2835 -0.6414
11775TIP3    H256741   4.642   1.471  14.740  0.2218 -0.5873 -4.1637
11776TIP3   OH256742   0.014   4.738  12.993  0.0102  0.4665  0.0825
11776TIP3    H156743   0.031   4.644  12.988  0.9814  0.4519  2.2452
11776TIP3    H256744   0.093   4.779  12.958  0.9261  0.4134  1.9508
11777TIP3   OH256745   0.282   2.816   3.272  0.1017  0.3678 -0.0903
11777TIP3    H156746   0.206   2.868   3.247 -0.8675 -1.3139 -0.8527
11777TIP3    H256747   0.260   2.781   3.358  0.2376  0.3129 -0.0772
11778TIP3   OH256748   4.639   3.856   4.401 -0.1514 -0.2375  0.2934
11778TIP3    H156749   4.649   3.785   4.338  1.8463  0.1845  0.0634
11778TIP3    H256750   4.698   3.924   4.371 -3.7710  2.6924 -0.9067
11779TIP3   OH256751   5.428   0.336  12.623 -0.2088 -0.1643  0.2720
11779TIP3    H156752   5.448   0.265  12.684  1.3603  0.5589  0.6580
11779TIP3    H256753   5.475   0.412  12.659 -0.4301  0.6409 -1.0638
11780TIP3   OH256754   2.829   3.552   2.752 -0.0323  0.0132 -0.3570
11780TIP3    H156755   2.820   3.608   2.675 -1.8782 -2.6766 -2.3060
11780TIP3    H256756   2.777   3.595   2.819 -0.8270  0.9954 -1.5535
11781TIP3   OH256757   3.593   0.316  13.967 -0.5758  0.3399  0.1755
11781TIP3    H156758   3.604   0.402  14.009 -0.3512  0.4971 -0.1961
11781TIP3    H256759   3.513   0.326  13.915 -0.2888  0.4838 -0.2459
11782TIP3   OH256760   6.361   3.319   5.526  0.3962 -0.3244 -0.1275
11782TIP3    H156761   6.407   3.394   5.490  1.0358 -1.5789 -2.1048
11782TIP3    H256762   6.431   3.258   5.551 -0.1226 -0.9481 -0.1610
11783TIP3   OH256763   2.766   4.476   6.401  0.1904 -0.1588 -0.5738
11783TIP3    H156764   2.824   4.535   6.449  0.0643 -0.4454 -0.0628
11783TIP3    H256765   2.679   4.494   6.436 -0.1515  0.7338 -1.7895
11784TIP3   OH256766   5.342   4.091  14.929  0.0350  0.0719 -0.8132
11784TIP3    H156767   5.264   4.104  14.875 -0.0443  0.1617 -0.6766
11784TIP3    H256768   5.308   4.060  15.013  0.0365  1.4349 -0.2836
11785TIP3   OH256769   3.132   1.868  14.440  0.1841  0.2916  0.3470
11785TIP3    H156770   3.116   1.789  14.492 -1.0248 -0.2461 -0.7899
11785TIP3    H256771   3.187   1.923  14.496  0.4479 -1.0426  1.4462
11786TIP3   OH256772   1.310   3.467  14.740 -0.1141  0.7106 -0.3435
11786TIP3    H156773   1.344   3.502  14.822 -1.0114  0.1266  0.2972
11786TIP3    H256774   1.388   3.447  14.688  0.4819  0.7076  0.5330
11787TIP3   OH256775   4.367   1.259  12.114 -0.4401 -0.3732 -0.4570
11787TIP3    H156776   4.306   1.312  12.062  0.5216 -1.2403 -2.6007
11787TIP3    H256777   4.434   1.232  12.051  1.3818 -0.6477  1.4983
11788TIP3   OH256778   5.314   2.836   5.127 -0.6412  0.6818  0.3463
11788TIP3    H156779   5.274   2.919   5.102  0.9685  1.8326  1.3870
11788TIP3    H256780   5.243   2.772   5.121 -1.6195  1.8614 -1.7550
11789TIP3   OH256781   0.004   4.961  17.132  0.4323  0.2434 -0.1122
11789TIP3    H156782  -0.054   4.885  17.135  1.4064 -0.5558 -0.9063
11789TIP3    H256783   0.085   4.928  17.094  1.1384  1.5178  0.2341
11790TIP3   OH256784   3.520   2.601   4.549  0.1625 -0.9595  0.4469
11790TIP3    H156785   3.569   2.533   4.503  0.2472 -0.3718 -0.3526
11790TIP3    H256786   3.440   2.613   4.497  1.2369  1.2238 -0.8594
11791TIP3   OH256787   6.622   6.400   4.893  0.2068  0.4576  0.3584
11791TIP3    H156788   6.653   6.315   4.924  0.7287  0.0464 -1.1976
11791TIP3    H256789   6.671   6.415   4.812  0.6625  2.5914  0.9732
11792TIP3   OH256790   4.744   2.902   0.933  0.5305  0.1571  0.0718
11792TIP3    H156791   4.801   2.839   0.978 -0.1091 -0.4942 -0.0137
11792TIP3    H256792   4.772   2.987   0.966  1.6967 -0.1256 -0.1228
11793TIP3   OH256793   4.293   2.651  17.156  0.0654 -0.1987 -0.2351
11793TIP3    H156794   4.306   2.636  17.250 -0.9501 -1.1646 -0.2388
11793TIP3    H256795   4.367   2.606  17.114 -0.8834 -2.0443 -0.0229
11794TIP3   OH256796   5.874   5.297   4.663 -0.8182 -0.1798 -0.6040
11794TIP3    H156797   5.912   5.330   4.582  1.0595  0.9348  0.6517
11794TIP3    H256798   5.863   5.203   4.647  0.4022 -0.1608 -1.8315
11795TIP3   OH256799   5.480   0.061   4.447  0.3213  0.4150  0.0556
11795TIP3    H156800   5.461   0.154   4.439  0.7305  0.5149  0.2543
11795TIP3    H256801   5.531   0.053   4.528 -2.5608 -0.4207  1.9223
11796TIP3   OH256802   2.689   2.437  12.857  0.1035 -0.1956 -0.0874
11796TIP3    H156803   2.733   2.522  12.857  0.9825 -0.5602 -2.8896
11796TIP3    H256804   2.759   2.373  12.843 -0.7521 -1.2537  0.3105
11797TIP3   OH256805   2.093   2.742   1.162  0.1661  0.3562 -0.1771
11797TIP3    H156806   2.157   2.734   1.091  0.2168 -0.2534 -0.0668
11797TIP3    H256807   2.145   2.738   1.242  0.0385  0.3107 -0.0961
11798TIP3   OH256808   5.093   3.229  11.840  0.1210 -0.2663  0.7239
11798TIP3    H156809   5.091   3.324  11.851  1.2894 -0.0925 -0.2436
11798TIP3    H256810   5.075   3.216  11.747 -1.4531 -1.1041  1.1186
11799TIP3   OH256811   0.951   5.024   2.249  0.4105 -0.4665  0.3797
11799TIP3    H156812   0.960   4.962   2.321  0.2049  1.1963  1.9337
11799TIP3    H256813   0.869   5.070   2.268 -0.1735 -0.6405 -1.4936
11800TIP3   OH256814   5.811   3.005   5.712  0.4829 -0.2936 -0.0030
11800TIP3    H156815   5.755   2.942   5.667  1.2569 -1.4862  0.6346
11800TIP3    H256816   5.758   3.084   5.719 -0.3831 -0.7482 -1.1553
11801TIP3   OH256817   6.744   2.014  17.003  0.1322  0.3901 -0.1704
11801TIP3    H156818   6.661   2.039  17.045  0.2647  0.6526 -0.0628
11801TIP3    H256819   6.810   2.066  17.049  0.6650 -1.4981  1.3234
11802TIP3   OH256820   3.767   2.058   5.090 -0.3422 -0.5022  0.6977
11802TIP3    H156821   3.823   1.983   5.076 -1.7913 -1.5105  0.0414
11802TIP3    H256822   3.719   2.038   5.170 -0.2696  0.0239  0.8788
11803TIP3   OH256823   4.898   1.906  15.506 -0.1096 -0.7557  0.4554
11803TIP3    H156824   4.943   1.883  15.587  0.0927 -0.7991  0.3308
11803TIP3    H256825   4.885   2.001  15.512 -0.5000 -0.8241  0.7447
11804TIP3   OH256826   5.445   4.349   4.152  0.3794  0.2721 -0.0121
11804TIP3    H156827   5.510   4.345   4.222  0.0040 -2.6032  0.2868
11804TIP3    H256828   5.361   4.337   4.197 -0.1112  0.9385 -0.7247
11805TIP3   OH256829   3.692   2.960   4.895 -0.9703 -0.0505 -0.3547
11805TIP3    H156830   3.667   2.965   4.988  1.8261  0.4340  0.4698
11805TIP3    H256831   3.718   3.050   4.873 -1.0871 -0.2802 -1.4473
11806TIP3   OH256832   6.365   5.119  12.840  0.0992  0.0717  0.2505
11806TIP3    H156833   6.291   5.175  12.864 -1.3497 -1.1038 -1.2508
11806TIP3    H256834   6.411   5.168  12.772 -1.4659 -0.6803 -1.4352
11807TIP3   OH256835   6.255   2.093   5.686 -0.1774 -0.4326 -0.5543
11807TIP3    H156836   6.236   2.004   5.715 -0.8006 -0.2197 -0.3080
11807TIP3    H256837   6.185   2.146   5.723  1.3486  0.5289  1.1591
11808TIP3   OH256838   3.671   0.515   0.276  0.0951 -0.1294  0.4767
11808TIP3    H156839   3.598   0.553   0.325 -1.0634  0.2534 -1.4572
11808TIP3    H256840   3.749   0.558   0.311 -0.9494  2.2458  0.0400
11809TIP3   OH256841   3.793   5.864   3.733  0.0890 -0.0842  0.5051
11809TIP3    H156842   3.719   5.845   3.791 -0.3021  0.3951  0.1688
11809TIP3    H256843   3.870   5.841   3.785 -0.3028 -3.3242 -0.1134
11810TIP3   OH256844   6.657   3.572  14.652 -0.2262  0.4662 -0.4410
11810TIP3    H156845   6.647   3.644  14.714  0.9699 -1.2780  1.9012
11810TIP3    H256846   6.751   3.567  14.635 -0.3993  0.0699 -1.3913
11811TIP3   OH256847   0.112   5.842  16.352 -0.4391  0.2080 -0.5401
11811TIP3    H156848   0.155   5.814  16.271 -0.6579  2.3636 -1.4657
11811TIP3    H256849   0.185   5.862  16.411 -0.2684 -0.8557 -0.3791
11812TIP3   OH256850   0.753   5.541   4.653 -0.0112 -0.1991  0.0405
11812TIP3    H156851   0.662   5.511   4.659  0.9833 -3.4841  0.7758
11812TIP3    H256852   0.763   5.603   4.725 -1.4455 -0.3991  0.4380
11813TIP3   OH256853   3.889   1.805  14.613  0.2368  0.1550  0.0022
11813TIP3    H156854   3.942   1.881  14.635  2.1608 -0.6474 -1.5522
11813TIP3    H256855   3.801   1.840  14.600  0.6506  1.7743  1.2317
11814TIP3   OH256856   4.208   4.260   4.831  0.7306 -0.0968  0.1050
11814TIP3    H156857   4.174   4.261   4.921  0.3107 -1.0971 -0.0261
11814TIP3    H256858   4.248   4.346   4.820 -0.7484  0.7169  0.6637
11815TIP3   OH256859   4.359   4.762  11.860 -0.2681 -0.3230  0.8340
11815TIP3    H156860   4.407   4.843  11.879  0.3283 -0.2125 -0.9234
11815TIP3    H256861   4.420   4.692  11.883 -0.6557 -0.2910  2.0268
11816TIP3   OH256862   4.747   3.010   4.425  0.2535  0.3754 -0.2986
11816TIP3    H156863   4.768   2.997   4.517 -0.6892 -0.6506 -0.2110
11816TIP3    H256864   4.697   3.091   4.423 -1.7290 -0.7697  0.4427
11817TIP3   OH256865   2.189   5.264   0.898 -0.1887 -0.2997  0.7412
11817TIP3    H156866   2.178   5.220   0.814 -1.0683 -1.9262  1.6640
11817TIP3    H256867   2.282   5.256   0.918 -0.0719 -0.3729  0.1745
11818TIP3   OH256868   4.940   1.654   3.623 -0.0252  0.3589 -0.2193
11818TIP3    H156869   4.963   1.613   3.539  0.6556  0.3228 -0.0238
11818TIP3    H256870   4.959   1.586   3.688  2.2017  1.2942  0.2265
11819TIP3   OH256871   4.535   3.664  17.157  0.1957  0.0895  0.1890
11819TIP3    H156872   4.466   3.598  17.147  0.9766 -0.8008  0.4930
11819TIP3    H256873   4.617   3.614  17.153  0.8439  1.1538 -0.4454
11820TIP3   OH256874   5.885   3.387  14.411 -0.0324  0.2558 -0.3298
11820TIP3    H156875   5.919   3.473  14.388 -1.3041  1.0384  0.5755
11820TIP3    H256876   5.791   3.400  14.421 -0.3110 -1.3497 -0.6169
11821TIP3   OH256877   4.327   0.114  14.167  0.0111 -0.5134 -1.3441
11821TIP3    H156878   4.403   0.154  14.208 -0.5533  0.4384 -1.2028
11821TIP3    H256879   4.289   0.183  14.112 -2.3272 -0.0463  0.6864
11822TIP3   OH256880   1.363   6.476   1.424 -0.0204  0.8934 -0.2113
11822TIP3    H156881   1.355   6.381   1.434  1.7217  0.6403 -0.8942
11822TIP3    H256882   1.403   6.488   1.338  2.2886  2.0772  0.9230
11823TIP3   OH256883   4.891   6.178  10.801 -0.3858 -0.1425  0.2137
11823TIP3    H156884   4.839   6.251  10.768  0.1451  0.3517  0.4487
11823TIP3    H256885   4.840   6.143  10.875 -0.1125  0.7287  0.8341
11824TIP3   OH256886   3.633   5.404  14.268 -0.3379 -0.2108  0.3172
11824TIP3    H156887   3.692   5.478  14.256 -0.0507 -0.5666 -0.4914
11824TIP3    H256888   3.575   5.407  14.191 -0.1483 -0.9869  0.1393
11825TIP3   OH256889   2.596   2.439   5.853 -0.2392  0.0353  0.1076
11825TIP3    H156890   2.523   2.471   5.905 -0.4828  3.0409 -1.8854
11825TIP3    H256891   2.557   2.383   5.787 -0.9097  1.9580 -1.2086
11826TIP3   OH256892   1.278   4.671   5.475  0.4311 -0.4329  0.3766
11826TIP3    H156893   1.340   4.739   5.502 -0.3548 -0.1624  1.6027
11826TIP3    H256894   1.193   4.703   5.506  0.2111 -2.5814  2.2573
11827TIP3   OH256895   0.807   4.741  16.687 -0.1395 -0.4820 -0.0814
11827TIP3    H156896   0.836   4.650  16.692  1.4291 -0.0887 -1.3833
11827TIP3    H256897   0.846   4.782  16.764  0.8920 -0.4584 -0.6118
11828TIP3   OH256898   4.379   5.251  12.781 -0.1964 -0.5516  0.0602
11828TIP3    H156899   4.419   5.220  12.699 -0.2312  0.8539 -0.5315
11828TIP3    H256900   4.291   5.280  12.755 -0.9605 -1.9352  1.0054
11829TIP3   OH256901   4.093   3.539  14.474 -0.7653  0.2212  0.2399
11829TIP3    H156902   4.102   3.498  14.560 -1.5980  1.1828  0.8103
11829TIP3    H256903   4.000   3.529  14.453 -0.4607 -0.5247 -0.8291
11830TIP3   OH256904   3.890   5.441   4.574  0.0931  0.5144  0.3624
11830TIP3    H156905   3.871   5.511   4.637  0.7609  0.1549  0.9833
11830TIP3    H256906   3.956   5.477   4.516 -1.1110  1.1357 -0.6765
11831TIP3   OH256907   4.280   0.983  11.162  0.4799 -0.2508  0.0447
11831TIP3    H156908   4.225   1.052  11.126 -0.8133 -1.1069  0.3011
11831TIP3    H256909   4.362   1.027  11.185 -0.3753  1.2368  0.3932
11832TIP3   OH256910   5.933   4.971  17.035  0.6587 -0.1697  0.1949
11832TIP3    H156911   5.982   4.969  16.952  2.0751  0.4059  0.9803
11832TIP3    H256912   5.917   5.063  17.051 -0.5660 -0.3445  0.0434
11833TIP3   OH256913   5.889   4.093   1.191  0.1270 -0.2311 -0.1429
11833TIP3    H156914   5.804   4.133   1.172 -0.6432 -0.9556  1.5661
11833TIP3    H256915   5.882   4.004   1.156 -0.5344 -0.8858  1.5346
11834TIP3   OH256916   1.033   4.489  14.774 -0.1943  0.4962 -0.5752
11834TIP3    H156917   0.995   4.562  14.822 -0.2816 -0.0300  0.1722
11834TIP3    H256918   1.054   4.424  14.841  2.7783  1.0594 -0.8419
11835TIP3   OH256919   0.572   5.477  12.208 -0.1947 -0.2605  0.0399
11835TIP3    H156920   0.526   5.507  12.129 -3.0034 -2.0175  0.8506
11835TIP3    H256921   0.593   5.385  12.190  0.5380 -0.2514  0.7752
11836TIP3   OH256922   6.738   6.218   2.300 -0.5120  0.0044  0.4875
11836TIP3    H156923   6.746   6.135   2.347 -0.0705 -0.0254  0.3570
11836TIP3    H256924   6.784   6.204   2.217 -1.6021 -0.0661 -0.1236
11837TIP3   OH256925   4.937   3.692  14.251 -0.2932  0.0733 -0.4422
11837TIP3    H156926   4.880   3.624  14.215  0.5684 -1.3574  0.7663
11837TIP3    H256927   4.889   3.725  14.328  0.5463 -1.3186  0.7333
11838TIP3   OH256928   4.824   3.987   0.468 -0.0075  0.6437  0.5093
11838TIP3    H156929   4.788   4.046   0.402  1.8200  2.6666  1.2095
11838TIP3    H256930   4.906   3.955   0.429 -0.1848 -0.1862  0.7967
11839TIP3   OH256931   2.966   1.713  12.214  0.1085  0.3714 -0.5846
11839TIP3    H156932   2.914   1.636  12.194  0.3089  0.3579 -1.0559
11839TIP3    H256933   2.953   1.727  12.308  0.9428 -0.8936 -0.2571
11840TIP3   OH256934   2.176   5.817   4.230 -0.0288 -0.0414  0.3304
11840TIP3    H156935   2.087   5.803   4.198 -0.3915  1.5575  0.5233
11840TIP3    H256936   2.172   5.792   4.322  0.5792 -2.9996 -0.3528
11841TIP3   OH256937   6.065   6.341   2.024 -0.2895  0.0667  0.4734
11841TIP3    H156938   6.045   6.285   2.099 -2.0918 -1.3421 -0.9506
11841TIP3    H256939   6.020   6.423   2.043  1.7486  0.8578  2.2378
11842TIP3   OH256940   2.947   0.968   4.228  0.6749 -0.2521 -0.5581
11842TIP3    H156941   2.888   0.914   4.281 -0.5042  1.2962 -0.2251
11842TIP3    H256942   2.893   0.998   4.155  0.9671  1.3731 -0.1312
11843TIP3   OH256943   3.817   1.029   2.791  0.4209 -0.8606  0.3664
11843TIP3    H156944   3.871   1.036   2.712 -0.2831  0.4477 -0.0357
11843TIP3    H256945   3.752   1.099   2.782  0.6644 -0.2922  2.3690
11844TIP3   OH256946   1.849   1.740   0.991 -0.4208 -0.6837  0.3821
11844TIP3    H156947   1.803   1.780   1.064  2.0521  2.3629  0.4772
11844TIP3    H256948   1.815   1.785   0.914  0.4672 -0.2725  0.2130
11845TIP3   OH256949   0.534   0.192   2.229 -0.7405 -0.1772  0.3533
11845TIP3    H156950   0.494   0.111   2.196 -0.2250  1.1265 -4.0866
11845TIP3    H256951   0.460   0.247   2.255 -1.2771 -0.9428  0.4765
11846TIP3   OH256952   2.366   6.350  12.796  0.1735 -0.1572  0.8454
11846TIP3    H156953   2.366   6.444  12.781  0.5841  0.0498  2.0176
11846TIP3    H256954   2.297   6.316  12.740  1.7036  0.4853 -1.5921
11847TIP3   OH256955   4.865   4.717   2.598 -0.3899 -0.2555  0.1685
11847TIP3    H156956   4.854   4.753   2.686 -0.9959 -0.6837  0.2744
11847TIP3    H256957   4.911   4.786   2.550 -0.5380  0.2033  0.6713
11848TIP3   OH256958   5.926   1.294  17.055  0.1936 -0.2107  0.1266
11848TIP3    H156959   5.894   1.217  17.101 -0.5309  0.4186  0.6950
11848TIP3    H256960   5.999   1.326  17.108 -0.3357  0.2367  0.5986
11849TIP3   OH256961   0.629   3.900  17.149 -0.3319  0.2496  0.0174
11849TIP3    H156962   0.569   3.886  17.222 -0.8079  3.5894  0.3996
11849TIP3    H256963   0.696   3.958  17.184 -0.1249  1.2874 -1.9737
11850TIP3   OH256964   2.141   6.235  15.399  0.6785 -0.3538  0.3836
11850TIP3    H156965   2.107   6.146  15.388 -0.0319 -0.0136 -0.3736
11850TIP3    H256966   2.220   6.237  15.346 -0.8034  0.2276 -1.9873
11851TIP3   OH256967   5.201   2.283  14.028 -0.4159 -0.3454 -0.3877
11851TIP3    H156968   5.281   2.235  14.049 -0.4337 -1.5982 -2.8442
11851TIP3    H256969   5.184   2.336  14.106  1.4835 -1.7963  1.1259
11852TIP3   OH256970   3.004   4.722   1.589 -0.7751  0.6496 -0.2835
11852TIP3    H156971   3.044   4.761   1.511  0.5613  1.3027  0.6852
11852TIP3    H256972   3.072   4.728   1.656 -1.7410 -0.3017  0.8209
11853TIP3   OH256973   4.854   6.661   5.237  0.2838 -0.2355  0.0914
11853TIP3    H156974   4.877   6.729   5.173  1.6582 -0.9750 -0.2512
11853TIP3    H256975   4.921   6.667   5.304 -1.2454  0.6410  1.6121
11854TIP3   OH256976   2.768   0.314  13.548  0.0030 -0.4152 -0.0645
11854TIP3    H156977   2.775   0.313  13.452  3.3528  2.0277 -0.0220
11854TIP3    H256978   2.831   0.249  13.577  0.8048  0.5405  0.4134
11855TIP3   OH256979   5.502   5.252   5.342  0.2796  0.4274 -0.0806
11855TIP3    H156980   5.411   5.239   5.371  0.4383 -1.7976 -0.3896
11855TIP3    H256981   5.505   5.342   5.311 -1.3560  1.1176  1.5749
11856TIP3   OH256982   3.320   4.058   1.049 -0.0442 -0.0704 -0.4672
11856TIP3    H156983   3.291   4.148   1.060  2.4770  0.5656  2.0868
11856TIP3    H256984   3.377   4.060   0.972  0.8433  0.8251  0.1788
11857TIP3   OH256985   6.519   6.527  14.590 -0.0088  0.7022 -0.3972
11857TIP3    H156986   6.547   6.568  14.508 -0.5898 -1.9992 -2.0654
11857TIP3    H256987   6.601   6.510  14.637  0.3145  2.4666 -0.2682
11858TIP3   OH256988   3.879   5.741   1.673  0.4033 -0.2705  0.1945
11858TIP3    H156989   3.926   5.671   1.718  1.6800 -1.1396 -2.3139
11858TIP3    H256990   3.943   5.812   1.667  0.7057 -0.6277 -1.2546
11859TIP3   OH256991   2.663   3.449   5.337 -0.4832  0.0688 -0.3910
11859TIP3    H156992   2.660   3.455   5.433  0.2499 -1.2994 -0.2485
11859TIP3    H256993   2.646   3.357   5.319  1.7652 -0.2219 -1.4127
11860TIP3   OH256994   0.607   5.860  14.189  0.4223 -0.0863 -0.4231
11860TIP3    H156995   0.634   5.933  14.244  3.3617 -0.2177 -1.4944
11860TIP3    H256996   0.572   5.795  14.249 -3.2874  2.4319  0.4837
11861TIP3   OH256997   5.125   3.429  14.720  0.6042  0.1204 -0.4995
11861TIP3    H156998   5.117   3.524  14.720  1.7774  0.2348 -0.5713
11861TIP3    H256999   5.201   3.412  14.664  0.7833 -0.8255  0.0164
11862TIP3   OH257000   5.033   6.424  14.440  0.6819 -0.4512 -0.3137
11862TIP3    H157001   5.057   6.480  14.514  1.7494 -0.3495 -0.7197
11862TIP3    H257002   5.069   6.469  14.364  2.1318 -1.9789 -0.5962
11863TIP3   OH257003   5.046   2.926   6.211  0.2766  0.0015 -0.0189
11863TIP3    H157004   5.028   2.843   6.256  1.0301 -0.3510 -0.3439
11863TIP3    H257005   5.127   2.957   6.249  0.4856  0.1173 -0.5461
11864TIP3   OH257006   4.898   3.460   6.526 -0.1592  0.3040 -0.3258
11864TIP3    H157007   4.843   3.507   6.464 -1.7499  0.4511  1.1439
11864TIP3    H257008   4.855   3.376   6.538  0.7548 -0.1701 -0.2620
11865TIP3   OH257009   4.455   4.942  13.552  0.0874 -0.1270 -0.4555
11865TIP3    H157010   4.457   4.880  13.625  2.1090 -1.4805 -1.5785
11865TIP3    H257011   4.524   5.005  13.571 -1.0186  1.0075 -0.0287
11866TIP3   OH257012   0.108   2.509   3.758  0.5825 -0.1114 -0.6317
11866TIP3    H157013   0.181   2.454   3.728  1.7661  1.2462 -0.3530
11866TIP3    H257014   0.107   2.498   3.853  0.3768 -0.1645 -0.6390
11867TIP3   OH257015   4.290   2.300  16.438  0.3312  0.6578  0.2291
11867TIP3    H157016   4.303   2.248  16.359  0.4609  0.7778  0.1709
11867TIP3    H257017   4.197   2.294  16.456  0.3264  0.5057  0.1513
11868TIP3   OH257018   0.827   5.142  17.122  0.3183  0.2708  0.1076
11868TIP3    H157019   0.742   5.170  17.157  0.0539  0.9277 -0.9944
11868TIP3    H257020   0.807   5.106  17.036  1.2567  1.4182 -0.6257
11869TIP3   OH257021   3.941   3.126  11.316 -0.3262  0.1046  0.3035
11869TIP3    H157022   3.878   3.148  11.247 -0.3323 -2.7971 -0.7599
11869TIP3    H257023   3.947   3.030  11.313  2.7175  0.1412  1.6519
11870TIP3   OH257024   5.334   4.237  11.597 -0.1769 -0.3872 -0.7201
11870TIP3    H157025   5.298   4.177  11.662 -0.0034  0.9773  0.6871
11870TIP3    H257026   5.258   4.263  11.545 -0.5678 -0.4443 -0.1877
11871TIP3   OH257027   2.204   4.808   1.586  0.0720  0.1500  0.2019
11871TIP3    H157028   2.269   4.821   1.517 -0.8308 -2.4044 -1.2597
11871TIP3    H257029   2.204   4.714   1.601 -0.9753  0.4594  2.5438
11872TIP3   OH257030   2.948   0.729  12.977  0.7617  0.2198 -0.4746
11872TIP3    H157031   2.910   0.716  13.064  0.0193  1.0572 -0.6600
11872TIP3    H257032   3.033   0.687  12.982  1.6351  2.0265  1.3204
11873TIP3   OH257033   3.980   2.734   3.145 -0.1069  0.6514 -0.6263
11873TIP3    H157034   3.920   2.684   3.090 -0.0962  0.9393 -0.9002
11873TIP3    H257035   3.953   2.825   3.135  1.6791  1.0697 -2.4730
11874TIP3   OH257036   2.546   2.917  15.386  0.2433 -0.4796  0.5319
11874TIP3    H157037   2.597   2.850  15.431  0.6091  0.6914  1.9413
11874TIP3    H257038   2.455   2.898  15.410  0.2599 -0.9339  0.2561
11875TIP3   OH257039   0.067   6.121   4.416 -0.3716  0.4577  0.2257
11875TIP3    H157040  -0.006   6.143   4.474 -1.2908 -0.6619 -0.4441
11875TIP3    H257041   0.074   6.025   4.423  1.7728  0.6164  1.1075
11876TIP3   OH257042   2.216   3.057   1.138 -0.5347  0.0190 -0.0526
11876TIP3    H157043   2.284   3.125   1.142 -0.1624 -0.2985 -0.7694
11876TIP3    H257044   2.166   3.069   1.219 -1.6460  2.3743 -0.9739
11877TIP3   OH257045   1.413   0.282  12.448  0.2298 -0.2760  0.3648
11877TIP3    H157046   1.369   0.269  12.532 -1.7085 -0.3662 -0.6116
11877TIP3    H257047   1.406   0.376  12.432  1.1710 -0.1610  0.5834
11878TIP3   OH257048   4.788   6.602  12.132  0.2673  0.9805  0.0312
11878TIP3    H157049   4.864   6.590  12.189 -0.4767 -1.5543  0.6280
11878TIP3    H257050   4.745   6.680  12.164  0.2376 -0.0013  2.5769
11879TIP3   OH257051   5.489   0.638   1.868 -0.2959 -0.1487 -0.2716
11879TIP3    H157052   5.548   0.591   1.927 -1.7231  0.3550  1.6344
11879TIP3    H257053   5.546   0.670   1.798  1.6555  0.0549  1.3241
11880TIP3   OH257054   5.770   3.609   4.663  0.1113 -0.1873  0.1753
11880TIP3    H157055   5.817   3.532   4.696 -1.2944 -1.1323  0.0727
11880TIP3    H257056   5.703   3.572   4.605 -0.8696  1.0931  0.4672
11881TIP3   OH257057   5.391   5.306   4.827 -0.4251  0.9463 -0.5128
11881TIP3    H157058   5.343   5.388   4.811  0.8383  1.6051 -1.0179
11881TIP3    H257059   5.474   5.317   4.781 -0.1524 -0.5512 -0.4139
11882TIP3   OH257060   2.028   4.042  15.572 -0.0530  0.0095  0.4739
11882TIP3    H157061   1.998   4.072  15.657  0.5557  1.7211  0.1306
11882TIP3    H257062   2.065   3.955  15.588 -2.2630 -0.8033  1.4475
11883TIP3   OH257063   4.264   4.639   0.050  0.1022  0.1584 -0.0573
11883TIP3    H157064   4.355   4.616   0.031  1.2929  2.3552  2.4079
11883TIP3    H257065   4.214   4.560   0.026  2.5944 -1.0758 -1.5903
11884TIP3   OH257066   6.186   0.258  17.073 -0.6105 -0.1844  0.2444
11884TIP3    H157067   6.127   0.286  17.002 -0.1867 -0.2058 -0.1223
11884TIP3    H257068   6.190   0.162  17.063 -0.4501 -0.1747  0.2171
11885TIP3   OH257069   4.953   0.815  13.176  0.1140  0.0108 -0.0769
11885TIP3    H157070   4.859   0.800  13.181  0.3991 -1.6673  2.7831
11885TIP3    H257071   4.975   0.859  13.259  1.7980  0.8284 -0.8943
11886TIP3   OH257072   4.631   5.476   3.684  0.0907  0.5318 -0.7229
11886TIP3    H157073   4.612   5.444   3.596 -1.4895  0.4106 -0.3679
11886TIP3    H257074   4.587   5.561   3.688 -1.5194 -0.3080  0.5598
11887TIP3   OH257075   2.409   0.767  15.952 -0.2082  0.1671  0.2014
11887TIP3    H157076   2.470   0.696  15.934 -0.2062 -0.3305  2.0596
11887TIP3    H257077   2.322   0.730  15.934 -0.1237  0.1562 -0.1960
11888TIP3   OH257078   2.611   0.967  11.406 -0.4487  0.0250  0.0939
11888TIP3    H157079   2.645   0.962  11.316 -0.9821 -1.8940 -0.0370
11888TIP3    H257080   2.628   1.058  11.432  1.8946  0.0098 -1.0783
11889TIP3   OH257081   6.028   1.851  16.962 -0.3050  0.0303 -0.3994
11889TIP3    H157082   5.986   1.769  16.938  1.2425 -0.9373  0.0768
11889TIP3    H257083   5.966   1.893  17.021 -0.0919 -2.0228  1.4237
11890TIP3   OH257084   5.779   3.855   1.098  0.2883  0.3264  0.4672
11890TIP3    H157085   5.684   3.868   1.101  0.1851  0.0286 -0.8284
11890TIP3    H257086   5.797   3.830   1.007  1.5515 -0.0853  0.8060
11891TIP3   OH257087   2.448   4.244  13.878  0.0792  0.4579  0.0084
11891TIP3    H157088   2.405   4.329  13.870  0.5338  0.8145  1.1749
11891TIP3    H257089   2.497   4.249  13.960 -1.0607 -1.4391  0.8824
11892TIP3   OH257090   6.736   6.759  11.142 -0.7197 -0.4686  0.3660
11892TIP3    H157091   6.672   6.729  11.077 -0.1863 -0.5426 -0.1407
11892TIP3    H257092   6.729   6.854  11.142 -1.7880 -0.5294  1.3229
11893TIP3   OH257093   5.070   4.332   1.390 -0.2673 -0.1731 -0.0760
11893TIP3    H157094   5.101   4.374   1.309 -1.4175 -0.6948 -0.8094
11893TIP3    H257095   4.975   4.330   1.381 -0.3593 -1.0048  0.9235
11894TIP3   OH257096   3.950   4.948   5.340  0.0604 -0.5374 -0.3763
11894TIP3    H157097   3.877   4.890   5.360 -0.1386  0.0295  0.5822
11894TIP3    H257098   3.992   4.965   5.425  0.2547  0.5357 -0.6686
11895TIP3   OH257099   6.208   5.428  13.791  0.0798 -0.2612 -0.0388
11895TIP3    H157100   6.268   5.456  13.861 -1.9667 -0.6254  1.9800
11895TIP3    H257101   6.265   5.413  13.715  2.2671  1.2951  1.1753
11896TIP3   OH257102   4.460   4.721  14.371  0.4775 -0.1784 -0.4138
11896TIP3    H157103   4.387   4.745  14.428  0.2323 -0.9325 -0.4001
11896TIP3    H257104   4.418   4.691  14.290  0.7913 -0.1360 -0.5918
11897TIP3   OH257105   6.172   3.395  16.804 -0.0961  0.3342 -0.2934
11897TIP3    H157106   6.115   3.436  16.739  0.2932  0.9242 -0.2734
11897TIP3    H257107   6.241   3.460  16.819 -0.5300  0.4732  1.1988
11898TIP3   OH257108   2.746   1.754   0.657  0.1305  0.4869 -0.1217
11898TIP3    H157109   2.683   1.687   0.681 -1.0873  1.5818 -0.1559
11898TIP3    H257110   2.756   1.745   0.563  0.4953 -0.0737 -0.0341
11899TIP3   OH257111   6.475   2.268  10.927  0.1166  0.4025  0.5307
11899TIP3    H157112   6.529   2.331  10.976  0.8846 -0.3800  0.7245
11899TIP3    H257113   6.504   2.183  10.960 -1.4745 -0.0315  0.8516
11900TIP3   OH257114   2.122   0.177  16.918 -0.1128  0.3645  0.4406
11900TIP3    H157115   2.102   0.181  16.824 -0.0528 -0.9993  0.3390
11900TIP3    H257116   2.061   0.239  16.958 -1.6112 -0.5604 -0.3085
11901TIP3   OH257117   0.259   4.494   0.052  0.2931  0.2467  0.1934
11901TIP3    H157118   0.301   4.520  -0.030  0.0882  0.3475  0.1209
11901TIP3    H257119   0.327   4.506   0.118  0.5365 -0.0631  0.0048
11902TIP3   OH257120   4.214   5.757  11.608 -0.0708 -0.9541  0.1204
11902TIP3    H157121   4.267   5.726  11.682 -2.5480 -0.4934  2.2427
11902TIP3    H257122   4.228   5.692  11.539  2.6427 -1.1921  0.7755
11903TIP3   OH257123   2.960   4.209   3.850 -0.0924 -0.3393 -0.2245
11903TIP3    H157124   2.968   4.128   3.800  4.1923 -0.4748  0.2402
11903TIP3    H257125   2.920   4.182   3.933 -0.1635 -1.6494 -0.6645
11904TIP3   OH257126   0.776   6.184   1.127  0.2112  0.0787 -0.1013
11904TIP3    H157127   0.787   6.189   1.221  0.5658 -2.0037  0.0267
11904TIP3    H257128   0.861   6.208   1.091 -0.1314  1.6076  0.0363
11905TIP3   OH257129   1.013   4.208   4.494  0.1213  0.3579 -0.0750
11905TIP3    H157130   1.072   4.272   4.455  0.0781  0.4371 -0.0107
11905TIP3    H257131   1.064   4.168   4.564 -1.0227  3.0199  2.5321
11906TIP3   OH257132   4.670   3.094   5.569  0.1613 -0.0920 -0.6986
11906TIP3    H157133   4.616   3.021   5.600 -0.4287  0.1846 -1.0377
11906TIP3    H257134   4.702   3.137   5.648 -0.1157 -0.2689 -0.4907
11907TIP3   OH257135   2.932   3.944  13.850 -0.3348  0.2203 -0.4054
11907TIP3    H157136   2.965   4.024  13.810  3.2699  0.5723  2.7049
11907TIP3    H257137   2.873   3.973  13.919  0.1366  0.1869  0.0217
11908TIP3   OH257138   1.448   4.878  12.297  0.3758 -0.0205  0.6148
11908TIP3    H157139   1.399   4.827  12.361  0.3936  0.1374  0.7562
11908TIP3    H257140   1.539   4.873  12.327  0.3570  0.2204  0.7168
11909TIP3   OH257141   2.708   0.749   2.395  0.0466 -0.6557  0.4812
11909TIP3    H157142   2.716   0.674   2.336 -1.8643 -3.1949  3.1711
11909TIP3    H257143   2.793   0.793   2.389  0.5145 -1.7086 -2.8060
11910TIP3   OH257144   1.746   0.721   6.433 -0.0722 -0.3649  0.2787
11910TIP3    H157145   1.718   0.632   6.455 -0.1940 -0.3384  0.2362
11910TIP3    H257146   1.668   0.774   6.447 -0.2117 -0.3762 -0.3900
11911TIP3   OH257147   4.346   0.826  14.796  0.7815  0.4524 -0.3473
11911TIP3    H157148   4.288   0.774  14.852  1.1906  0.2906 -0.0647
11911TIP3    H257149   4.295   0.903  14.772 -0.1024 -0.4139 -1.3537
11912TIP3   OH257150   0.966   0.957   4.013 -0.1811 -0.3152 -0.1388
11912TIP3    H157151   1.035   0.939   3.949 -1.5066 -0.3724 -1.6217
11912TIP3    H257152   1.010   1.000   4.086  1.3823 -0.2200 -1.1082
11913TIP3   OH257153   4.174   0.319  17.051 -0.0155  0.0319 -0.0196
11913TIP3    H157154   4.159   0.244  17.110  0.0922 -1.1928 -1.4895
11913TIP3    H257155   4.086   0.344  17.023 -0.0905  0.8230  0.8702
11914TIP3   OH257156   2.818   6.329   5.800 -0.5050 -0.4119 -0.2293
11914TIP3    H157157   2.737   6.328   5.748 -0.8172  4.3956 -0.2314
11914TIP3    H257158   2.788   6.331   5.891 -0.4687  1.2982 -0.2288
11915TIP3   OH257159   3.909   0.522   5.813  0.5239 -0.2289  0.1259
11915TIP3    H157160   3.927   0.433   5.782 -0.0285  0.5869 -2.8343
11915TIP3    H257161   3.943   0.523   5.903  1.0666 -3.2269  0.0668
11916TIP3   OH257162   2.421   0.091  14.190  0.1912  0.1160  0.5649
11916TIP3    H157163   2.353   0.130  14.246 -0.0401 -1.6356  1.5860
11916TIP3    H257164   2.373   0.040  14.126  0.3886  3.0812 -2.2210
11917TIP3   OH257165   4.730   0.066  10.997  0.2896 -0.3198  0.2108
11917TIP3    H157166   4.685   0.105  10.921  1.5465 -0.8558 -0.8475
11917TIP3    H257167   4.771  -0.013  10.962 -0.4910 -1.5044  1.8476
11918TIP3   OH257168   3.367   6.788   3.943  0.1837  0.0513 -0.1973
11918TIP3    H157169   3.355   6.882   3.954 -1.3927 -0.0408 -0.8118
11918TIP3    H257170   3.409   6.779   3.857 -2.1176  0.1508 -1.4322
11919TIP3   OH257171   5.397   4.506  15.153  0.1306 -0.6275  0.2570
11919TIP3    H157172   5.404   4.601  15.163 -0.5956 -0.5095 -0.2062
11919TIP3    H257173   5.487   4.474  15.155  0.4693  0.2050 -0.7826
11920TIP3   OH257174   0.856   0.745   4.316  0.2097 -1.2803  0.2400
11920TIP3    H157175   0.951   0.739   4.308  0.4059  1.4852 -0.4119
11920TIP3    H257176   0.840   0.752   4.410  0.6221 -1.7660  0.3530
11921TIP3   OH257177   4.447   2.667   5.793 -0.1652  0.2075 -0.4313
11921TIP3    H157178   4.405   2.583   5.777  0.0511 -0.4778  2.0973
11921TIP3    H257179   4.541   2.649   5.781 -0.2688  1.0107 -3.1875
11922TIP3   OH257180   3.342   4.768  12.348  0.5993  0.4931 -0.4610
11922TIP3    H157181   3.314   4.846  12.300  0.2733 -0.0336 -1.1363
11922TIP3    H257182   3.312   4.783  12.437 -0.5751  0.5966 -0.8527
11923TIP3   OH257183   3.409   2.359   3.196 -0.1985 -0.7137  0.2607
11923TIP3    H157184   3.367   2.311   3.124 -1.6693  0.3075  0.3961
11923TIP3    H257185   3.357   2.336   3.273  0.0862 -0.1561  0.6189
11924TIP3   OH257186   6.709   1.470   1.126  0.3860  0.0099 -0.0927
11924TIP3    H157187   6.671   1.541   1.074  1.5691  0.9527  0.2531
11924TIP3    H257188   6.637   1.410   1.143 -0.9425  1.7042  0.5513
11925TIP3   OH257189   4.229   2.959  13.410  0.8211 -0.0546 -0.0484
11925TIP3    H157190   4.137   2.972  13.435  0.4938 -1.2683 -0.5424
11925TIP3    H257191   4.265   2.905  13.481  1.9225  2.5868  1.5446
11926TIP3   OH257192   3.958   0.319  14.450  0.7682  0.0259 -0.2811
11926TIP3    H157193   3.927   0.366  14.373 -0.5308 -0.9450 -0.3777
11926TIP3    H257194   3.888   0.330  14.514  1.4318  0.0553  0.4568
11927TIP3   OH257195   0.991   0.124   6.161 -0.1097  0.0377 -0.1746
11927TIP3    H157196   0.981   0.177   6.240 -0.6305 -2.6403  1.6744
11927TIP3    H257197   0.919   0.062   6.164 -0.5706  0.2844 -3.1944
11928TIP3   OH257198   4.056   1.552  17.149 -0.2321  0.4027  0.0583
11928TIP3    H157199   4.038   1.643  17.173  0.3951  0.6762 -0.4997
11928TIP3    H257200   4.065   1.553  17.054  0.5504 -0.0973  0.1159
11929TIP3   OH257201   3.458   5.186   4.294  0.6004  0.0134 -0.0164
11929TIP3    H157202   3.503   5.262   4.333 -1.5267  1.2869  0.1301
11929TIP3    H257203   3.393   5.224   4.235 -0.2920 -1.7258 -0.2225
11930TIP3   OH257204   1.190   0.826   3.363 -0.1992  0.5412  0.2609
11930TIP3    H157205   1.095   0.841   3.362 -0.1740  0.6872  0.1427
11930TIP3    H257206   1.215   0.837   3.455 -0.2926  0.5289  0.2880
11931TIP3   OH257207   3.038   2.002   3.430  0.0779  0.3273  0.4194
11931TIP3    H157208   2.991   2.036   3.506  0.6282 -2.8527  2.3142
11931TIP3    H257209   2.995   1.920   3.409  0.9078  0.3886 -1.8267
11932TIP3   OH257210   2.027   3.718  17.157  0.0971  0.5828  0.2196
11932TIP3    H157211   2.098   3.730  17.094 -0.4818  1.9267 -0.2037
11932TIP3    H257212   2.071   3.719  17.242  0.6562  0.8102 -0.0609
11933TIP3   OH257213   3.939   1.170   1.635 -0.0223  0.3206 -0.1318
11933TIP3    H157214   4.020   1.155   1.683  0.7857  4.7258  0.2575
11933TIP3    H257215   3.873   1.184   1.703 -0.5363 -0.5103 -0.4423
11934TIP3   OH257216   1.547   3.477   2.191 -0.3973  0.1251  0.0416
11934TIP3    H157217   1.514   3.559   2.226  0.1405  0.0684  0.7075
11934TIP3    H257218   1.474   3.416   2.197 -0.2158  0.0240  1.4005
11935TIP3   OH257219   6.755   4.425   0.934  0.1021 -0.1214 -0.2966
11935TIP3    H157220   6.743   4.516   0.962  1.1513 -0.6156  1.9686
11935TIP3    H257221   6.841   4.424   0.892  0.1922 -0.0839 -0.1176
11936TIP3   OH257222   2.277   4.951  16.274 -0.2319  0.2711  0.3604
11936TIP3    H157223   2.257   4.984  16.362  0.0747  1.5499 -0.0397
11936TIP3    H257224   2.351   5.003  16.244 -0.1130 -0.3829 -0.5388
11937TIP3   OH257225   5.361   2.626  14.195  0.5686 -0.3409 -0.8573
11937TIP3    H157226   5.305   2.584  14.260  0.2718 -1.7595 -1.9687
11937TIP3    H257227   5.391   2.707  14.237 -1.7903  0.1623  0.0258
11938TIP3   OH257228   6.412   3.562   5.620 -0.2804  0.4413  0.8581
11938TIP3    H157229   6.427   3.565   5.714 -1.9497 -0.9931  1.2242
11938TIP3    H257230   6.324   3.524   5.611  0.5162 -1.0875 -1.2989
11939TIP3   OH257231   3.510   4.243  14.945  0.5842 -0.2302 -0.1156
11939TIP3    H157232   3.505   4.240  14.849 -2.7215  0.5318 -0.0835
11939TIP3    H257233   3.484   4.333  14.968  0.0697 -0.7479  1.4972
11940TIP3   OH257234   4.723   5.070  16.697  0.2729  0.1439 -0.2532
11940TIP3    H157235   4.695   5.032  16.780 -0.5571 -0.5757 -0.8434
11940TIP3    H257236   4.811   5.036  16.683 -0.0558 -0.7200 -0.2581
11941TIP3   OH257237   6.100   5.422   1.965  0.6968  0.0961  0.9230
11941TIP3    H157238   6.099   5.406   1.870  1.0274 -1.3516  1.1543
11941TIP3    H257239   6.072   5.514   1.973  0.4996  0.1963 -0.5609
11942TIP3   OH257240   0.360   5.733  15.578  0.1279 -0.5273 -0.0941
11942TIP3    H157241   0.384   5.776  15.496  0.0943  0.0633  0.2063
11942TIP3    H257242   0.320   5.650  15.550 -1.7428  0.5488 -0.7542
11943TIP3   OH257243   2.885   4.002  15.808  0.3084 -0.6617  0.2544
11943TIP3    H157244   2.797   4.023  15.839 -0.0352 -0.5108 -0.7655
11943TIP3    H257245   2.931   4.085  15.809 -0.0443 -0.4388 -0.6592
11944TIP3   OH257246   0.857   4.964  14.195 -0.1179 -0.3492  0.1330
11944TIP3    H157247   0.793   4.909  14.150 -0.3682  0.8298 -1.0221
11944TIP3    H257248   0.942   4.928  14.169 -0.1952  1.0337 -2.4322
11945TIP3   OH257249   4.828   4.756   2.867 -0.0338  0.2753 -0.2118
11945TIP3    H157250   4.868   4.681   2.911  0.6492  0.5344 -0.3807
11945TIP3    H257251   4.739   4.761   2.903 -0.1864 -0.7782 -0.3879
11946TIP3   OH257252   5.126   3.809   5.599 -0.5767 -0.3623 -0.1790
11946TIP3    H157253   5.080   3.863   5.535  0.2622 -0.0688 -0.5411
11946TIP3    H257254   5.188   3.868   5.642 -0.1958 -0.8549 -0.0301
11947TIP3   OH257255   4.860   4.458  13.220  0.0124 -0.0285  0.2934
11947TIP3    H157256   4.933   4.519  13.229  0.0724  0.4948 -2.6675
11947TIP3    H257257   4.782   4.510  13.238  0.1404  0.6370 -0.9974
11948TIP3   OH257258   6.715   1.614   0.372  0.4005  0.1876 -0.1807
11948TIP3    H157259   6.766   1.554   0.316 -1.4652  0.0313 -1.8093
11948TIP3    H257260   6.749   1.598   0.460  2.5622 -0.5103 -1.0607
11949TIP3   OH257261   4.801   6.545   1.927  0.0854 -0.2864 -0.5256
11949TIP3    H157262   4.721   6.570   1.881  0.3498 -0.7628 -1.2517
11949TIP3    H257263   4.867   6.606   1.897  0.4420 -1.0726 -1.3834
11950TIP3   OH257264   3.881   2.623   1.373 -0.1313  0.0082 -0.1094
11950TIP3    H157265   3.942   2.697   1.367  0.1961 -0.1832  0.7431
11950TIP3    H257266   3.934   2.551   1.408 -0.9619  0.0019  1.2074
11951TIP3   OH257267   4.406   5.625  15.352  0.1273  0.0023  0.2018
11951TIP3    H157268   4.327   5.616  15.405  0.6985 -0.1162  1.0390
11951TIP3    H257269   4.459   5.549  15.375  0.8631  0.5370  0.2834
11952TIP3   OH257270   4.555   4.027  12.320 -0.4476  0.7083  0.0677
11952TIP3    H157271   4.649   4.043  12.328 -0.2969  0.1638 -0.5013
11952TIP3    H257272   4.541   3.944  12.367 -0.9743  1.7230  1.7806
11953TIP3   OH257273   5.957   6.357   1.294 -0.0668  0.4387 -0.6305
11953TIP3    H157274   5.952   6.268   1.262 -0.9167  0.1715  0.1983
11953TIP3    H257275   5.974   6.410   1.217  1.9314 -0.5620 -0.9547
11954TIP3   OH257276   3.152   5.408  10.746  0.8336  0.5657 -0.0964
11954TIP3    H157277   3.057   5.398  10.758  0.8549  1.2175  0.7419
11954TIP3    H257278   3.182   5.323  10.715  0.3241 -0.4262  1.9829
11955TIP3   OH257279   6.143   6.788   2.495  0.2238 -0.1528  0.4654
11955TIP3    H157280   6.137   6.700   2.457 -0.7167  0.1371 -0.0759
11955TIP3    H257281   6.104   6.779   2.582  0.0115 -0.2422  0.3611
11956TIP3   OH257282   4.735   1.963  11.375 -0.1877  0.0190  0.1876
11956TIP3    H157283   4.764   2.018  11.303 -1.4914 -0.9420 -1.1222
11956TIP3    H257284   4.653   2.003  11.405 -0.5877 -0.5868 -0.0745
11957TIP3   OH257285   0.093   3.739  16.585  0.8956 -0.4615 -0.2285
11957TIP3    H157286   0.012   3.774  16.549  0.4337 -0.2767  0.9509
11957TIP3    H257287   0.136   3.697  16.510  0.3699  0.6100 -1.1563
11958TIP3   OH257288   5.483   6.357   1.075 -0.2185 -0.5323  0.4440
11958TIP3    H157289   5.404   6.376   1.026  0.6860  2.8641  0.0661
11958TIP3    H257290   5.532   6.296   1.019 -1.7230 -1.3000 -0.1007
11959TIP3   OH257291   4.918   1.806   4.259 -0.1228 -0.1083 -0.2549
11959TIP3    H157292   4.944   1.781   4.171  2.1226  0.6874  0.1190
11959TIP3    H257293   4.917   1.902   4.257 -1.3391 -0.0812  0.2804
11960TIP3   OH257294   0.758   2.283  12.762  0.2738 -0.2059  0.0497
11960TIP3    H157295   0.733   2.221  12.693 -0.6967 -1.6664  1.6489
11960TIP3    H257296   0.694   2.355  12.754  0.4065 -0.1659 -0.7856
11961TIP3   OH257297   3.340   6.225  17.070 -0.3326  0.6719  0.2017
11961TIP3    H157298   3.325   6.204  17.162  1.1959 -2.4988 -0.1631
11961TIP3    H257299   3.344   6.141  17.026  1.7388  1.9576 -2.3477
11962TIP3   OH257300   4.158   0.307  12.367 -0.0377  0.3020 -0.0428
11962TIP3    H157301   4.188   0.310  12.276  0.5433 -1.5058  0.0484
11962TIP3    H257302   4.067   0.336  12.363 -0.0704  0.0908 -1.2269
11963TIP3   OH257303   1.955   0.678  17.136  0.2072  0.7128  0.5958
11963TIP3    H157304   1.998   0.756  17.101 -0.1214  1.3657  1.6168
11963TIP3    H257305   1.905   0.644  17.062  0.1683  1.6088  0.1952
11964TIP3   OH257306   5.620   2.788  13.542  0.3675  0.5141  0.5604
11964TIP3    H157307   5.686   2.760  13.478  0.4559  0.6664  0.5855
11964TIP3    H257308   5.577   2.706  13.569  0.0008  0.4963 -0.0552
11965TIP3   OH257309   1.348   6.289   1.172 -0.0101 -0.1999  0.4308
11965TIP3    H157310   1.335   6.219   1.235  2.7324  0.8509  2.3301
11965TIP3    H257311   1.411   6.254   1.109 -1.9582 -0.8790 -1.2503
11966TIP3   OH257312   4.173   2.326   5.958  0.4138  0.5233  0.3643
11966TIP3    H157313   4.208   2.243   5.992 -0.9406 -0.1768  0.1067
11966TIP3    H257314   4.128   2.301   5.877  0.2968  1.5745  0.0995
11967TIP3   OH257315   2.910   5.192  14.730 -0.2051 -0.2841 -0.4066
11967TIP3    H157316   2.899   5.271  14.677 -0.4390 -0.0888 -0.0686
11967TIP3    H257317   2.879   5.121  14.674  2.1527 -0.4477 -1.6057
11968TIP3   OH257318   3.586   0.929   1.986  0.1440  0.0106  0.4139
11968TIP3    H157319   3.520   0.889   2.043 -0.0789 -0.8063 -0.3858
11968TIP3    H257320   3.655   0.863   1.980  0.0175 -0.0573 -0.5061
11969TIP3   OH257321   6.548   4.405  12.897  0.3183 -0.8874  0.5166
11969TIP3    H157322   6.509   4.402  12.984 -0.5581 -1.4877  0.1175
11969TIP3    H257323   6.582   4.494  12.889  1.3655 -1.1213  1.8611
11970TIP3   OH257324   3.690   5.139   1.217 -0.3151  0.2785 -0.3184
11970TIP3    H157325   3.602   5.138   1.253  0.1854  1.3332  0.9958
11970TIP3    H257326   3.677   5.131   1.122 -1.7813 -0.0207 -0.1124
11971TIP3   OH257327   2.002   2.207  12.820 -0.4646  0.8380 -0.5177
11971TIP3    H157328   1.980   2.284  12.767  1.1997  2.5289  1.0868
11971TIP3    H257329   1.972   2.230  12.908  0.5747 -0.0837  0.1027
11972TIP3   OH257330   2.435   3.686  13.556  0.1170 -0.4032 -0.2109
11972TIP3    H157331   2.414   3.757  13.617  0.2277 -0.8978  0.4273
11972TIP3    H257332   2.370   3.618  13.576  0.7481 -0.9487  0.0250
11973TIP3   OH257333   5.411   0.484  17.014 -0.5186 -0.5691  0.1003
11973TIP3    H157334   5.414   0.412  16.951 -0.1755  0.5346 -1.2089
11973TIP3    H257335   5.329   0.471  17.061 -1.1651 -1.0222 -1.1016
11974TIP3   OH257336   4.674   4.405   5.139  0.1412 -0.5581 -0.6370
11974TIP3    H157337   4.591   4.393   5.093 -0.0550  0.5582 -0.5984
11974TIP3    H257338   4.728   4.456   5.078  0.0892  0.4206  0.1095
11975TIP3   OH257339   2.271   5.316  14.333 -0.4691 -0.1989 -0.4935
11975TIP3    H157340   2.247   5.233  14.292  2.5513 -2.7564  2.3825
11975TIP3    H257341   2.197   5.336  14.391 -0.9593 -1.1989 -0.7520
11976TIP3   OH257342   4.270   4.439   5.939  0.3344  0.0481  0.0304
11976TIP3    H157343   4.223   4.356   5.948  2.2361 -0.8392  2.8083
11976TIP3    H257344   4.307   4.436   5.850 -1.2170 -1.1294 -0.6270
11977TIP3   OH257345   4.555   2.843  15.539  0.3902 -0.8464  0.0666
11977TIP3    H157346   4.651   2.840  15.529  0.2895 -1.5244 -0.8936
11977TIP3    H257347   4.522   2.828  15.450 -0.6033  1.4220  0.0063
11978TIP3   OH257348   2.732   0.437   4.176 -0.1033  0.5231 -0.2391
11978TIP3    H157349   2.721   0.343   4.159 -0.7429  0.3876  0.7962
11978TIP3    H257350   2.790   0.468   4.106 -0.9977 -0.3599 -1.4072
11979TIP3   OH257351   4.908   3.869   4.016 -0.5846  0.1388  0.7774
11979TIP3    H157352   4.974   3.844   4.080  0.8634  2.3134  0.2416
11979TIP3    H257353   4.946   3.848   3.931 -0.2529  1.9497  0.4338
11980TIP3   OH257354   6.781   3.348  14.188  0.1760  0.3375  0.6010
11980TIP3    H157355   6.738   3.361  14.273  1.2891  3.2580  0.8262
11980TIP3    H257356   6.830   3.267  14.198 -0.6331  0.0139  2.3429
11981TIP3   OH257357   3.402   4.331  14.161  0.2829  0.4533  0.0067
11981TIP3    H157358   3.334   4.388  14.126  1.8549  1.2965 -1.8633
11981TIP3    H257359   3.484   4.367  14.127  1.5727 -1.2851  1.0791
11982TIP3   OH257360   5.615   2.772  11.624  0.1704 -0.0494  0.6754
11982TIP3    H157361   5.697   2.814  11.648  0.9839 -0.9705 -0.3980
11982TIP3    H257362   5.625   2.749  11.531 -0.6581 -1.6184  0.9317
11983TIP3   OH257363   3.492   1.629  11.488  0.3780  0.3874 -0.5248
11983TIP3    H157364   3.557   1.559  11.496  1.0466  1.0123 -0.4915
11983TIP3    H257365   3.502   1.661  11.399  0.8030  1.1493 -0.2088
11984TIP3   OH257366   0.060   6.356   5.919 -0.0259  0.1109 -0.2671
11984TIP3    H157367   0.073   6.320   6.007 -1.9006 -0.1796 -0.0646
11984TIP3    H257368  -0.024   6.319   5.891 -0.4913  1.8853 -1.3148
11985TIP3   OH257369   6.036   0.326  16.228  0.5557 -0.0246  0.1173
11985TIP3    H157370   5.951   0.283  16.223  0.4565  0.0063  1.2906
11985TIP3    H257371   6.066   0.330  16.137 -1.4774  1.5925 -0.5361
11986TIP3   OH257372   2.480   4.795   2.809 -0.1490  0.1777  0.1304
11986TIP3    H157373   2.470   4.888   2.786 -0.2573  0.5214  1.4741
11986TIP3    H257374   2.484   4.795   2.904 -2.8908 -1.4362  0.3628
11987TIP3   OH257375   5.701   3.484   5.904 -0.9974 -0.4440  0.0461
11987TIP3    H157376   5.696   3.565   5.854 -0.3148 -0.5589 -0.2200
11987TIP3    H257377   5.666   3.506   5.991 -1.5407 -0.0717 -0.2612
11988TIP3   OH257378   0.499   4.423   4.676  0.2816 -0.3031 -0.2734
11988TIP3    H157379   0.594   4.413   4.679  0.2996 -0.0418  0.0786
11988TIP3    H257380   0.470   4.404   4.765 -0.0735 -1.1204 -0.5578
11989TIP3   OH257381   0.466   3.572  12.989  0.1451 -0.0710 -0.0301
11989TIP3    H157382   0.427   3.618  12.915  0.0872  0.2669  0.2091
11989TIP3    H257383   0.415   3.492  12.998  1.9985 -1.6476 -2.2663
11990TIP3   OH257384   1.531   2.893  13.789 -0.5586 -0.5039 -0.1650
11990TIP3    H157385   1.526   2.986  13.811  0.0848 -0.8591  1.6178
11990TIP3    H257386   1.569   2.892  13.701  0.7099  0.9048  0.3162
11991TIP3   OH257387   1.793   5.607  12.342  0.2327  0.3533  0.1596
11991TIP3    H157388   1.768   5.662  12.416  1.7926  0.7401  0.4319
11991TIP3    H257389   1.881   5.577  12.363  0.1975 -0.6005 -0.9435
11992TIP3   OH257390   3.439   3.761  12.031 -0.0546 -0.1159  0.0485
11992TIP3    H157391   3.428   3.847  12.071 -0.2086 -0.6025  1.0929
11992TIP3    H257392   3.520   3.768  11.980  0.1205  0.5399  0.4051
11993TIP3   OH257393   6.749   5.960  13.257 -0.7159 -0.1722 -0.6227
11993TIP3    H157394   6.710   5.875  13.276 -2.2419  0.9488  1.7529
11993TIP3    H257395   6.683   6.006  13.204 -1.2990  0.5926  0.7192
11994TIP3   OH257396   4.153   6.695   1.413  0.6596  0.1313 -0.0681
11994TIP3    H157397   4.210   6.721   1.341  0.5137 -1.0480 -0.6273
11994TIP3    H257398   4.071   6.740   1.396 -0.0237 -1.6084 -1.7510
11995TIP3   OH257399   3.371   6.291  14.793  0.2508  0.0345  0.1036
11995TIP3    H157400   3.424   6.366  14.767  0.4207 -0.1172  0.0076
11995TIP3    H257401   3.388   6.225  14.726  0.0562 -0.0678  0.1547
11996TIP3   OH257402   4.367   5.036  11.091 -0.1860  0.1586 -0.0311
11996TIP3    H157403   4.340   4.987  11.169 -2.2823 -0.1213 -0.8561
11996TIP3    H257404   4.329   4.987  11.018  2.3066  0.0321 -1.3304
11997TIP3   OH257405   0.419   4.010  15.433  0.0847 -0.0155  0.2971
11997TIP3    H157406   0.494   4.068  15.426  0.6813 -0.5508  1.8426
11997TIP3    H257407   0.450   3.926  15.400 -0.5540  0.2992 -1.2205
11998TIP3   OH257408   5.667   4.404   1.557  0.3407 -0.3112  0.1362
11998TIP3    H157409   5.706   4.333   1.507  1.1876 -0.2035  0.6223
11998TIP3    H257410   5.669   4.479   1.497  0.0643 -0.5259 -0.1442
11999TIP3   OH257411   5.433   0.190   4.138  0.6488  0.8126  0.1964
11999TIP3    H157412   5.474   0.109   4.107 -2.5183 -0.5811 -0.7253
11999TIP3    H257413   5.387   0.166   4.218 -1.5779  1.2092 -0.8753
12000TIP3   OH257414   0.513   4.467   4.977 -0.1620 -0.1279 -0.5078
12000TIP3    H157415   0.479   4.547   5.017 -0.4698  1.9110 -4.3343
12000TIP3    H257416   0.600   4.455   5.016 -1.3423  0.1605  2.4169
12001TIP3   OH257417   6.785   3.771   2.521 -0.4505  0.2012 -0.4227
12001TIP3    H157418   6.765   3.700   2.460  0.6182  1.2541 -2.1213
12001TIP3    H257419   6.875   3.796   2.499  0.4813 -0.1686  2.5007
12002TIP3   OH257420   1.592   3.124   3.608 -0.3215  0.3215  0.0409
12002TIP3    H157421   1.601   3.135   3.703  0.2298 -1.8629  0.2882
12002TIP3    H257422   1.502   3.097   3.595 -0.4958  0.9585 -0.1131
12003TIP3   OH257423   0.136   6.517  12.949 -0.8870  0.0736 -0.0303
12003TIP3    H157424   0.163   6.474  13.031 -1.2767 -0.0069  0.0558
12003TIP3    H257425   0.084   6.592  12.977 -1.2317 -0.0973 -0.2117
12004TIP3   OH257426   1.293   5.979  13.964 -0.3295 -0.1770 -0.3457
12004TIP3    H157427   1.332   5.900  13.926  0.8778  0.8254 -1.2594
12004TIP3    H257428   1.224   6.003  13.901 -1.5167 -1.1241  0.5323
12005TIP3   OH257429   4.434   3.019  16.382 -0.1691  0.1475  0.2519
12005TIP3    H157430   4.422   2.939  16.433 -0.4770  0.9361  1.4744
12005TIP3    H257431   4.348   3.061  16.383 -0.0266  0.4611 -0.4154
12006TIP3   OH257432   5.429   5.242   3.451  0.1598 -0.0831 -0.2091
12006TIP3    H157433   5.344   5.206   3.473 -0.3989  1.2998 -0.0443
12006TIP3    H257434   5.423   5.335   3.471  1.4974  0.1668 -0.8024
12007TIP3   OH257435   5.852   0.630   5.658  0.1017 -0.1418  0.6266
12007TIP3    H157436   5.948   0.629   5.663  0.2044 -1.9444 -0.6832
12007TIP3    H257437   5.823   0.595   5.742  0.5302  1.1488  1.3432
12008TIP3   OH257438   5.234   1.001  11.863  0.0453  0.2319  0.4752
12008TIP3    H157439   5.157   1.036  11.817  0.9055  0.6608 -0.6742
12008TIP3    H257440   5.218   1.023  11.955 -0.8056  1.0765  0.1459
12009TIP3   OH257441   1.329   2.210   5.353 -0.3331  0.0164 -0.5373
12009TIP3    H157442   1.402   2.233   5.411  0.2854  0.0603 -1.3209
12009TIP3    H257443   1.359   2.132   5.306 -0.2225  0.8472 -1.8835
12010TIP3   OH257444   6.101   0.602  11.685  0.3498  0.1051  0.1305
12010TIP3    H157445   6.058   0.517  11.698 -0.4457  0.4222 -0.3374
12010TIP3    H257446   6.175   0.601  11.745 -0.3888 -0.4123  1.0660
12011TIP3   OH257447   2.623   6.528  16.539  0.2148 -0.3204  0.2283
12011TIP3    H157448   2.679   6.500  16.467 -0.2941  2.1348 -1.2419
12011TIP3    H257449   2.535   6.529  16.501 -0.7704 -2.8776  2.1284
12012TIP3   OH257450   2.327   0.832  12.071 -0.3636  0.3706 -0.0943
12012TIP3    H157451   2.326   0.810  12.165 -0.5576  2.3207  0.3966
12012TIP3    H257452   2.414   0.805  12.042 -0.7970 -1.6153  0.2543
12013TIP3   OH257453   1.504   0.382   2.241 -0.4048 -0.0824 -0.3636
12013TIP3    H157454   1.579   0.429   2.278 -1.7663  1.1564  0.9967
12013TIP3    H257455   1.429   0.440   2.258 -1.5361 -0.7484 -2.6602
12014TIP3   OH257456   6.620   1.610   5.062 -0.1640  0.2790  0.6566
12014TIP3    H157457   6.707   1.648   5.050 -0.7911  1.5335 -0.1895
12014TIP3    H257458   6.619   1.533   5.005  0.7249 -0.3535  1.4687
12015TIP3   OH257459   4.021   4.289  14.998  0.0938  0.2266  0.3166
12015TIP3    H157460   4.013   4.228  14.925  1.5148 -0.3401  0.6058
12015TIP3    H257461   4.088   4.250  15.054  1.7405  2.4746  0.0540
12016TIP3   OH257462   1.840   2.583   5.201  0.4395  1.0754 -0.1197
12016TIP3    H157463   1.816   2.585   5.294 -0.0527  0.8960 -0.2400
12016TIP3    H257464   1.904   2.654   5.191 -2.0652  3.4880 -0.3422
12017TIP3   OH257465   1.716   5.460  10.711 -0.3049 -0.2906  0.0283
12017TIP3    H157466   1.643   5.470  10.772  0.1635  0.1362  0.5281
12017TIP3    H257467   1.675   5.454  10.625 -1.0135 -1.4509  0.4179
12018TIP3   OH257468   2.210   5.036  16.590  0.3268  0.0105  0.1903
12018TIP3    H157469   2.202   5.131  16.603  0.2269  0.0830 -0.3600
12018TIP3    H257470   2.122   5.002  16.604 -0.0478  0.2398 -1.4250
12019TIP3   OH257471   1.263   1.735  13.447  0.7897 -0.4743  0.0176
12019TIP3    H157472   1.190   1.795  13.429  0.7767 -0.2145  0.8837
12019TIP3    H257473   1.339   1.777  13.406  0.5023 -0.6373 -0.7016
12020TIP3   OH257474   6.646   6.281   2.651 -0.5637  0.5077 -0.0907
12020TIP3    H157475   6.646   6.365   2.698 -1.5376  0.1355  0.6310
12020TIP3    H257476   6.736   6.250   2.656 -0.0969  1.7239 -0.7636
12021TIP3   OH257477   6.178   1.760  16.578 -0.8809 -0.2333 -0.2110
12021TIP3    H157478   6.162   1.678  16.624 -2.0302 -0.3060 -0.7157
12021TIP3    H257479   6.273   1.760  16.561 -0.3674 -0.0531  2.3599
12022TIP3   OH257480   2.170   5.991   2.275 -0.1755  0.0839  0.7927
12022TIP3    H157481   2.102   5.958   2.334  0.6254 -2.2530  0.5106
12022TIP3    H257482   2.252   5.959   2.312  0.9349  3.2389  1.3980
12023TIP3   OH257483   4.287   0.353   1.544 -0.3834 -0.6750  0.1627
12023TIP3    H157484   4.246   0.363   1.458 -0.0548  0.8561  0.1506
12023TIP3    H257485   4.219   0.379   1.606 -0.1405 -0.2731  0.2666
12024TIP3   OH257486   5.923   4.326   5.221 -0.7520 -0.4476  0.5801
12024TIP3    H157487   5.883   4.408   5.251 -0.7377  0.3747 -1.4865
12024TIP3    H257488   5.850   4.264   5.216 -1.0934 -0.0390  0.4508
12025TIP3   OH257489   3.596   6.436  14.494  0.0162 -0.4102  0.1895
12025TIP3    H157490   3.605   6.347  14.527 -0.6583  0.2232  2.2020
12025TIP3    H257491   3.516   6.434  14.442 -0.9275 -0.6207  1.6049
12026TIP3   OH257492   1.343   0.888   1.819  0.1424 -0.3736 -0.4923
12026TIP3    H157493   1.376   0.929   1.740 -1.1597  1.3542 -0.2051
12026TIP3    H257494   1.355   0.954   1.887 -0.2286 -1.2153  0.4187
12027TIP3   OH257495   5.148   3.745   5.908 -0.2779  0.1407  0.8659
12027TIP3    H157496   5.087   3.683   5.950  0.2014 -1.5116 -0.7359
12027TIP3    H257497   5.232   3.729   5.951 -0.0832 -0.5645  0.2258
12028TIP3   OH257498   4.937   6.125  13.646  0.0740 -0.3199  0.1731
12028TIP3    H157499   4.941   6.116  13.742 -0.6448 -0.7773  0.1627
12028TIP3    H257500   4.910   6.215  13.632 -5.1703 -1.5192  0.5594
12029TIP3   OH257501   1.643   4.721   3.231  0.1961 -0.2667 -0.4915
12029TIP3    H157502   1.658   4.633   3.267  0.2381  0.9088  2.6298
12029TIP3    H257503   1.553   4.719   3.199  0.3132 -1.5302 -0.7888
12030TIP3   OH257504   4.397   3.738   3.796  0.1468 -0.1919  0.2727
12030TIP3    H157505   4.460   3.810   3.793  0.3321 -0.3719 -1.9013
12030TIP3    H257506   4.312   3.782   3.804  0.3335  0.2083  0.1266
12031TIP3   OH257507   1.034   3.263  11.112 -0.0066 -0.5395  0.2256
12031TIP3    H157508   1.058   3.186  11.060  0.9004  0.6375 -1.1709
12031TIP3    H257509   0.946   3.286  11.083 -0.4409 -1.2627  0.9348
12032TIP3   OH257510   4.536   1.300  15.743 -0.7455 -0.2915  0.3603
12032TIP3    H157511   4.513   1.273  15.832 -1.6828 -0.7090 -0.0022
12032TIP3    H257512   4.452   1.308  15.698 -0.3577  1.1863 -0.1318
12033TIP3   OH257513   1.261   2.921   1.633 -0.0792 -0.1506  0.3775
12033TIP3    H157514   1.267   2.983   1.560  0.0472 -0.4168  0.1564
12033TIP3    H257515   1.267   2.835   1.591  4.0647 -0.3906  0.9574
12034TIP3   OH257516   5.757   3.602  16.415 -0.8161  0.4197  0.2939
12034TIP3    H157517   5.669   3.615  16.449 -1.3072  1.0388 -1.1581
12034TIP3    H257518   5.800   3.687  16.428 -0.3638  0.0850  1.1120
12035TIP3   OH257519   5.420   6.752  13.397  0.3623 -0.2702  0.3243
12035TIP3    H157520   5.468   6.823  13.439  1.3404 -0.7295  0.0280
12035TIP3    H257521   5.350   6.730  13.458  0.9449 -0.0338  1.0941
12036TIP3   OH257522   0.538   6.772   5.282  0.1496  0.3405 -0.2904
12036TIP3    H157523   0.482   6.714   5.334  0.2847  0.9870  0.6068
12036TIP3    H257524   0.477   6.818   5.224 -0.2143  0.7549  0.4069
12037TIP3   OH257525   6.278   6.789   1.848  0.1530 -0.2563  0.3399
12037TIP3    H157526   6.369   6.781   1.817 -0.1657  0.2516 -0.7692
12037TIP3    H257527   6.239   6.704   1.830  0.2570 -0.2951  0.2964
12038TIP3   OH257528   6.038   5.943  13.270  0.2901  0.1071  0.2884
12038TIP3    H157529   5.969   5.922  13.207  0.4529 -0.4289  0.2767
12038TIP3    H257530   6.086   6.016  13.230  0.9924 -0.8528 -0.6948
12039TIP3   OH257531   3.277   6.079   5.584  0.2434  0.2303  0.3414
12039TIP3    H157532   3.259   6.018   5.513 -1.3091 -0.0454  0.9182
12039TIP3    H257533   3.298   6.023   5.659 -2.8692  0.2018  1.3399
12040TIP3   OH257534   0.780   2.537  12.198  0.1561 -0.6706  0.2274
12040TIP3    H157535   0.709   2.536  12.134  1.3085 -0.0690 -1.1145
12040TIP3    H257536   0.836   2.464  12.173  0.6941 -0.3442  0.4570
12041TIP3   OH257537   4.049   4.453  13.071  0.6910  0.0839  0.5490
12041TIP3    H157538   4.006   4.524  13.024  0.2635  0.3566  1.3203
12041TIP3    H257539   4.104   4.410  13.006  0.7760  0.9790  0.0149
12042TIP3   OH257540   6.547   3.208  13.202  0.1963  0.1216 -0.5360
12042TIP3    H157541   6.463   3.218  13.247 -0.4480 -1.3600 -1.3265
12042TIP3    H257542   6.576   3.120  13.224  2.5330  1.2432  1.2440
12043TIP3   OH257543   4.292   2.872   0.394 -0.0544  0.0955 -0.1394
12043TIP3    H157544   4.278   2.959   0.432  2.8226  0.2848  0.7699
12043TIP3    H257545   4.262   2.811   0.461 -0.2204  0.3990  0.0635
12044TIP3   OH257546   1.266   5.167   3.772 -0.1572 -0.1485  0.2723
12044TIP3    H157547   1.351   5.141   3.736 -0.0051  1.9396 -1.0395
12044TIP3    H257548   1.205   5.102   3.740  0.4052  0.2506 -1.7150
12045TIP3   OH257549   5.069   6.513   0.739  0.1446  0.0821 -0.0209
12045TIP3    H157550   4.979   6.483   0.721  0.8496 -1.2985 -1.5201
12045TIP3    H257551   5.073   6.601   0.702 -0.2599 -0.3066 -1.0207
12046TIP3   OH257552   0.184   0.161  17.161  0.1679  0.1797 -0.7386
12046TIP3    H157553   0.222   0.218  17.094 -1.5422 -1.6398 -3.4314
12046TIP3    H257554   0.108   0.122  17.119  0.3982 -2.9666  1.4565
12047TIP3   OH257555   5.368   4.038   5.512  0.2045  0.4670  0.5392
12047TIP3    H157556   5.366   4.111   5.449 -2.4559  0.6559  0.7243
12047TIP3    H257557   5.354   4.079   5.597  0.7134 -0.0734  0.8873
12048TIP3   OH257558   1.099   3.932  14.377 -0.3096  0.0798 -0.2299
12048TIP3    H157559   1.134   3.902  14.292 -0.2405 -0.7934  0.0976
12048TIP3    H257560   1.164   3.902  14.440 -0.3213  0.8049  0.1304
12049TIP3   OH257561   3.870   4.909  12.348  0.3740 -0.6917 -0.6487
12049TIP3    H157562   3.878   4.998  12.382 -0.9714 -1.8469  3.1082
12049TIP3    H257563   3.794   4.912  12.290  0.3314  0.5792 -0.5543
12050TIP3   OH257564   4.067   4.153   4.102 -0.7566 -0.0148  0.1275
12050TIP3    H157565   4.000   4.204   4.055  0.7301  2.1200  0.1595
12050TIP3    H257566   4.148   4.171   4.054  0.2583 -0.2979  1.6722
12051TIP3   OH257567   3.637   5.511   3.073  0.1586  0.5441 -0.0661
12051TIP3    H157568   3.730   5.490   3.081 -0.0160  0.2998  1.8261
12051TIP3    H257569   3.617   5.565   3.149 -1.5057 -0.4301  0.2592
12052TIP3   OH257570   1.332   5.667   1.998  0.5749  0.4074 -0.4966
12052TIP3    H157571   1.256   5.710   2.037  0.0728  1.5525 -2.6291
12052TIP3    H257572   1.319   5.574   2.017 -1.8582  0.4658 -1.5637
12053TIP3   OH257573   2.554   0.431   5.362 -0.6114  0.1735  0.3344
12053TIP3    H157574   2.514   0.371   5.299 -2.5416  2.0965 -0.4024
12053TIP3    H257575   2.630   0.468   5.316 -0.3470 -0.5096  0.2152
12054TIP3   OH257576   1.961   6.406   4.556  0.0900 -0.0514 -0.3269
12054TIP3    H157577   1.985   6.460   4.481 -0.7423  2.3365  1.0212
12054TIP3    H257578   1.895   6.345   4.522  1.8304 -1.0568 -2.1288
12055TIP3   OH257579   0.881   5.552   1.088 -0.2377  0.5291 -0.2360
12055TIP3    H157580   0.858   5.565   1.180 -0.1649  0.0346 -0.1415
12055TIP3    H257581   0.809   5.500   1.053  0.9591 -1.5673  0.2190
12056TIP3   OH257582   4.330   0.511   2.323  0.9739 -0.7039 -1.0825
12056TIP3    H157583   4.397   0.448   2.297  1.6305 -0.0174 -1.0863
12056TIP3    H257584   4.342   0.586   2.263 -0.3277 -0.8984 -1.6256
12057TIP3   OH257585   5.023   4.022  16.768 -0.1428 -0.6210 -0.0850
12057TIP3    H157586   5.049   4.112  16.748 -1.9183 -0.0170  0.1502
12057TIP3    H257587   4.964   3.997  16.697  0.7060 -1.7924 -0.4024
12058TIP3   OH257588   3.587   4.947  11.485  0.0106  0.3610 -0.1796
12058TIP3    H157589   3.541   5.005  11.546  0.6384 -1.2035  1.8902
12058TIP3    H257590   3.522   4.881  11.461  0.6062 -0.8696  1.4087
12059TIP3   OH257591   2.332   0.380  14.028 -0.1895  0.5278 -0.9239
12059TIP3    H157592   2.410   0.432  14.048  1.1537 -0.3743 -3.3039
12059TIP3    H257593   2.320   0.323  14.104  2.8914 -0.8505 -1.3134
12060TIP3   OH257594   2.517   5.831  12.059  0.1562 -0.3137 -0.1140
12060TIP3    H157595   2.480   5.919  12.066  1.4658  0.2531 -0.0019
12060TIP3    H257596   2.444   5.776  12.032 -0.1021  1.2937 -3.0465
12061TIP3   OH257597   6.142   6.059  13.665 -0.2811  0.4151 -0.5420
12061TIP3    H157598   6.227   6.084  13.630  0.2695 -0.4203  0.1525
12061TIP3    H257599   6.160   5.984  13.722 -1.4647  0.2868 -0.2975
12062TIP3   OH257600   3.596   1.111   5.542 -0.7477  0.5801 -0.1017
12062TIP3    H157601   3.541   1.102   5.619  1.1122  0.4066  1.2820
12062TIP3    H257602   3.641   1.027   5.534  3.0321  2.1320  1.9204
12063TIP3   OH257603   5.627   3.365  14.726 -0.4020  0.1872 -0.3924
12063TIP3    H157604   5.624   3.297  14.793 -0.1354 -1.2821 -1.7873
12063TIP3    H257605   5.560   3.427  14.752 -1.4348 -1.1835  0.3706
12064TIP3   OH257606   1.895   2.735  13.338 -0.2789  0.0407  0.0693
12064TIP3    H157607   1.942   2.799  13.391 -0.8866 -0.4461  1.2422
12064TIP3    H257608   1.866   2.784  13.261  0.0508  0.9424  0.5047
12065TIP3   OH257609   4.759   1.084  13.005  0.1129 -0.2943  0.5389
12065TIP3    H157610   4.697   1.040  13.063 -0.1800 -1.7431 -0.7980
12065TIP3    H257611   4.704   1.137  12.948  0.2700 -0.0635  0.6028
12066TIP3   OH257612   5.690   0.793  16.683 -0.4798 -0.6287  0.4639
12066TIP3    H157613   5.769   0.771  16.635 -1.0352 -0.9135 -0.3509
12066TIP3    H257614   5.684   0.728  16.752 -1.0724 -1.8909 -0.7240
12067TIP3   OH257615   5.202   4.672  16.586 -0.3039  0.1872  0.4308
12067TIP3    H157616   5.221   4.765  16.570 -1.3309  0.2512 -0.4830
12067TIP3    H257617   5.145   4.673  16.663 -0.1410  0.2861  0.5547
12068TIP3   OH257618   2.795   0.640  16.798  0.3050  0.1797  0.1454
12068TIP3    H157619   2.841   0.556  16.802 -2.9381 -1.8126 -0.3908
12068TIP3    H257620   2.799   0.665  16.706  0.1381 -0.1340  0.0502
12069TIP3   OH257621   2.912   1.761   3.344 -0.2779  0.0706  0.7405
12069TIP3    H157622   2.818   1.752   3.357 -0.2668  1.9827  2.6376
12069TIP3    H257623   2.921   1.773   3.249 -1.8862 -0.4264  0.4843
12070TIP3   OH257624   1.659   2.405  13.467  0.2092 -0.3872  0.1259
12070TIP3    H157625   1.593   2.414  13.536  0.1889 -0.6107  0.1381
12070TIP3    H257626   1.681   2.311  13.467  1.4707 -0.1106  0.9883
12071TIP3   OH257627   1.512   2.499  14.294  0.2452 -0.0987  0.0246
12071TIP3    H157628   1.460   2.571  14.330 -2.0997 -2.2575  1.3183
12071TIP3    H257629   1.593   2.499  14.344 -2.1464 -1.8526  4.4045
12072TIP3   OH257630   2.683   3.583  15.922 -0.5420  0.3995  0.2179
12072TIP3    H157631   2.737   3.552  15.995  0.2629 -0.3948 -0.6705
12072TIP3    H257632   2.747   3.613  15.857 -1.2085  0.3445 -0.4719
12073TIP3   OH257633   0.473   4.871  13.287  0.1247  0.3743 -0.0726
12073TIP3    H157634   0.494   4.880  13.193 -1.1968 -2.1153 -0.6994
12073TIP3    H257635   0.422   4.949  13.308 -0.9255  0.2420 -1.8876
12074TIP3   OH257636   5.472   6.201  15.990 -0.0122 -0.4081  0.0705
12074TIP3    H157637   5.535   6.240  16.051 -1.0699  0.4266  0.6527
12074TIP3    H257638   5.409   6.157  16.046 -0.2297 -0.8214 -0.4927
12075TIP3   OH257639   1.663   3.493  16.088 -0.0590  0.3570 -0.0807
12075TIP3    H157640   1.727   3.435  16.046  1.9966  2.7402 -0.5083
12075TIP3    H257641   1.578   3.459  16.060  1.1054 -0.7776 -2.6181
12076TIP3   OH257642   3.428   6.657  15.825 -0.2931  0.3906  0.3073
12076TIP3    H157643   3.511   6.678  15.866 -0.5220  0.1883  0.8781
12076TIP3    H257644   3.382   6.741  15.819 -0.8586  0.2143  1.8123
12077TIP3   OH257645   2.873   1.203  10.138 -0.1899 -0.3436 -0.3551
12077TIP3    H157646   2.792   1.202  10.189  0.1646 -1.9416  0.2130
12077TIP3    H257647   2.856   1.144  10.065  1.3973 -3.1577  1.3770
12078TIP3   OH257648   5.167   1.290   6.694 -0.1399  0.6208 -0.1808
12078TIP3    H157649   5.174   1.195   6.700 -1.3945  0.5991  2.3337
12078TIP3    H257650   5.093   1.304   6.634  1.1281  0.1265 -1.9476
12079TIP3   OH257651   1.776   3.363  12.715  0.0886  0.4417  0.3926
12079TIP3    H157652   1.869   3.369  12.691  0.3716 -2.3857  0.4637
12079TIP3    H257653   1.730   3.394  12.637  1.0791  1.6088  0.2439
12080TIP3   OH257654   5.446   6.781  16.517 -0.3475 -0.2484  0.2087
12080TIP3    H157655   5.380   6.840  16.482 -0.6064 -0.3789  0.4756
12080TIP3    H257656   5.515   6.779  16.450 -1.0154 -0.8115 -0.4792
12081TIP3   OH257657   0.830   0.416  13.553 -0.4293 -0.3101  0.4608
12081TIP3    H157658   0.736   0.438  13.553 -0.3710  0.0276 -1.0664
12081TIP3    H257659   0.873   0.497  13.527  0.0905 -1.0972 -1.2484
12082TIP3   OH257660   3.894   0.405  12.440 -0.4460 -0.2376 -0.3363
12082TIP3    H157661   3.900   0.463  12.363 -0.2430  0.1720 -0.0198
12082TIP3    H257662   3.833   0.450  12.498 -0.0347 -0.1749  0.0525
12083TIP3   OH257663   0.056   4.007  14.618 -0.0963 -0.1286 -0.4548
12083TIP3    H157664   0.129   3.957  14.654 -2.2827 -3.0752  0.2284
12083TIP3    H257665   0.054   3.985  14.525 -0.3514 -0.3663 -0.3939
12084TIP3   OH257666   2.479   1.192   3.365 -0.0420  0.2721 -0.1081
12084TIP3    H157667   2.466   1.201   3.460 -2.3888 -0.0085 -0.3482
12084TIP3    H257668   2.472   1.098   3.349 -0.7729  0.4249 -0.6962
12085TIP3   OH257669   6.302   3.144  12.793  1.0907 -0.7580  0.5968
12085TIP3    H157670   6.392   3.115  12.806  0.9511 -1.1364  0.7559
12085TIP3    H257671   6.309   3.235  12.766  1.5285 -0.8388  0.4351
12086TIP3   OH257672   3.825   0.533  11.599  0.2516  0.2160  0.1400
12086TIP3    H157673   3.831   0.545  11.694  0.4143  0.1441  0.1392
12086TIP3    H257674   3.907   0.490  11.575 -0.2100 -0.6543  0.0974
12087TIP3   OH257675   6.415   6.522   4.381  0.0615 -0.1197  0.3694
12087TIP3    H157676   6.371   6.602   4.353 -0.0373 -0.0882  0.6096
12087TIP3    H257677   6.501   6.551   4.410  0.0246 -0.0972  0.4597
12088TIP3   OH257678   2.082   3.320   6.255 -0.0421 -0.0029 -0.1107
12088TIP3    H157679   2.153   3.327   6.319  0.4301 -0.7740 -0.5435
12088TIP3    H257680   2.047   3.409   6.249  1.2185  0.4997 -0.2717
12089TIP3   OH257681   0.258   0.699   5.261 -0.2615  0.5229  0.8423
12089TIP3    H157682   0.174   0.721   5.300 -1.0321 -1.4349  0.3985
12089TIP3    H257683   0.277   0.611   5.292  0.8542  0.3104 -0.3507
12090TIP3   OH257684   1.219   0.715   5.675  0.2173  0.2821  1.5356
12090TIP3    H157685   1.266   0.698   5.593 -1.3184  1.2894  0.3800
12090TIP3    H257686   1.158   0.786   5.653 -1.6203 -0.7354  3.0124
12091TIP3   OH257687   6.167   1.898  11.103 -0.5350  0.4602 -0.9441
12091TIP3    H157688   6.152   1.844  11.026  0.7694  0.3005 -1.1083
12091TIP3    H257689   6.183   1.836  11.173 -0.0005  0.6173 -0.9232
12092TIP3   OH257690   2.835   0.723  12.450 -0.0335 -0.2335 -0.2754
12092TIP3    H157691   2.882   0.718  12.533  0.9573  2.8825 -0.5369
12092TIP3    H257692   2.752   0.680  12.467  0.5366 -0.5410  2.0324
12093TIP3   OH257693   0.253   4.934  17.044  0.3660  0.7556 -0.6119
12093TIP3    H157694   0.325   4.996  17.033  2.7108 -1.9199 -1.5012
12093TIP3    H257695   0.281   4.855  16.997 -1.9475 -1.3717  1.2694
12094TIP3   OH257696   4.773   6.356  14.658  0.2948 -0.2907  0.2329
12094TIP3    H157697   4.761   6.408  14.578 -0.5375 -1.8003 -0.6705
12094TIP3    H257698   4.866   6.366  14.680  0.4913  0.3050 -0.8186
12095TIP3   OH257699   3.372   4.656   2.183 -0.1125 -0.1739  0.4586
12095TIP3    H157700   3.410   4.739   2.156  0.9622 -0.0072  2.3002
12095TIP3    H257701   3.294   4.682   2.234 -0.9344 -0.4029 -0.6401
12096TIP3   OH257702   1.042   2.008  15.766 -0.1984  0.6260 -0.4420
12096TIP3    H157703   1.053   1.921  15.805 -0.8699  0.6542 -0.1720
12096TIP3    H257704   1.083   2.002  15.680 -0.6723 -0.1024 -0.6189
12097TIP3   OH257705   3.893   5.018  15.732 -0.4825  0.3147 -0.4752
12097TIP3    H157706   3.809   5.006  15.777 -0.8648 -0.6660 -1.4188
12097TIP3    H257707   3.953   5.046  15.801 -1.2286 -0.4636  0.5221
12098TIP3   OH257708   5.701   0.009   3.394 -0.2776 -0.1300  0.2518
12098TIP3    H157709   5.673   0.057   3.472 -1.4904 -0.6143  0.1469
12098TIP3    H257710   5.635  -0.060   3.385  2.2278 -2.8327  1.2765
12099TIP3   OH257711   6.292   0.969  12.221 -0.2105 -0.1843  0.1108
12099TIP3    H157712   6.309   1.061  12.241  1.2638 -0.3461 -0.3243
12099TIP3    H257713   6.322   0.958  12.131  4.5873 -2.2121  1.6166
12100TIP3   OH257714   3.939   0.095  10.971  0.5702  0.4632 -0.3384
12100TIP3    H157715   4.011   0.130  10.919  1.5900 -0.2272  0.5683
12100TIP3    H257716   3.981   0.056  11.048 -0.8008  0.3795  0.4046
12101TIP3   OH257717   1.345   4.750  15.659  0.3071  0.5512 -0.3310
12101TIP3    H157718   1.361   4.773  15.751 -0.6046  1.2814 -0.3458
12101TIP3    H257719   1.396   4.814  15.609  1.2767 -0.2028 -0.3581
12102TIP3   OH257720   1.636   2.202  12.458 -0.4949  0.3329  0.4344
12102TIP3    H157721   1.627   2.153  12.376 -0.0187 -1.5308  1.4420
12102TIP3    H257722   1.727   2.231  12.459 -0.4702  0.2576  0.3611
12103TIP3   OH257723   3.744   5.432  16.062  0.6509  0.5709  0.2044
12103TIP3    H157724   3.821   5.431  16.006  0.1895 -0.9857 -0.4710
12103TIP3    H257725   3.715   5.341  16.065 -0.2115  0.8494  1.7923
12104TIP3   OH257726   0.419   3.672  15.427 -0.0244 -0.1072  0.2582
12104TIP3    H157727   0.437   3.664  15.520  0.0182  1.4991  0.4216
12104TIP3    H257728   0.324   3.681  15.421 -0.0420 -0.3844  0.1389
12105TIP3   OH257729   0.007   5.553  17.010 -0.2271  0.2780  0.3865
12105TIP3    H157730   0.075   5.486  17.008  0.2195  0.7205  0.6585
12105TIP3    H257731   0.003   5.579  17.102 -2.5993 -1.6056  0.9410
12106TIP3   OH257732   6.106   6.477   0.461 -0.3313 -0.2295  0.4385
12106TIP3    H157733   6.049   6.515   0.527 -0.0654  0.6604  0.1796
12106TIP3    H257734   6.131   6.392   0.496 -0.2351  0.2038  1.4539
12107TIP3   OH257735   3.785   1.791  10.410  0.0989 -0.0276  0.0950
12107TIP3    H157736   3.776   1.698  10.392  1.2944 -0.2255  0.4655
12107TIP3    H257737   3.704   1.813  10.457  0.6371 -1.3261  1.7267
12108TIP3   OH257738   3.816   3.197   4.815 -0.1788  0.2131 -0.2497
12108TIP3    H157739   3.755   3.268   4.798  1.9833  2.3318  0.1843
12108TIP3    H257740   3.858   3.180   4.731 -1.2398 -1.1874 -0.5342
12109TIP3   OH257741   5.035   4.594   1.877  1.0404  0.0778 -0.0888
12109TIP3    H157742   5.085   4.534   1.932 -0.4202  0.9655  2.3545
12109TIP3    H257743   5.023   4.672   1.931 -2.3475  0.1720 -0.7319
12110TIP3   OH257744   6.148   5.989  15.086 -0.0729 -0.5211  0.3267
12110TIP3    H157745   6.204   5.972  15.010 -0.8658 -1.4261 -0.0855
12110TIP3    H257746   6.199   6.049  15.141  0.6498 -0.1186 -0.7556
12111TIP3   OH257747   4.547   1.689  15.129 -0.0899 -0.3782  0.2419
12111TIP3    H157748   4.551   1.782  15.110  0.6435 -0.7148 -1.4078
12111TIP3    H257749   4.463   1.677  15.173 -0.5011  0.9506 -0.1328
12112TIP3   OH257750   6.367   5.192   0.341 -0.1842 -0.1751 -0.0670
12112TIP3    H157751   6.447   5.184   0.393 -0.0061  1.4529 -0.0463
12112TIP3    H257752   6.305   5.134   0.384  0.3557  0.1427  1.2012
12113TIP3   OH257753   6.476   3.821   1.666 -0.0523 -0.3835  0.1572
12113TIP3    H157754   6.494   3.735   1.704  0.4060 -0.6710 -0.6721
12113TIP3    H257755   6.553   3.873   1.686 -0.7918  0.2011  1.6228
12114TIP3   OH257756   0.518   1.286   0.335 -0.1419 -0.1977 -0.7054
12114TIP3    H157757   0.461   1.218   0.371  1.0550 -1.1018 -0.4583
12114TIP3    H257758   0.497   1.287   0.241 -0.2533 -0.8208 -0.6929
12115TIP3   OH257759   2.116   0.307  16.095 -0.1666 -0.2359 -0.1067
12115TIP3    H157760   2.196   0.348  16.061  0.3552 -1.6930 -0.7029
12115TIP3    H257761   2.102   0.347  16.181  2.7110 -1.8404  1.2233
12116TIP3   OH257762   0.351   1.858  12.788 -0.5184 -0.6931  0.1646
12116TIP3    H157763   0.354   1.952  12.769  1.9673 -0.5708  0.8374
12116TIP3    H257764   0.419   1.820  12.731 -0.2572 -1.8065  1.1789
12117TIP3   OH257765   4.332   3.229   3.285  0.0110 -0.7507 -0.0298
12117TIP3    H157766   4.391   3.231   3.360  1.3023 -0.0784 -1.0178
12117TIP3    H257767   4.292   3.316   3.283  1.2920 -0.1557 -1.0903
12118TIP3   OH257768   6.211   5.404   4.915 -0.0831  0.2644 -0.0797
12118TIP3    H157769   6.161   5.462   4.857 -0.1401  0.6455  0.3475
12118TIP3    H257770   6.180   5.316   4.892  1.0342  0.2503 -1.7349
12119TIP3   OH257771   1.568   2.116  16.670 -0.4413 -0.9705  0.0167
12119TIP3    H157772   1.495   2.116  16.732 -0.7261 -0.9820 -0.3171
12119TIP3    H257773   1.554   2.194  16.616 -1.3632 -2.0645 -1.3932
12120TIP3   OH257774   6.491   6.674   6.430 -0.2353 -0.2509 -0.2089
12120TIP3    H157775   6.483   6.768   6.446  0.5302 -0.2844  0.4279
12120TIP3    H257776   6.416   6.636   6.475 -0.4851  0.0441 -0.3703
12121TIP3   OH257777   2.544   1.939   0.307  0.2624 -0.1161  0.0499
12121TIP3    H157778   2.458   1.962   0.273  0.5006 -0.0150 -0.4889
12121TIP3    H257779   2.589   2.023   0.316 -0.6296  0.1651  2.9847
12122TIP3   OH257780   6.391   4.674   4.192 -0.0002  0.7948  0.3751
12122TIP3    H157781   6.397   4.653   4.285  0.4453  0.0886  0.1960
12122TIP3    H257782   6.474   4.717   4.172  1.3231 -1.8779 -0.3619
12123TIP3   OH257783   1.545   1.690   6.394  1.0470 -0.2507 -0.2660
12123TIP3    H157784   1.464   1.689   6.342 -0.0644  1.8991  1.2802
12123TIP3    H257785   1.534   1.617   6.455 -1.6398  2.0984  2.4168
12124TIP3   OH257786   3.407   4.678  17.236 -0.4838 -0.1313 -0.7583
12124TIP3    H157787   3.412   4.614  17.307 -1.1687 -0.7842 -1.2814
12124TIP3    H257788   3.498   4.702  17.218 -0.0580 -2.2838 -1.7415
12125TIP3   OH257789   5.933   4.139   6.094 -0.8443 -0.6060 -0.1624
12125TIP3    H157790   5.997   4.204   6.067 -0.8696 -0.7672 -0.6094
12125TIP3    H257791   5.982   4.078   6.150 -1.1282  0.5911  1.4649
12126TIP3   OH257792   0.384   1.332   2.348 -0.5292  0.2534 -0.6471
12126TIP3    H157793   0.376   1.412   2.297 -0.9078  0.0261 -0.9506
12126TIP3    H257794   0.294   1.314   2.377 -0.4274 -0.0063 -0.4925
12127TIP3   OH257795   2.806   6.078   2.850  0.0999  0.3945  0.0830
12127TIP3    H157796   2.822   6.035   2.766  0.7632 -1.4120  1.0778
12127TIP3    H257797   2.851   6.162   2.843  0.5924  0.0482 -1.1784
12128TIP3   OH257798   4.633   0.980  16.930 -0.6642 -0.3762  0.1238
12128TIP3    H157799   4.654   1.014  16.844  1.0382 -2.8395 -0.5572
12128TIP3    H257800   4.698   1.020  16.988  0.8878 -1.7975 -0.5448
12129TIP3   OH257801   3.096   1.459  17.076 -0.7827 -0.8304  0.3007
12129TIP3    H157802   3.176   1.458  17.129 -1.0224  0.5240  0.7180
12129TIP3    H257803   3.105   1.536  17.021 -1.3027 -1.3031 -0.4648
12130TIP3   OH257804   3.259   4.231   3.892 -0.5986  0.3595  0.6500
12130TIP3    H157805   3.176   4.248   3.849 -0.0762  1.1116 -0.0750
12130TIP3    H257806   3.293   4.317   3.916  0.9230  0.2505 -0.8981
12131TIP3   OH257807   3.808   1.736  12.209  0.0777  0.2851 -0.3437
12131TIP3    H157808   3.719   1.701  12.214  0.7432 -1.4121  0.5495
12131TIP3    H257809   3.805   1.797  12.135 -2.0261  0.9556  0.2105
12132TIP3   OH257810   4.033   3.886  16.929 -0.1423 -0.1099  0.3040
12132TIP3    H157811   3.939   3.883  16.913  0.0383 -1.7809 -0.6252
12132TIP3    H257812   4.050   3.978  16.951 -2.0314  0.1344  0.9199
12133TIP3   OH257813   1.449   2.523   0.882 -0.4021  0.0999  0.1286
12133TIP3    H157814   1.447   2.617   0.902  1.6436  0.2682 -0.1976
12133TIP3    H257815   1.385   2.511   0.812  1.9249  2.0252 -2.5384
12134TIP3   OH257816   2.661   4.287  11.573  0.2978 -0.1629 -0.7248
12134TIP3    H157817   2.695   4.339  11.646 -1.0021 -0.9313  0.4702
12134TIP3    H257818   2.739   4.248  11.532  1.0120 -0.1032  0.5533
12135TIP3   OH257819   4.009   6.462   1.403 -0.2591 -0.0010  0.1512
12135TIP3    H157820   3.926   6.494   1.437 -0.4566  1.0930 -1.2673
12135TIP3    H257821   4.063   6.541   1.394 -0.2356 -0.2109 -2.0354
12136TIP3   OH257822   5.406   4.899  13.226  0.0292  0.3154  0.0898
12136TIP3    H157823   5.332   4.842  13.206 -0.3052  1.1613 -1.2321
12136TIP3    H257824   5.473   4.875  13.162 -0.7891  2.5898 -1.7563
12137TIP3   OH257825   2.773   0.348   3.108  0.2848 -0.6564 -0.3715
12137TIP3    H157826   2.739   0.301   3.185  0.1096 -0.0555 -0.0803
12137TIP3    H257827   2.793   0.278   3.045  2.4133 -1.3767  0.9654
12138TIP3   OH257828   6.566   6.344   5.776 -0.1419 -0.2260 -0.8923
12138TIP3    H157829   6.538   6.431   5.805 -0.3818 -0.6924  0.3339
12138TIP3    H257830   6.528   6.284   5.840  1.5058 -1.0949 -0.6811
12139TIP3   OH257831   2.858   6.234  14.203 -0.0830  0.6111 -0.2365
12139TIP3    H157832   2.813   6.303  14.252  1.7379  2.0089 -0.4155
12139TIP3    H257833   2.937   6.216  14.253  0.1482 -0.3733 -0.9256
12140TIP3   OH257834   0.483   5.830  11.362  0.2017 -0.3083  0.7796
12140TIP3    H157835   0.402   5.850  11.314  1.1778  0.7285 -0.5123
12140TIP3    H257836   0.503   5.739  11.337  0.6034  0.1593 -0.6921
12141TIP3   OH257837   3.846   0.712   4.660  0.2612  0.6155 -0.3130
12141TIP3    H157838   3.869   0.665   4.579  0.8266  1.9252 -0.9480
12141TIP3    H257839   3.750   0.713   4.660  0.2383 -0.3759 -0.3654
12142TIP3   OH257840   3.491   3.480   2.265  0.3566  0.2600  1.0010
12142TIP3    H157841   3.531   3.538   2.200  0.1710 -0.9134 -0.1847
12142TIP3    H257842   3.564   3.456   2.323  0.4232  1.7130  1.5816
12143TIP3   OH257843   6.347   2.039  11.359 -0.3074  0.1023 -0.0674
12143TIP3    H157844   6.439   2.021  11.378 -0.1480  1.2020  0.2898
12143TIP3    H257845   6.299   1.975  11.412  0.2415  0.0938  0.4339
12144TIP3   OH257846   2.482   1.917  12.867  0.4638 -0.5980 -0.1676
12144TIP3    H157847   2.546   1.986  12.883 -0.6517  0.1100  1.5403
12144TIP3    H257848   2.525   1.858  12.805  1.4856  1.5367 -1.5799
12145TIP3   OH257849   3.927   3.777  13.897 -0.3083 -0.4745  0.6784
12145TIP3    H157850   3.854   3.839  13.894 -1.9586 -2.3142  0.1050
12145TIP3    H257851   3.948   3.770  13.990 -0.5099  0.4697  0.8049
12146TIP3   OH257852   4.687   0.274   0.427 -0.3467  0.2153 -0.1648
12146TIP3    H157853   4.602   0.299   0.392 -0.5983 -1.7407 -1.0640
12146TIP3    H257854   4.750   0.330   0.382 -1.0235  0.5563 -0.6971
12147TIP3   OH257855   0.952   2.590  15.727 -0.0317  0.5476 -0.0116
12147TIP3    H157856   0.988   2.545  15.650 -1.0935  0.5693 -0.5418
12147TIP3    H257857   0.884   2.648  15.691  0.1034  1.2641  0.8507
12148TIP3   OH257858   4.452   0.581   5.780  0.0364  0.0911 -0.3758
12148TIP3    H157859   4.396   0.597   5.856 -0.8434  2.3315 -1.3991
12148TIP3    H257860   4.541   0.586   5.814 -0.3332 -1.1055  0.8566
12149TIP3   OH257861   2.199   1.337   4.351  0.5168  0.0030 -0.1576
12149TIP3    H157862   2.222   1.421   4.393  0.6061 -0.2618  0.3270
12149TIP3    H257863   2.211   1.354   4.258 -1.7644  1.2694 -0.3053
12150TIP3   OH257864   5.061   4.164  12.537  0.1222  0.4012 -0.0778
12150TIP3    H157865   5.053   4.258  12.521  0.5773  0.6544  1.0466
12150TIP3    H257866   5.037   4.153  12.629  1.1462 -0.4077  0.1216
12151TIP3   OH257867   4.172   0.145   4.202  1.0388  0.3026 -0.2188
12151TIP3    H157868   4.148   0.223   4.252  1.9870  0.5330 -0.1006
12151TIP3    H257869   4.255   0.168   4.160  0.6353 -0.1541 -1.3061
12152TIP3   OH257870   6.574   3.968  11.837  0.2764 -0.4006  0.0751
12152TIP3    H157871   6.617   4.011  11.911  1.7877  1.1729 -1.5895
12152TIP3    H257872   6.636   3.901  11.809 -0.0492 -0.6333 -0.0963
12153TIP3   OH257873   5.797   5.198   2.079  0.5999 -0.3621  0.3461
12153TIP3    H157874   5.798   5.176   1.985 -1.1864 -1.1589  0.4702
12153TIP3    H257875   5.710   5.170   2.109  0.7343  0.8649  2.0198
12154TIP3   OH257876   3.010   3.955   4.800  0.2192 -0.3283  0.1305
12154TIP3    H157877   2.986   3.910   4.881 -2.1341  0.1320 -0.2471
12154TIP3    H257878   3.033   4.043   4.828  0.7953 -0.5594  0.4187
12155TIP3   OH257879   1.053   1.749  12.391 -0.2687 -0.1262  0.0376
12155TIP3    H157880   1.056   1.836  12.350  0.1238  0.4948  1.3280
12155TIP3    H257881   1.107   1.758  12.469 -0.3809 -1.4966  0.2919
12156TIP3   OH257882   5.677   2.514   5.144 -0.2501 -0.1357 -0.4538
12156TIP3    H157883   5.606   2.518   5.209 -0.6082 -1.0026 -0.7807
12156TIP3    H257884   5.632   2.521   5.060  0.2339  1.2431 -0.6255
12157TIP3   OH257885   4.526   5.503   2.078  0.5281  0.1180 -0.0194
12157TIP3    H157886   4.618   5.493   2.101  0.6668 -1.0598 -0.9591
12157TIP3    H257887   4.513   5.442   2.004 -1.2675 -0.6192  0.8332
12158TIP3   OH257888   4.366   5.051   1.669  0.3934  0.0275 -0.1109
12158TIP3    H157889   4.323   5.007   1.743 -0.0085  1.2727  0.4148
12158TIP3    H257890   4.459   5.050   1.692  0.3837 -0.5033 -0.0852
12159TIP3   OH257891   4.217   2.076   3.413  0.2266  0.2935  0.0562
12159TIP3    H157892   4.309   2.050   3.420  0.0175 -0.5043 -0.0466
12159TIP3    H257893   4.219   2.171   3.400  0.9818  0.5006  1.4598
12160TIP3   OH257894   1.792   5.427  13.573 -0.2777 -0.5606  0.0948
12160TIP3    H157895   1.740   5.400  13.498  0.1152  0.9827 -0.7634
12160TIP3    H257896   1.875   5.382  13.562 -0.3170 -0.5507 -0.2501
12161TIP3   OH257897   3.625   0.130   5.405 -0.6150 -0.2167 -0.0100
12161TIP3    H157898   3.584   0.197   5.461  1.0270  0.1533  0.7999
12161TIP3    H257899   3.700   0.099   5.456 -0.3805 -1.4891 -1.0960
12162TIP3   OH257900   6.009   1.562  16.368  0.5595  0.1914  0.2465
12162TIP3    H157901   5.954   1.640  16.369  0.6611  0.3923 -2.7072
12162TIP3    H257902   6.096   1.594  16.391  0.6884  1.0900 -1.3279
12163TIP3   OH257903   4.170   2.116   4.989  0.3132 -0.2570  0.3458
12163TIP3    H157904   4.084   2.157   4.981  0.4036 -0.2125 -0.4105
12163TIP3    H257905   4.223   2.181   5.035  0.5371  0.6242 -1.0921
12164TIP3   OH257906   5.098   4.568  17.209 -0.0357  0.6138  0.0797
12164TIP3    H157907   5.160   4.507  17.168 -0.3321  1.1346 -1.1748
12164TIP3    H257908   5.131   4.579  17.298  0.7493 -0.3825 -0.0698
12165TIP3   OH257909   1.538   5.340  13.793  0.3449 -0.0025 -0.2259
12165TIP3    H157910   1.562   5.345  13.886  0.7990 -0.3979 -0.3232
12165TIP3    H257911   1.552   5.429  13.760 -0.9187  0.4387  0.3440
12166TIP3   OH257912   6.706   0.609  14.404  0.0560  1.2309  0.0545
12166TIP3    H157913   6.714   0.551  14.479  2.0430  0.2772 -0.8012
12166TIP3    H257914   6.668   0.689  14.439  0.3021  0.5760  1.9308
12167TIP3   OH257915   2.390   0.210  14.636  0.4785 -1.3219  0.7963
12167TIP3    H157916   2.438   0.127  14.638  0.2939 -1.5500 -1.1971
12167TIP3    H257917   2.299   0.185  14.649  0.4385 -1.4380  0.3278
12168TIP3   OH257918   4.932   4.940   5.931  0.3560  0.2235 -0.3918
12168TIP3    H157919   4.882   4.999   5.874  1.4174  1.3799 -0.1612
12168TIP3    H257920   4.866   4.903   5.990 -0.4694  0.4469 -1.1385
12169TIP3   OH257921   6.390   0.127  16.528 -0.9222 -0.0588  0.1212
12169TIP3    H157922   6.427   0.165  16.448 -0.8825 -2.6151 -1.1711
12169TIP3    H257923   6.301   0.101  16.504  0.1153 -3.8113 -0.2422
12170TIP3   OH257924   0.277   3.864  14.688  0.4471 -0.3334 -0.4192
12170TIP3    H157925   0.351   3.912  14.727  0.4222 -1.4924  1.1400
12170TIP3    H257926   0.287   3.774  14.719 -2.8776 -0.1041  1.8517
12171TIP3   OH257927   6.530   2.252   3.111 -0.1099  0.2322  0.0252
12171TIP3    H157928   6.551   2.169   3.070 -2.4401 -1.3747  1.8386
12171TIP3    H257929   6.567   2.246   3.199 -0.5940  0.9768  0.2919
12172TIP3   OH257930   0.399   3.807   5.891 -0.2654 -0.1146  0.0349
12172TIP3    H157931   0.373   3.718   5.910 -0.3204 -0.2930 -0.8503
12172TIP3    H257932   0.322   3.849   5.853 -0.0027  0.0587 -0.3287
12173TIP3   OH257933   5.938   2.038   2.491  0.4624  0.3041 -0.0369
12173TIP3    H157934   6.010   1.980   2.467 -0.8070 -1.7762  0.8703
12173TIP3    H257935   5.861   1.981   2.491 -1.1825  2.4171 -0.8235
12174TIP3   OH257936   6.485   3.943   6.397 -0.3264 -0.3349 -0.2975
12174TIP3    H157937   6.464   3.920   6.487 -1.5840 -1.0672 -0.7505
12174TIP3    H257938   6.547   4.016   6.404  1.0116 -1.5456  1.1566
12175TIP3   OH257939   1.221   2.635   0.055  0.1878  0.6410  0.5976
12175TIP3    H157940   1.312   2.633   0.083  0.9191  0.6353 -1.6075
12175TIP3    H257941   1.187   2.716   0.092  1.1823  0.8105  1.1786
12176TIP3   OH257942   3.907   0.282   1.498  0.9205 -0.4471  0.3146
12176TIP3    H157943   3.911   0.372   1.531  0.3965  0.8060 -2.6794
12176TIP3    H257944   3.988   0.271   1.449  0.2685 -0.9925 -0.6760
12177TIP3   OH257945   3.085   0.205   5.534  0.4925 -0.1493 -0.2296
12177TIP3    H157946   3.148   0.149   5.579  1.4845  0.1821 -1.1920
12177TIP3    H257947   3.075   0.281   5.592 -1.7374 -1.7314  1.6719
12178TIP3   OH257948   2.578   3.005   6.557 -0.0969  0.4854  0.1130
12178TIP3    H157949   2.584   2.942   6.485 -2.2681 -1.4741  1.5439
12178TIP3    H257950   2.493   3.048   6.544  0.2993  1.4211  0.5197
12179TIP3   OH257951   2.271   6.288   1.647  0.3424 -0.2590 -0.4744
12179TIP3    H157952   2.300   6.202   1.677 -0.7827  0.1569  2.0686
12179TIP3    H257953   2.180   6.274   1.620  0.3047  0.0262 -0.4987
12180TIP3   OH257954   6.342   0.611   2.596  0.3211  0.4325 -0.0020
12180TIP3    H157955   6.317   0.539   2.539  1.3373 -0.1881  0.2951
12180TIP3    H257956   6.324   0.580   2.685  3.5478 -0.7672  0.3837
12181TIP3   OH257957   2.325   2.005  16.658 -0.6490 -0.1931 -0.5896
12181TIP3    H157958   2.253   1.943  16.665  0.8303 -2.1968 -1.9217
12181TIP3    H257959   2.285   2.084  16.623 -2.1504 -1.4259 -1.7930
12182TIP3   OH257960   2.006   2.276   0.467  0.6058  0.0800  0.5254
12182TIP3    H157961   1.991   2.247   0.557  2.0959 -0.5165  0.5982
12182TIP3    H257962   1.972   2.205   0.413  1.7132 -0.5648  0.6611
12183TIP3   OH257963   3.343   5.256   1.523  0.0138  0.3203  0.4225
12183TIP3    H157964   3.252   5.278   1.505  0.3281  1.5461  0.1753
12183TIP3    H257965   3.380   5.337   1.559  0.8040 -0.4097  1.2979
12184TIP3   OH257966   3.574   0.980   2.599  0.3011 -0.2411  0.3764
12184TIP3    H157967   3.577   1.074   2.615 -0.8581 -0.3242  1.2096
12184TIP3    H257968   3.489   0.953   2.633 -0.9563 -1.0314 -2.9988
12185TIP3   OH257969   1.042   6.082   2.500 -0.1869 -0.2866  0.4319
12185TIP3    H157970   0.975   6.013   2.492 -0.4516  0.0942 -0.8261
12185TIP3    H257971   1.000   6.160   2.463  0.3355  0.4051  1.2730
12186TIP3   OH257972   0.783   0.065   4.313 -0.0145 -0.0282 -0.1873
12186TIP3    H157973   0.732   0.135   4.353 -0.1169 -0.7820  1.0417
12186TIP3    H257974   0.729  -0.013   4.320  0.9054 -0.6463  0.2763
12187TIP3   OH257975   5.539   1.859   5.781  0.0015  1.3186  0.6605
12187TIP3    H157976   5.529   1.891   5.691 -0.7288  0.4973  0.4319
12187TIP3    H257977   5.630   1.827   5.785 -0.1550  0.7624  0.0021
12188TIP3   OH257978   5.665   2.902   4.239 -0.0819  0.0991  0.4655
12188TIP3    H157979   5.681   2.853   4.319  2.6177 -0.1020 -0.0999
12188TIP3    H257980   5.740   2.962   4.232 -0.9187  1.0432 -1.2375
12189TIP3   OH257981   0.974   2.361  15.161 -0.1615 -0.4490  0.1065
12189TIP3    H157982   0.961   2.343  15.068 -0.0747  0.7829 -0.1590
12189TIP3    H257983   0.885   2.369  15.197 -0.2310  1.4592 -0.3816
12190TIP3   OH257984   2.518   4.051  11.408  0.4122 -0.5695  0.2385
12190TIP3    H157985   2.595   4.084  11.362 -1.3508  0.4531 -2.1932
12190TIP3    H257986   2.472   4.129  11.437 -0.6231 -1.0760  0.0148
12191TIP3   OH257987   1.342   3.341   3.121 -0.3703  0.1818  0.5301
12191TIP3    H157988   1.286   3.314   3.194  0.2763  0.2968  1.0734
12191TIP3    H257989   1.320   3.433   3.106 -2.3280 -0.4843 -1.0951
12192TIP3   OH257990   1.493   5.328   0.974 -0.8355 -0.2617 -0.2984
12192TIP3    H157991   1.560   5.386   0.938 -1.4824 -0.1458 -1.3734
12192TIP3    H257992   1.469   5.367   1.058  0.2974 -0.2042  0.0129
12193TIP3   OH257993   0.177   1.250   1.508 -0.8995  0.3115 -0.0444
12193TIP3    H157994   0.231   1.197   1.449  1.1045  2.5999 -0.3863
12193TIP3    H257995   0.089   1.214   1.498 -0.1832 -0.9851 -2.5224
12194TIP3   OH257996   0.716   0.367   5.125 -0.1440 -0.1249 -0.3839
12194TIP3    H157997   0.711   0.272   5.135  2.6102 -0.2326  0.5924
12194TIP3    H257998   0.780   0.380   5.054  2.0846  0.9508  1.6959
12195TIP3   OH257999   2.457   6.350  11.503 -0.8195  0.3568 -0.0101
12195TIP3    H158000   2.475   6.401  11.582 -2.0370  0.5207  0.1862
12195TIP3    H258001   2.483   6.408  11.431 -1.6322  1.0332  0.2261
12196TIP3   OH258002   2.664   2.365   1.098 -0.0140 -0.5928 -0.3512
12196TIP3    H158003   2.590   2.423   1.116 -0.6801 -1.1719 -1.1477
12196TIP3    H258004   2.731   2.393   1.159 -0.3862  0.8872 -0.5779
12197TIP3   OH258005   3.646   5.370  13.342  0.3076 -0.0042  0.3902
12197TIP3    H158006   3.730   5.373  13.296  2.0062 -0.3799  3.2231
12197TIP3    H258007   3.608   5.286  13.316  0.8873  0.0787 -0.8049
12198TIP3   OH258008   4.922   4.784   3.948  0.8100  0.0452 -0.3725
12198TIP3    H158009   5.003   4.833   3.958  0.4165  0.9812 -1.5724
12198TIP3    H258010   4.915   4.767   3.854 -0.5717  0.3210 -0.3439
12199TIP3   OH258011   3.274   0.860   0.762 -0.0912  0.3702  0.0875
12199TIP3    H158012   3.278   0.786   0.702 -2.8460  0.7842 -0.7527
12199TIP3    H258013   3.328   0.928   0.720 -1.0008  0.2459 -1.3391
12200TIP3   OH258014   5.514   4.549  16.409  0.1365  0.9070  0.3974
12200TIP3    H158015   5.606   4.531  16.390  0.1577  0.6744  0.7210
12200TIP3    H258016   5.473   4.555  16.323  0.4513  1.0065  0.2525
12201TIP3   OH258017   6.457   2.437   0.256 -0.1350 -0.2933 -0.4244
12201TIP3    H158018   6.369   2.470   0.273  0.1655 -0.7644  2.4660
12201TIP3    H258019   6.515   2.507   0.283  0.4446 -0.1617 -1.8911
12202TIP3   OH258020   0.028   2.783  12.666 -0.1175 -0.1618  0.2947
12202TIP3    H158021   0.008   2.731  12.744 -0.4893 -1.1820 -0.4636
12202TIP3    H258022  -0.057   2.795  12.623 -0.0324  1.0636  0.4413
12203TIP3   OH258023   6.482   1.345   0.295  0.0110 -0.2917 -0.4018
12203TIP3    H158024   6.538   1.414   0.260 -1.8780  1.6171  0.1104
12203TIP3    H258025   6.479   1.361   0.389 -2.2919  0.4640 -0.5298
12204TIP3   OH258026   5.191   6.718   0.087  0.0442 -0.5921 -0.0074
12204TIP3    H158027   5.209   6.692  -0.003 -1.3033  1.1203 -0.8546
12204TIP3    H258028   5.234   6.804   0.096 -2.1978  0.6130 -0.0438
12205TIP3   OH258029   4.075   5.088   5.145  0.1648  0.6162  0.0257
12205TIP3    H158030   4.018   5.159   5.114 -0.5200 -0.4038 -1.1708
12205TIP3    H258031   4.030   5.054   5.222  0.2719  1.1984  0.3490
12206TIP3   OH258032   0.029   4.629   1.344 -0.1168 -0.4583  0.7128
12206TIP3    H158033  -0.054   4.658   1.307 -0.2104 -1.4557  0.1116
12206TIP3    H258034   0.044   4.688   1.419  0.2977  1.8922 -1.1005
12207TIP3   OH258035   0.714   6.124  15.216 -0.2688  0.1158  0.2627
12207TIP3    H158036   0.766   6.050  15.247 -1.3766 -0.0134  1.9344
12207TIP3    H258037   0.656   6.087  15.150  2.0268  0.3625 -2.0522
12208TIP3   OH258038   5.876   1.313   0.623  0.5431  0.4025  0.6113
12208TIP3    H158039   5.845   1.234   0.579 -0.0130  0.5564  0.7152
12208TIP3    H258040   5.887   1.377   0.553  1.1377  0.1932  0.5079
12209TIP3   OH258041   2.535   6.445  13.866 -0.0265  0.5860  0.9063
12209TIP3    H158042   2.485   6.377  13.822 -0.0525  0.6638  0.8143
12209TIP3    H258043   2.610   6.461  13.808  0.6605 -0.2588  1.5498
12210TIP3   OH258044   1.823   4.593  16.030 -0.0328 -0.2343 -0.6342
12210TIP3    H158045   1.792   4.682  16.015  0.0607  0.0169  0.5614
12210TIP3    H258046   1.916   4.603  16.051 -0.5086 -0.3523  1.7499
12211TIP3   OH258047   5.198   3.989   5.801 -0.3325  0.2866 -0.0527
12211TIP3    H158048   5.234   4.043   5.872  1.7091 -0.7410 -0.2464
12211TIP3    H258049   5.193   3.901   5.838 -0.4854 -0.0210 -0.7862
12212TIP3   OH258050   0.613   1.363  15.730  0.1726  0.3641 -0.1436
12212TIP3    H158051   0.618   1.330  15.640 -0.1244  0.7928 -0.3197
12212TIP3    H258052   0.522   1.350  15.756  0.1740  0.5639 -0.0325
12213TIP3   OH258053   3.664   1.919   1.549 -0.1510  0.5930 -0.8379
12213TIP3    H158054   3.747   1.877   1.527 -1.1252 -1.0985 -1.4828
12213TIP3    H258055   3.597   1.856   1.521 -1.6357  1.5854  0.3178
12214TIP3   OH258056   1.149   3.503   4.948  0.2266  0.0792 -0.2952
12214TIP3    H158057   1.218   3.472   5.007 -0.6151  1.2219  1.3563
12214TIP3    H258058   1.177   3.591   4.923 -0.3644  0.3372 -0.0506
12215TIP3   OH258059   1.790   3.038   1.199  0.4817 -0.2477  0.0165
12215TIP3    H158060   1.837   3.064   1.120  1.2881 -1.2380  0.1532
12215TIP3    H258061   1.713   3.095   1.201 -0.7862 -1.7104 -2.7247
12216TIP3   OH258062   5.905   1.233   5.679 -0.5137  0.3048  0.1552
12216TIP3    H158063   5.899   1.223   5.774  1.6968  0.3053  0.3410
12216TIP3    H258064   5.948   1.318   5.666  1.1489 -0.6311 -0.7501
12217TIP3   OH258065   1.839   2.064   0.336 -0.4823  0.3831 -0.0025
12217TIP3    H158066   1.812   1.985   0.382  0.2844 -0.0096 -0.2010
12217TIP3    H258067   1.760   2.096   0.293 -0.9907  0.2213  0.8004
12218TIP3   OH258068   4.074   3.117   6.592  0.0939 -0.0879 -0.4395
12218TIP3    H158069   3.983   3.139   6.608 -0.2132 -2.0921  0.9368
12218TIP3    H258070   4.124   3.190   6.627 -0.9294  0.0260  0.8187
12219TIP3   OH258071   0.940   2.224  13.991  0.3807 -0.0344 -0.1093
12219TIP3    H158072   0.902   2.303  14.031  2.5583  0.1746  1.7373
12219TIP3    H258073   0.868   2.186  13.941 -1.1686  2.2931  0.1767
12220TIP3   OH258074   6.289   2.225  12.465 -0.4815  0.0938 -0.1967
12220TIP3    H158075   6.309   2.310  12.503 -0.5076  0.1124 -0.2246
12220TIP3    H258076   6.195   2.229  12.445 -0.2229  0.5581 -1.4351
12221TIP3   OH258077   1.611   1.461   4.739  0.2007  0.4249  0.1447
12221TIP3    H158078   1.608   1.542   4.688 -1.0006 -0.3724 -1.1128
12221TIP3    H258079   1.550   1.402   4.695 -0.4618 -0.5112  2.1930
12222TIP3   OH258080   0.787   0.266  12.012  0.1977  0.3832 -0.4098
12222TIP3    H158081   0.761   0.358  12.017  0.1082  0.4543 -1.6534
12222TIP3    H258082   0.796   0.250  11.918  1.6157 -0.4983 -0.1465
12223TIP3   OH258083   0.826   1.321  14.777 -0.1816  0.0380  0.4900
12223TIP3    H158084   0.748   1.272  14.802  0.3049  0.3567  2.8702
12223TIP3    H258085   0.794   1.407  14.751 -0.5931  0.3749  2.0676
12224TIP3   OH258086   4.823   1.676  15.293 -0.5263  0.6048 -0.0814
12224TIP3    H158087   4.758   1.611  15.268 -0.4322 -0.6644  2.5584
12224TIP3    H258088   4.780   1.730  15.359 -0.1593  2.4284 -1.2568
12225TIP3   OH258089   0.955   2.632   0.839  0.1159 -0.2970 -0.1241
12225TIP3    H158090   0.967   2.727   0.844 -0.6321 -0.1370 -0.9693
12225TIP3    H258091   0.901   2.610   0.915 -2.7375  0.5347 -1.7452
12226TIP3   OH258092   0.129   4.035  12.576  0.1458 -0.1618  0.1395
12226TIP3    H158093   0.162   4.104  12.633 -1.7826  0.1946  0.9170
12226TIP3    H258094   0.168   3.955  12.609  0.4122  0.2576  0.8566
12227TIP3   OH258095   4.496   5.243  16.286 -0.1526 -0.2641  0.4151
12227TIP3    H158096   4.556   5.283  16.223 -2.3783  0.8766 -1.1090
12227TIP3    H258097   4.451   5.318  16.327 -0.6392 -1.0873  1.4356
12228TIP3   OH258098   1.461   3.377  16.352 -0.0541  0.0897  1.1726
12228TIP3    H158099   1.531   3.436  16.324 -0.8474  0.0628 -1.0803
12228TIP3    H258100   1.486   3.291  16.318 -0.9719  0.0113  0.6524
12229TIP3   OH258101   1.726   5.284   4.321  0.2729  0.3495  0.3381
12229TIP3    H158102   1.804   5.288   4.376  0.8956 -2.2804 -0.2168
12229TIP3    H258103   1.744   5.344   4.249  2.2868 -0.8983 -0.2803
12230TIP3   OH258104   1.937   0.058  13.911  0.7069  0.7863  0.2610
12230TIP3    H158105   1.968   0.018  13.829 -2.5084 -1.0218 -0.2343
12230TIP3    H258106   1.945   0.152  13.896  0.0494  0.5281 -2.2356
12231TIP3   OH258107   0.923   2.701  17.225  0.0439  0.0472  0.0087
12231TIP3    H158108   0.907   2.655  17.143  0.1307  2.4720 -1.4655
12231TIP3    H258109   0.981   2.643  17.274  1.9066 -0.5311 -2.6490
12232TIP3   OH258110   3.555   5.626   5.804  0.0869  0.2385 -0.3539
12232TIP3    H158111   3.465   5.613   5.833 -1.1658  1.8797 -3.1455
12232TIP3    H258112   3.569   5.557   5.739  0.1179  1.1792 -1.3625
12233TIP3   OH258113   2.664   5.555   4.963 -0.3455 -0.2924  0.2931
12233TIP3    H158114   2.664   5.602   5.046 -1.2885  0.0371  0.1189
12233TIP3    H258115   2.674   5.624   4.897  0.8399 -0.5909  0.1384
12234TIP3   OH258116   5.064   5.385  12.792  0.2848  0.2227 -0.1147
12234TIP3    H158117   5.008   5.441  12.737 -1.2597 -0.0995  1.0726
12234TIP3    H258118   5.113   5.447  12.847  0.5549  0.4843 -0.6404
12235TIP3   OH258119   3.690   2.459   4.394  0.3523  0.3982  0.0819
12235TIP3    H158120   3.640   2.380   4.374  0.4591  0.1605  0.7221
12235TIP3    H258121   3.747   2.434   4.467 -0.3993  1.3611  1.0421
12236TIP3   OH258122   0.753   0.855  17.229 -0.1546 -0.1545 -0.0937
12236TIP3    H158123   0.694   0.867  17.303  1.2971 -1.6786  1.3870
12236TIP3    H258124   0.695   0.834  17.155 -1.4973 -1.2756  1.2240
12237TIP3   OH258125   3.494   5.544   1.269 -0.3868  0.0316 -0.1063
12237TIP3    H158126   3.433   5.490   1.220  0.5049 -0.4380 -0.7292
12237TIP3    H258127   3.448   5.566   1.350 -1.0165 -1.0968 -0.1462
12238TIP3   OH258128   3.824   3.901   1.141 -0.3451  0.7122  0.4344
12238TIP3    H158129   3.831   3.984   1.188  0.0617  0.6794  0.4332
12238TIP3    H258130   3.904   3.853   1.163 -1.6912 -0.7477  2.4260
12239TIP3   OH258131   2.524   6.503   4.052  0.3938 -0.3970 -0.0745
12239TIP3    H158132   2.535   6.498   3.957  0.7765 -2.3322  0.0215
12239TIP3    H258133   2.474   6.583   4.067  1.4130  0.6099 -1.7894
12240TIP3   OH258134   1.087   0.768  11.203 -0.1802  0.0538 -0.6357
12240TIP3    H158135   1.011   0.722  11.167 -0.2052 -2.1397  1.9422
12240TIP3    H258136   1.064   0.785  11.294  0.9870  2.7960 -0.7722
12241TIP3   OH258137   2.362   5.832   5.316 -0.4236  0.2968  0.6846
12241TIP3    H158138   2.282   5.830   5.264 -0.4811 -1.4876  0.7664
12241TIP3    H258139   2.332   5.836   5.407 -0.4401 -0.1681  0.7058
12242TIP3   OH258140   5.260   0.478  13.242 -0.3757 -0.1776  0.1822
12242TIP3    H158141   5.276   0.548  13.306  2.5882  0.7893 -1.3960
12242TIP3    H258142   5.204   0.518  13.176  0.6480  0.5041 -0.2998
12243TIP3   OH258143   2.119   0.005  14.924  0.3516 -0.3152  0.0740
12243TIP3    H158144   2.196  -0.002  14.981 -0.4472 -0.2623  1.1856
12243TIP3    H258145   2.075  -0.080  14.932 -0.2058 -0.0207  0.1802
12244TIP3   OH258146   5.635   3.138  14.909  0.0774  0.2045 -0.0594
12244TIP3    H158147   5.704   3.072  14.911 -1.1224 -1.3260 -2.9739
12244TIP3    H258148   5.569   3.102  14.850 -2.6878  2.1447  1.6000
12245TIP3   OH258149   0.408   2.631   5.569  0.3553 -0.0253 -0.0681
12245TIP3    H158150   0.488   2.579   5.578 -0.0703 -0.6397  0.2932
12245TIP3    H258151   0.438   2.720   5.557  1.0897 -0.0951  1.0917
12246TIP3   OH258152   0.016   0.609   4.046  0.3521  0.7426  0.5423
12246TIP3    H158153   0.017   0.682   3.984 -0.1752  1.0795  0.9182
12246TIP3    H258154   0.104   0.572   4.040 -0.1353 -0.2267 -1.5518
12247TIP3   OH258155   1.761   5.463   4.094 -0.3103 -0.7055  0.0108
12247TIP3    H158156   1.855   5.454   4.078 -0.0314 -1.8683  1.9755
12247TIP3    H258157   1.741   5.553   4.071  1.3875 -0.3027 -0.0075
12248TIP3   OH258158   2.265   5.084  15.067  0.4406 -0.3240  0.3782
12248TIP3    H158159   2.314   5.162  15.042  1.4696 -1.0424  0.0602
12248TIP3    H258160   2.183   5.117  15.104  0.1491  0.8554 -1.2190
12249TIP3   OH258161   3.887   3.528   5.244 -0.1935 -0.0104  0.5976
12249TIP3    H158162   3.828   3.590   5.203 -0.3989 -1.3863 -1.3275
12249TIP3    H258163   3.837   3.491   5.317 -0.3081  1.5146  1.3269
12250TIP3   OH258164   6.657   4.324  10.696 -0.3339  0.0272  0.6642
12250TIP3    H158165   6.698   4.279  10.622 -0.5884 -1.7118  1.5488
12250TIP3    H258166   6.627   4.407  10.658  0.9696 -0.1090 -0.7907
12251TIP3   OH258167   3.866   5.310  15.036  0.2940  0.0728  0.2161
12251TIP3    H158168   3.847   5.402  15.050 -0.1427 -0.0211  0.2737
12251TIP3    H258169   3.948   5.309  14.987 -0.2828  0.5341 -0.7870
12252TIP3   OH258170   4.645   3.097  11.772 -0.5125 -0.2710  0.3715
12252TIP3    H158171   4.641   3.042  11.694  0.6818 -0.9942  0.7916
12252TIP3    H258172   4.636   3.036  11.845  0.8589  0.0560  0.8495
12253TIP3   OH258173   6.497   3.588   4.880  0.3545 -0.0175 -0.2478
12253TIP3    H158174   6.522   3.680   4.870  2.1327 -0.4840 -0.4257
12253TIP3    H258175   6.473   3.560   4.792 -0.0897  0.2470 -0.2117
12254TIP3   OH258176   1.657   0.304  14.549  0.2907 -0.0295 -0.5165
12254TIP3    H158177   1.568   0.310  14.515  0.7131 -0.1341 -1.6978
12254TIP3    H258178   1.656   0.227  14.605  0.0456 -1.1060 -1.9287
12255TIP3   OH258179   2.090   5.343  14.548  0.7971 -0.0633  0.0871
12255TIP3    H158180   2.110   5.430  14.583  0.6890 -0.7337  1.9189
12255TIP3    H258181   1.996   5.346  14.531  0.8219  0.2236 -0.0108
12256TIP3   OH258182   0.220   3.612  13.309 -0.0413  0.1225 -0.1498
12256TIP3    H158183   0.244   3.525  13.340 -1.7873 -0.5478 -0.5730
12256TIP3    H258184   0.303   3.659  13.304  0.9913 -1.6116 -0.2226
12257TIP3   OH258185   6.274   4.208   5.588 -0.4814  0.0175  0.0160
12257TIP3    H158186   6.353   4.178   5.543  0.6659  2.0670  0.4815
12257TIP3    H258187   6.304   4.229   5.677 -1.6974  0.2161  0.4008
12258TIP3   OH258188   1.215   3.667  12.408 -0.2748  0.1561 -0.6219
12258TIP3    H158189   1.296   3.618  12.420  0.2935  1.5591  2.1892
12258TIP3    H258190   1.146   3.605  12.430  0.2764 -0.1314  0.3714
12259TIP3   OH258191   5.721   4.501   4.025 -0.0940  0.9266 -0.0089
12259TIP3    H158192   5.743   4.488   4.118 -0.0962  1.3402  0.0519
12259TIP3    H258193   5.661   4.429   4.004  0.1941  0.6170  0.2102
12260TIP3   OH258194   0.091   3.195  13.397 -0.4934  0.2890 -0.5417
12260TIP3    H158195   0.017   3.253  13.378 -2.4842 -2.0506 -0.5275
12260TIP3    H258196   0.074   3.163  13.485  0.3792 -0.5124 -0.6482
12261TIP3   OH258197   2.503   0.729   5.066 -0.4278  0.2505 -0.0097
12261TIP3    H158198   2.567   0.800   5.069 -0.2106  0.1254 -1.2964
12261TIP3    H258199   2.555   0.649   5.066 -0.5240  0.1575 -1.8298
12262TIP3   OH258200   3.474   1.361  16.172 -0.2482  0.1132 -0.2632
12262TIP3    H158201   3.482   1.267  16.156 -0.7119  0.3872 -2.4399
12262TIP3    H258202   3.559   1.397  16.149 -0.6297  0.4119 -1.2678
12263TIP3   OH258203   4.993   4.502  16.964 -0.5918  0.1777 -0.0807
12263TIP3    H158204   4.994   4.555  17.044  1.8872  1.1707 -0.6635
12263TIP3    H258205   4.917   4.445  16.974 -1.2167  1.2895  2.2945
12264TIP3   OH258206   5.325   5.673   3.989  0.0290 -0.3553  0.4006
12264TIP3    H158207   5.294   5.743   4.047 -0.1933  0.4520 -0.6605
12264TIP3    H258208   5.248   5.648   3.938  0.4765 -0.2255 -0.3608
12265TIP3   OH258209   6.201   3.039   2.119  0.1734  0.0605  0.0162
12265TIP3    H158210   6.266   3.015   2.054 -1.1467 -0.6305 -1.1096
12265TIP3    H258211   6.135   3.088   2.070 -0.5931 -0.0167  0.9388
12266TIP3   OH258212   5.693   0.458   3.556  0.4027  0.1748  0.2973
12266TIP3    H158213   5.679   0.380   3.610 -2.5170  1.8095  2.2069
12266TIP3    H258214   5.758   0.509   3.604 -0.2275  0.4123  0.9273
12267TIP3   OH258215   2.292   0.709  16.806 -0.2079  0.1072  0.6090
12267TIP3    H158216   2.349   0.641  16.770 -0.4455  1.1672 -1.9684
12267TIP3    H258217   2.320   0.789  16.762 -0.6342  1.5373  2.7959
12268TIP3   OH258218   2.801   5.464  11.241 -0.6377  0.2145  0.4747
12268TIP3    H158219   2.800   5.560  11.232  0.7664  0.2088  0.0125
12268TIP3    H258220   2.797   5.432  11.151  1.9332 -0.0701  0.3888
12269TIP3   OH258221   4.796   0.520  10.583  0.2476 -0.3804  0.5259
12269TIP3    H158222   4.883   0.549  10.556 -0.2548  0.8463  0.1186
12269TIP3    H258223   4.741   0.598  10.572 -0.6028 -0.6780  2.2441
12270TIP3   OH258224   2.173   0.481  10.489  0.1566  0.1194 -0.3044
12270TIP3    H158225   2.116   0.427  10.434  1.5104  1.4998 -3.3310
12270TIP3    H258226   2.162   0.570  10.455  1.1328  1.0715  1.7031
12271TIP3   OH258227   0.127   2.851   2.175  0.1570 -0.1275  0.0275
12271TIP3    H158228   0.139   2.932   2.124 -0.0256 -0.0241  0.1476
12271TIP3    H258229   0.125   2.781   2.110 -1.6936  0.1481 -0.2536
12272TIP3   OH258230   1.261   2.087   5.728  0.2873 -0.2204  0.4234
12272TIP3    H158231   1.344   2.123   5.761  0.2044 -0.6656  1.1531
12272TIP3    H258232   1.201   2.094   5.802 -0.6584  1.0806 -0.4166
12273TIP3   OH258233   4.332   6.509  17.115  0.4954  0.3943  0.1311
12273TIP3    H158234   4.331   6.473  17.026 -0.1065 -1.4125  0.8142
12273TIP3    H258235   4.249   6.557  17.122 -0.8076 -1.7642  0.5314
12274TIP3   OH258236   3.318   1.751  11.693 -0.7835  0.0401 -0.3390
12274TIP3    H158237   3.375   1.787  11.762 -0.9201 -2.2178  1.0343
12274TIP3    H258238   3.378   1.735  11.620 -0.3423  1.0173 -0.2136
12275TIP3   OH258239   1.407   6.284  11.799 -0.3087  0.4369  0.2647
12275TIP3    H158240   1.503   6.288  11.798 -0.2622 -0.4866  0.1455
12275TIP3    H258241   1.382   6.292  11.708 -0.2387 -1.1885  0.0808
12276TIP3   OH258242   1.415   5.498  13.410  0.1663  0.1357 -0.5676
12276TIP3    H158243   1.490   5.438  13.408 -0.4943 -0.6891 -1.1325
12276TIP3    H258244   1.349   5.455  13.356 -1.0504  0.4173  0.6631
12277TIP3   OH258245   1.481   1.144  15.154  0.9695 -0.5140  0.0749
12277TIP3    H158246   1.563   1.157  15.106  0.8332 -0.8170 -0.2441
12277TIP3    H258247   1.487   1.055  15.188  0.5085 -0.7607 -0.4712
12278TIP3   OH258248   4.656   5.086   2.154  0.3731  0.2183 -0.5709
12278TIP3    H158249   4.626   5.096   2.245  1.1996 -0.5182 -0.1973
12278TIP3    H258250   4.746   5.119   2.155  0.2162  0.6780 -1.2472
12279TIP3   OH258251   2.329   2.543   5.974  0.2753 -0.2435 -0.1596
12279TIP3    H158252   2.323   2.591   6.056  0.0898 -1.3732  0.5108
12279TIP3    H258253   2.286   2.459   5.992 -0.8748 -0.0475 -1.7836
12280TIP3   OH258254   6.397   1.140  16.672 -0.3897 -0.5718  0.2198
12280TIP3    H158255   6.412   1.048  16.694  2.1321 -0.2626  0.0820
12280TIP3    H258256   6.324   1.166  16.729 -0.6981 -2.4579  0.7712
12281TIP3   OH258257   0.916   5.655  14.594 -0.0037 -0.2638  0.1543
12281TIP3    H158258   0.938   5.676  14.503  1.0149 -1.0727  0.2019
12281TIP3    H258259   1.001   5.643  14.637 -0.4089  1.4949  1.5704
12282TIP3   OH258260   3.792   2.039  17.081 -0.0437  0.0870  0.2811
12282TIP3    H158261   3.715   2.071  17.127  0.4225  2.1616 -0.2959
12282TIP3    H258262   3.842   2.118  17.059  1.4632 -1.0879 -0.7336
12283TIP3   OH258263   5.294   0.976  15.886  0.2461 -0.1563  0.1824
12283TIP3    H158264   5.233   0.906  15.910 -0.7585 -0.4260 -2.7518
12283TIP3    H258265   5.321   0.955  15.797  2.5836  1.4327  0.4169
12284TIP3   OH258266   1.411   3.123   2.422 -0.2964 -0.5166 -0.0430
12284TIP3    H158267   1.374   3.163   2.343  2.1534 -0.5145 -1.2971
12284TIP3    H258268   1.422   3.030   2.399  0.6153 -0.4814  0.1967
12285TIP3   OH258269   5.412   1.861   4.263  0.7539 -0.4630  0.3515
12285TIP3    H158270   5.463   1.786   4.293 -1.1586 -2.0349 -0.1265
12285TIP3    H258271   5.323   1.845   4.294 -0.4645 -0.1704 -2.5867
12286TIP3   OH258272   5.009   2.679  13.068 -0.5954  0.3498 -0.0398
12286TIP3    H158273   5.000   2.704  13.160  0.7608 -1.0279  0.5002
12286TIP3    H258274   5.090   2.721  13.040  0.4802 -1.4570  0.2254
12287TIP3   OH258275   4.166   1.393  13.482  0.6386 -0.3278 -0.0598
12287TIP3    H158276   4.118   1.320  13.522 -0.6871 -0.3753 -1.6556
12287TIP3    H258277   4.104   1.466  13.484  0.9100 -0.0644 -1.1041
12288TIP3   OH258278   4.917   6.700  16.982 -0.0511 -0.4370  0.3880
12288TIP3    H158279   4.932   6.786  17.021 -0.8701 -1.4854  3.2645
12288TIP3    H258280   4.835   6.670  17.020  0.1242 -2.4212 -0.6680
12289TIP3   OH258281   4.173   3.390  13.142  0.4967  0.2942  0.2370
12289TIP3    H158282   4.216   3.305  13.139 -0.0763 -0.0055  0.3281
12289TIP3    H258283   4.110   3.387  13.069  0.8395  0.8398 -0.0856
12290TIP3   OH258284   1.779   1.232  12.185 -0.1844  0.1543  0.0114
12290TIP3    H158285   1.716   1.304  12.183  1.7211  1.9498  0.5316
12290TIP3    H258286   1.850   1.260  12.128 -0.2571 -2.3097 -1.4642
12291TIP3   OH258287   1.695   2.621   2.982  0.6435 -0.0257 -0.7470
12291TIP3    H158288   1.763   2.676   2.944 -0.0381  1.6083  0.2942
12291TIP3    H258289   1.638   2.599   2.908  0.7236  0.9961 -1.1303
12292TIP3   OH258290   4.226   3.713   1.938  0.3007 -0.0230  0.2279
12292TIP3    H158291   4.234   3.723   2.033 -0.2790 -0.6300  0.3504
12292TIP3    H258292   4.273   3.632   1.919 -1.9092 -1.4359  0.4055
12293TIP3   OH258293   2.456   2.678   1.765 -0.0532  0.3214  0.6481
12293TIP3    H158294   2.473   2.696   1.672 -0.9068  1.5054  0.6950
12293TIP3    H258295   2.361   2.669   1.771  0.1157 -1.4385  1.1523
12294TIP3   OH258296   3.131   1.435   4.291  0.1793 -0.4277 -0.1930
12294TIP3    H158297   3.069   1.406   4.359  0.2706 -1.3173 -0.4688
12294TIP3    H258298   3.213   1.391   4.314 -0.1740 -2.0186 -1.7115
12295TIP3   OH258299   0.145   4.492  15.662  0.4555 -0.1166 -0.0977
12295TIP3    H158300   0.232   4.527  15.679  1.1143 -1.5668 -0.4043
12295TIP3    H258301   0.087   4.548  15.714  1.1956  2.6924 -2.0813
12296TIP3   OH258302   1.122   5.159   3.185  0.2827 -0.0830  0.1153
12296TIP3    H158303   1.151   5.248   3.204 -1.3861  0.5910 -0.3386
12296TIP3    H258304   1.036   5.152   3.227 -0.1709 -1.0432 -0.9197
12297TIP3   OH258305   1.420   5.512   5.067 -0.0612  0.2115 -0.0365
12297TIP3    H158306   1.434   5.584   5.127 -2.9438 -0.0774  1.1632
12297TIP3    H258307   1.479   5.529   4.994  1.1193  2.3999  1.3319
12298TIP3   OH258308   6.376   4.742  15.325 -0.1130  0.1618 -0.1555
12298TIP3    H158309   6.306   4.681  15.347 -0.2676 -0.3792 -1.9634
12298TIP3    H258310   6.450   4.686  15.301  0.9856  0.7300  1.7690
12299TIP3   OH258311   6.134   4.140   4.179  0.5210  0.1874  0.2870
12299TIP3    H158312   6.158   4.070   4.119 -1.3719  0.0629 -0.4016
12299TIP3    H258313   6.216   4.186   4.197  1.2557 -0.1595 -1.8984
12300TIP3   OH258314   2.882   6.726  16.499 -0.0941 -0.1376 -0.8225
12300TIP3    H158315   2.911   6.637  16.520  0.2973  0.0585 -0.5027
12300TIP3    H258316   2.932   6.750  16.422  0.3501  0.0744 -0.4730
12301TIP3   OH258317   3.044   2.690  11.028  0.0981 -0.3874 -0.6946
12301TIP3    H158318   2.978   2.661  10.965 -0.7078  0.2099 -0.1362
12301TIP3    H258319   3.046   2.785  11.018 -1.0787 -0.1139  1.1580
12302TIP3   OH258320   2.158   0.637  15.944 -0.0101  0.3173 -0.1968
12302TIP3    H158321   2.078   0.647  15.893 -0.0960  0.3514 -0.0514
12302TIP3    H258322   2.130   0.605  16.029  0.1754 -0.2067 -0.3247
12303TIP3   OH258323   1.605   2.927   3.177  0.2234  0.3139 -0.3573
12303TIP3    H158324   1.686   2.879   3.157 -0.4309 -0.6561 -0.7896
12303TIP3    H258325   1.634   3.004   3.225  1.1954 -1.3795  1.9494
12304TIP3   OH258326   5.347   0.164   0.104  0.4467 -0.4475 -0.1572
12304TIP3    H158327   5.318   0.240   0.153  1.1298  1.0365 -1.9473
12304TIP3    H258328   5.418   0.127   0.156  0.0228  0.0395  0.7875
12305TIP3   OH258329   5.532   4.413  13.547  0.5756  0.0719 -0.2408
12305TIP3    H158330   5.559   4.322  13.539 -0.5264 -0.2360 -0.8256
12305TIP3    H258331   5.526   4.429  13.641 -0.8007 -0.9845 -0.1186
12306TIP3   OH258332   4.362   3.547   1.096  0.2001 -0.0702  0.5463
12306TIP3    H158333   4.292   3.611   1.106 -0.3148  0.0732 -2.8823
12306TIP3    H258334   4.318   3.462   1.098 -0.1030  0.0070 -1.2522
12307TIP3   OH258335   3.808   5.492   2.120  0.3018 -0.1638  0.1424
12307TIP3    H158336   3.810   5.564   2.057  0.3564  0.1502  0.5020
12307TIP3    H258337   3.735   5.513   2.178 -0.6726 -1.1822 -0.6659
12308TIP3   OH258338   0.577   3.414   3.137 -0.3986 -0.5853  0.1157
12308TIP3    H158339   0.503   3.364   3.173  0.1559 -1.3290  0.2403
12308TIP3    H258340   0.634   3.348   3.098 -0.9553  0.1821 -2.1309
12309TIP3   OH258341   4.163   5.033  14.090  0.0243 -0.1446  0.0415
12309TIP3    H158342   4.096   5.099  14.072  0.3858 -0.0981 -1.2221
12309TIP3    H258343   4.246   5.079  14.079  0.2865 -0.8820 -1.2810
12310TIP3   OH258344   4.550   2.343   1.235  0.1074  0.5675 -0.3740
12310TIP3    H158345   4.585   2.380   1.316 -1.1703  1.1707 -0.0731
12310TIP3    H258346   4.514   2.258   1.261 -0.1779  0.7012 -0.3192
12311TIP3   OH258347   5.220   3.201   5.876 -0.3633 -0.0483  0.0877
12311TIP3    H158348   5.204   3.109   5.859  0.3334 -0.6323  2.2589
12311TIP3    H258349   5.136   3.235   5.908 -0.5216 -0.0204 -0.3561
12312TIP3   OH258350   1.217   3.359   5.378  0.1319  0.0722 -0.2768
12312TIP3    H158351   1.148   3.425   5.373  0.8802  0.8003 -1.7288
12312TIP3    H258352   1.171   3.276   5.392 -0.8115  0.9017  2.0400
12313TIP3   OH258353   6.626   2.889   2.998 -0.1483 -0.3257  0.3951
12313TIP3    H158354   6.619   2.795   2.982  0.0144 -0.1756 -0.6287
12313TIP3    H258355   6.604   2.930   2.914 -1.8563  0.6279  1.2426
12314TIP3   OH258356   2.109   6.329   6.406  0.4277  0.1351 -0.0341
12314TIP3    H158357   2.080   6.268   6.474  0.0943  0.3898  0.0562
12314TIP3    H258358   2.114   6.276   6.326 -0.9178  0.2142 -0.1948
12315TIP3   OH258359   6.459   4.650  14.522 -0.3189  0.2679 -0.6592
12315TIP3    H158360   6.535   4.593  14.539  0.1245 -0.1286 -3.4834
12315TIP3    H258361   6.388   4.609  14.570  0.2021 -2.2266 -1.8416
12316TIP3   OH258362   3.596   1.184   0.259  0.0013  0.2933  0.1513
12316TIP3    H158363   3.592   1.277   0.236 -0.2050 -0.3778 -2.9522
12316TIP3    H258364   3.617   1.139   0.177 -2.5471 -2.6524  0.9181
12317TIP3   OH258365   4.260   1.179  14.910  0.2248  0.3021  0.0175
12317TIP3    H158366   4.242   1.261  14.863 -0.8772  0.0596 -0.0025
12317TIP3    H258367   4.233   1.110  14.849 -1.2779 -0.0167  0.9902
12318TIP3   OH258368   2.897   5.249  13.950  0.8131  0.1705  0.4507
12318TIP3    H158369   2.878   5.234  13.858  0.8523  0.8834  0.3228
12318TIP3    H258370   2.961   5.182  13.973  0.2589 -0.4718  0.1562
12319TIP3   OH258371   6.498   3.593  15.289 -0.4178  0.2237  0.6839
12319TIP3    H158372   6.431   3.525  15.292  0.4521 -0.6589  0.5072
12319TIP3    H258373   6.526   3.602  15.381 -0.6636  0.4859  0.7352
12320TIP3   OH258374   0.831   6.418  13.723  0.1484 -0.1315  0.2061
12320TIP3    H158375   0.865   6.340  13.767  0.8114 -0.6121 -1.1222
12320TIP3    H258376   0.901   6.445  13.664 -0.3325  1.0982  0.1704
12321TIP3   OH258377   1.450   4.561   0.939  0.4674  0.0406  0.4469
12321TIP3    H158378   1.410   4.474   0.941  1.2821 -0.3477  0.0090
12321TIP3    H258379   1.453   4.584   0.847  0.5507  0.3941  0.5384
12322TIP3   OH258380   3.469   0.690   2.249 -0.6255  0.6103  0.7149
12322TIP3    H158381   3.412   0.758   2.215 -1.0494  0.1121  0.4118
12322TIP3    H258382   3.429   0.665   2.332  0.2775  1.6608  1.4970
12323TIP3   OH258383   0.977   0.459  10.703 -0.1850  0.2102 -0.3476
12323TIP3    H158384   0.962   0.387  10.641  1.4219  0.1572 -0.7232
12323TIP3    H258385   0.898   0.461  10.757 -0.1558 -2.0252 -0.1435
12324TIP3   OH258386   6.679   5.701   3.439 -0.0922  0.2421  0.1171
12324TIP3    H158387   6.734   5.628   3.410  0.2305  0.4230  0.2692
12324TIP3    H258388   6.599   5.660   3.471 -0.2285  0.0036 -0.5149
12325TIP3   OH258389   5.899   5.827   5.351 -0.3398  0.5411 -0.2620
12325TIP3    H158390   5.814   5.785   5.341 -0.0679  0.4555 -2.6382
12325TIP3    H258391   5.916   5.869   5.267  1.7632  0.9768  0.3088
12326TIP3   OH258392   6.501   2.716   0.399 -0.4445  0.0075 -0.2605
12326TIP3    H158393   6.434   2.748   0.461 -2.4573 -1.6558 -1.4422
12326TIP3    H258394   6.578   2.702   0.453 -1.2762  1.1957  1.3513
12327TIP3   OH258395   5.986   5.031  15.347 -0.5277 -0.3744 -0.0579
12327TIP3    H158396   5.921   5.099  15.336 -1.3009 -0.6429  2.2507
12327TIP3    H258397   6.063   5.063  15.301 -1.4193  1.2536 -0.4642
12328TIP3   OH258398   2.018   0.403   5.881  0.1960  0.0226 -0.4554
12328TIP3    H158399   2.020   0.342   5.955 -2.1848  0.3143 -0.0794
12328TIP3    H258400   2.105   0.444   5.882  0.5211 -0.5980  1.6585
12329TIP3   OH258401   3.439   2.720   6.563  0.1179 -0.0545 -0.4089
12329TIP3    H158402   3.482   2.708   6.647  0.5080 -0.2082 -0.6272
12329TIP3    H258403   3.425   2.815   6.557 -1.3579 -0.1951  0.5248
12330TIP3   OH258404   5.449   4.810  10.896 -0.3055 -0.2379 -0.0347
12330TIP3    H158405   5.426   4.803  10.803 -0.4319  2.0115 -0.2285
12330TIP3    H258406   5.505   4.734  10.912 -0.0807 -0.5557 -2.0208
12331TIP3   OH258407   3.977   5.100  13.590  0.2916 -0.3445  0.1158
12331TIP3    H158408   3.940   5.024  13.634  0.5547 -0.2333  0.5384
12331TIP3    H258409   4.033   5.141  13.656  0.3696  0.0581 -0.1943
12332TIP3   OH258410   3.643   1.824  13.733 -0.4178 -0.0633  0.3591
12332TIP3    H158411   3.719   1.802  13.787 -0.7961 -2.0999  0.1539
12332TIP3    H258412   3.607   1.739  13.707 -0.6001  0.8319 -2.6213
12333TIP3   OH258413   6.765   3.785  11.766  0.0705 -0.0037  0.2905
12333TIP3    H158414   6.836   3.757  11.823  1.5896  0.7644 -1.1411
12333TIP3    H258415   6.745   3.708  11.713  2.5590  0.7474 -1.9492
12334TIP3   OH258416   4.331   5.991  16.078 -0.6063  0.4613 -0.1188
12334TIP3    H158417   4.247   5.962  16.112 -1.7290  1.5010 -1.8632
12334TIP3    H258418   4.383   5.911  16.071 -1.7566 -0.3281  0.1438
12335TIP3   OH258419   1.457   0.548  15.542  0.3128  0.5350 -0.1953
12335TIP3    H158420   1.418   0.581  15.623  1.4846 -0.7866  0.9553
12335TIP3    H258421   1.471   0.627  15.489 -0.6134  1.4111  0.8034
12336TIP3   OH258422   3.782   5.581  11.128  0.5937  0.1624 -0.0266
12336TIP3    H158423   3.700   5.625  11.148 -0.6262 -1.9140 -0.1454
12336TIP3    H258424   3.830   5.643  11.074 -0.0347  2.1913  1.6275
12337TIP3   OH258425   5.336   1.813  11.353  0.2303 -0.1666  0.6578
12337TIP3    H158426   5.322   1.781  11.442  0.5005 -1.9698  0.0917
12337TIP3    H258427   5.431   1.809  11.341  0.3396  1.4899  0.7617
12338TIP3   OH258428   1.195   1.525   4.645 -0.9323 -0.4355  0.1815
12338TIP3    H158429   1.156   1.489   4.725 -1.1396 -0.3318  0.1258
12338TIP3    H258430   1.156   1.474   4.574 -0.2788 -0.9555  0.1825
12339TIP3   OH258431   3.467   5.651   5.246  0.1857 -0.6785  0.5082
12339TIP3    H158432   3.481   5.572   5.298  1.5418  0.5451  2.1460
12339TIP3    H258433   3.380   5.682   5.273 -0.2159 -1.4189  0.0915
12340TIP3   OH258434   3.897   4.981  11.781  0.7794  0.1446  0.1067
12340TIP3    H158435   3.964   4.913  11.771  0.4866 -0.1551  0.1522
12340TIP3    H258436   3.870   4.974  11.872  0.7466  0.3203  0.1098
12341TIP3   OH258437   0.596   1.217  16.812 -0.1596 -0.1522 -0.1119
12341TIP3    H158438   0.641   1.292  16.851 -2.1477  1.6931 -1.0950
12341TIP3    H258439   0.547   1.179  16.885 -0.5657  0.6745  0.0676
12342TIP3   OH258440   2.540   6.289  17.046 -0.9646 -0.4321 -0.3821
12342TIP3    H158441   2.610   6.308  16.984 -0.1186  0.1572  0.6977
12342TIP3    H258442   2.570   6.330  17.128 -1.9101 -1.3917  0.4756
12343TIP3   OH258443   4.898   3.762   0.861 -0.1573  0.1168  0.7729
12343TIP3    H158444   4.897   3.672   0.891  0.0878  0.3466  1.4919
12343TIP3    H258445   4.873   3.757   0.769  0.6742 -0.7683  0.5831
12344TIP3   OH258446   3.568   0.181   0.900  0.4889 -0.4347 -0.0165
12344TIP3    H158447   3.579   0.113   0.833  3.8930 -1.3092  1.2622
12344TIP3    H258448   3.617   0.256   0.866  2.5102 -0.9875  1.4933
12345TIP3   OH258449   3.383   1.116  15.682 -0.2977  0.3206 -0.4816
12345TIP3    H158450   3.402   1.194  15.734 -0.4814  0.6545 -0.9122
12345TIP3    H258451   3.463   1.064  15.687 -0.4919  0.1001  0.5686
12346TIP3   OH258452   1.967   2.620  11.693  0.0906  0.2176 -0.1332
12346TIP3    H158453   2.012   2.544  11.730  1.0180 -0.4926 -2.4666
12346TIP3    H258454   2.035   2.687  11.685  0.0038  0.2349 -0.8139
12347TIP3   OH258455   5.244   1.499  13.070 -0.5363 -0.3670  0.1927
12347TIP3    H158456   5.282   1.510  13.158  0.0887 -0.7339 -0.0275
12347TIP3    H258457   5.150   1.506  13.084 -0.3964  0.8478  0.7128
12348TIP3   OH258458   6.610   0.929   1.593 -0.5291 -0.5453 -0.1844
12348TIP3    H158459   6.540   0.896   1.536 -0.8540  0.3740 -0.3190
12348TIP3    H258460   6.691   0.901   1.549 -0.7907 -1.3848 -0.1634
12349TIP3   OH258461   0.713   1.304   0.924 -0.0288  0.4325 -0.3916
12349TIP3    H158462   0.664   1.342   0.851 -0.2214  0.4426 -0.2588
12349TIP3    H258463   0.688   1.357   1.000 -1.4866 -0.8630  0.0932
12350TIP3   OH258464   3.789   1.137   1.868 -0.0024  0.2606 -0.0584
12350TIP3    H158465   3.773   1.067   1.931  2.6830 -2.5153 -2.1395
12350TIP3    H258466   3.724   1.122   1.799 -0.9856  1.4240  0.5727
12351TIP3   OH258467   0.721   6.476  13.027  0.4752  0.4201 -0.3893
12351TIP3    H158468   0.741   6.476  12.933  0.9061 -0.7332 -0.3184
12351TIP3    H258469   0.718   6.569  13.051  0.7413  0.7227 -1.4566
12352TIP3   OH258470   1.418   1.859   3.293 -0.0055  0.4542  0.0046
12352TIP3    H158471   1.386   1.768   3.289 -0.2587  0.5689 -0.6606
12352TIP3    H258472   1.444   1.879   3.204  0.9836  0.7117  0.3436
12353TIP3   OH258473   5.365   4.751  15.275 -0.3541 -0.3179  0.4672
12353TIP3    H158474   5.299   4.797  15.224  0.3373 -0.2331 -0.3800
12353TIP3    H258475   5.416   4.821  15.317  0.7274 -0.2478 -0.8590
12354TIP3   OH258476   5.564   3.023  15.793 -0.3926  0.8786  0.3615
12354TIP3    H158477   5.633   3.062  15.740 -0.4252  0.5080  0.0440
12354TIP3    H258478   5.610   2.974  15.861 -0.2933 -0.5553 -0.6852
12355TIP3   OH258479   6.058   2.043  12.315  0.5839 -0.2432  0.7365
12355TIP3    H158480   5.979   2.017  12.268  1.2152  0.8557 -1.0373
12355TIP3    H258481   6.126   1.983  12.284  1.2893  1.2747 -0.8271
12356TIP3   OH258482   0.636   5.317   0.697  0.0132  0.2310  0.4273
12356TIP3    H158483   0.726   5.326   0.666  0.2150 -0.7334  0.6966
12356TIP3    H258484   0.641   5.340   0.790 -0.3798  2.0079  0.0370
12357TIP3   OH258485   0.504   5.784   1.217 -0.3054 -0.5813 -0.3210
12357TIP3    H158486   0.496   5.820   1.128  1.3372 -0.5379 -0.4741
12357TIP3    H258487   0.573   5.719   1.211 -0.7748 -1.2141  0.7609
12358TIP3   OH258488   4.965   5.419   4.979  0.3907 -0.3102  0.4409
12358TIP3    H158489   4.951   5.431   4.885  2.4857 -1.2095 -0.0392
12358TIP3    H258490   4.941   5.327   4.995  0.9550 -0.4364  0.5793
12359TIP3   OH258491   1.375   2.016  12.561  0.3441 -0.0830  0.0710
12359TIP3    H158492   1.466   2.013  12.531  0.1405  1.0255 -0.7140
12359TIP3    H258493   1.323   2.020  12.480 -0.4133 -0.8090  0.5064
12360TIP3   OH258494   5.656   3.523  14.126  0.6176 -0.1658  0.2896
12360TIP3    H158495   5.711   3.479  14.061  1.0861 -0.3804  0.8272
12360TIP3    H258496   5.609   3.452  14.170 -2.1813  0.1136 -1.9443
12361TIP3   OH258497   3.609   2.752  15.787  0.0337  0.4971  0.0992
12361TIP3    H158498   3.674   2.707  15.841  0.6449  0.3189 -0.7643
12361TIP3    H258499   3.524   2.721  15.820  0.3771  0.8549  1.3392
12362TIP3   OH258500   5.417   0.712   1.488  0.5999 -0.2704  0.1976
12362TIP3    H158501   5.394   0.746   1.402 -0.4952  1.4285  1.0887
12362TIP3    H258502   5.479   0.776   1.523  4.0081 -2.8273 -0.6612
12363TIP3   OH258503   2.550   6.016   5.257  0.6077  0.4361 -0.6736
12363TIP3    H158504   2.575   5.980   5.172  1.4475  0.1942 -0.3326
12363TIP3    H258505   2.472   5.967   5.282  0.8354 -0.0669 -0.9339
12364TIP3   OH258506   2.984   6.735   2.846 -0.3561  0.0859 -0.3541
12364TIP3    H158507   2.932   6.671   2.895  1.3498 -0.4551  0.8629
12364TIP3    H258508   2.983   6.703   2.756 -1.0490 -0.6270 -0.1034
12365TIP3   OH258509   3.734   3.693  16.599 -0.5328  0.7180  0.0654
12365TIP3    H158510   3.802   3.753  16.569 -1.5832  1.5565 -0.6971
12365TIP3    H258511   3.714   3.638  16.523  0.7059 -0.9410  0.8638
12366TIP3   OH258512   1.107   6.016  10.446 -0.5548  0.0724 -0.0203
12366TIP3    H158513   1.034   6.078  10.451 -0.6385  0.3298 -2.9357
12366TIP3    H258514   1.166   6.044  10.516 -1.5196  2.1985  0.0283
12367TIP3   OH258515   3.015   0.185  11.893  0.0643  0.0959  0.7742
12367TIP3    H158516   2.933   0.175  11.844 -0.2701 -1.4594  1.5838
12367TIP3    H258517   3.084   0.171  11.828 -0.2587  1.9655 -0.0340
12368TIP3   OH258518   1.686   1.687  16.463 -0.3308 -0.5364 -0.2729
12368TIP3    H158519   1.690   1.782  16.454 -0.8003 -0.4748  0.1183
12368TIP3    H258520   1.660   1.672  16.553 -2.6212 -0.9677 -0.9402
12369TIP3   OH258521   0.553   0.910   1.485  0.9907 -0.3074 -0.2838
12369TIP3    H158522   0.640   0.948   1.494  1.6123 -1.4076 -1.3518
12369TIP3    H258523   0.493   0.984   1.492  2.1777  1.2246 -4.0484
12370TIP3   OH258524   4.725   0.827   2.862 -0.3374 -0.0341  0.2368
12370TIP3    H158525   4.798   0.804   2.920 -0.4562  0.7148  0.7057
12370TIP3    H258526   4.658   0.862   2.921 -0.1577  1.4915 -0.4121
12371TIP3   OH258527   4.874   5.270   0.553 -0.5903 -0.0187 -0.3470
12371TIP3    H158528   4.817   5.312   0.489 -1.7856  0.9354  1.2497
12371TIP3    H258529   4.901   5.342   0.611  0.9490 -0.7387 -0.1265
12372TIP3   OH258530   0.701   0.545  17.003 -0.2334 -0.6605  0.3387
12372TIP3    H158531   0.783   0.496  17.015  1.2038  1.5461  0.0941
12372TIP3    H258532   0.676   0.572  17.091  0.3147  0.1669  0.2538
12373TIP3   OH258533   1.048   1.781   2.646  0.1756 -0.6157  0.3743
12373TIP3    H158534   1.070   1.708   2.588  1.6881  1.7651 -2.3179
12373TIP3    H258535   1.120   1.783   2.710 -0.0356 -1.5970  0.6645
12374TIP3   OH258536   2.960   6.368  13.173  0.9472 -0.5808 -0.3896
12374TIP3    H158537   2.994   6.455  13.195  1.2798 -0.7549 -0.2113
12374TIP3    H258538   3.005   6.344  13.092  2.1859 -1.3207  0.4692
12375TIP3   OH258539   3.172   4.992  15.380  0.3010  0.3808 -0.4627
12375TIP3    H158540   3.109   4.925  15.352  1.4937 -0.9096 -0.1705
12375TIP3    H258541   3.161   5.063  15.316 -1.3513  0.1499 -0.4792
12376TIP3   OH258542   0.996   3.735   0.362  0.3529  0.5288 -0.3871
12376TIP3    H158543   0.912   3.728   0.408  0.1665 -0.0343 -0.7943
12376TIP3    H258544   0.989   3.816   0.311  0.0548  0.4842 -0.4201
12377TIP3   OH258545   1.550   6.775  16.787 -0.4104  0.1787  0.0963
12377TIP3    H158546   1.530   6.748  16.698 -0.0888 -1.4020  0.4660
12377TIP3    H258547   1.646   6.772  16.792 -0.4709 -1.7484  1.0315
12378TIP3   OH258548   5.458   6.080  15.543 -0.0430  0.2212 -0.6660
12378TIP3    H158549   5.513   6.152  15.572 -0.0790 -0.2636  0.6780
12378TIP3    H258550   5.380   6.122  15.506 -0.3702  0.8742  0.7285
12379TIP3   OH258551   4.747   3.699  16.822 -0.2596 -0.0512 -0.1368
12379TIP3    H158552   4.792   3.675  16.742  1.6039 -0.9031  1.0825
12379TIP3    H258553   4.749   3.620  16.876 -1.6066  0.4511  0.7141
12380TIP3   OH258554   4.666   5.519  14.286 -0.4690  0.3221 -0.6120
12380TIP3    H158555   4.643   5.458  14.355 -1.1890 -0.8445 -1.8231
12380TIP3    H258556   4.610   5.596  14.302  0.2102  0.5484  0.7332
12381TIP3   OH258557   1.303   2.851  14.678  0.0588 -0.2296 -0.0332
12381TIP3    H158558   1.241   2.847  14.751  0.8841 -0.7518  0.6553
12381TIP3    H258559   1.278   2.930  14.630 -0.9645 -0.2836  0.3856
12382TIP3   OH258560   2.165   3.330  14.096 -0.1318  0.3947 -0.4377
12382TIP3    H158561   2.254   3.339  14.060 -0.8306 -0.3007 -2.5013
12382TIP3    H258562   2.159   3.239  14.124  0.0899  0.6866  0.6026
12383TIP3   OH258563   4.889   6.641   3.459  0.7949 -0.5760 -0.6770
12383TIP3    H158564   4.815   6.701   3.457  0.3892 -1.0731 -2.1313
12383TIP3    H258565   4.888   6.604   3.547 -0.2794 -0.0683 -0.4628
12384TIP3   OH258566   5.867   3.991   6.384 -0.3355 -0.2191 -0.9464
12384TIP3    H158567   5.777   3.958   6.381  0.0840 -1.3975 -3.3100
12384TIP3    H258568   5.911   3.936   6.448 -1.2217  0.2122  0.0599
12385TIP3   OH258569   0.720   6.172   4.496 -0.4650  0.0848 -0.9319
12385TIP3    H158570   0.633   6.197   4.463 -0.1408  0.3569 -1.6118
12385TIP3    H258571   0.756   6.254   4.531 -0.9009 -0.2516  0.3603
12386TIP3   OH258572   1.524   2.058   0.631 -0.1836 -0.1555  0.3356
12386TIP3    H158573   1.618   2.063   0.651 -0.4139 -0.7616  1.6857
12386TIP3    H258574   1.484   2.026   0.712 -1.6343  0.6099 -0.0501
12387TIP3   OH258575   3.948   1.277   3.533 -0.1934 -0.5795 -0.4512
12387TIP3    H158576   4.027   1.222   3.531  0.4400  0.3133 -1.4336
12387TIP3    H258577   3.932   1.298   3.441 -1.0563 -0.0002 -0.1810
12388TIP3   OH258578   3.785   0.294  12.095 -0.1325 -0.1521 -0.7215
12388TIP3    H158579   3.872   0.261  12.117  0.4657 -0.1815 -2.8395
12388TIP3    H258580   3.794   0.389  12.099 -0.6185 -0.1581  1.0888
12389TIP3   OH258581   3.616   5.650   4.330  0.0090 -0.2095 -0.3106
12389TIP3    H158582   3.693   5.692   4.369 -0.0053 -0.9447  0.5427
12389TIP3    H258583   3.556   5.721   4.310  0.7528  0.3410 -0.6442
12390TIP3   OH258584   2.396   4.941  15.341 -0.3143  0.4331  0.2488
12390TIP3    H158585   2.452   5.013  15.369 -0.6160  0.3924  0.9564
12390TIP3    H258586   2.352   4.975  15.263 -0.5798  1.0791  0.6728
12391TIP3   OH258587   4.132   1.266  16.891  0.1477 -0.2419  0.5455
12391TIP3    H158588   4.211   1.296  16.936 -0.1938  0.2207  0.8598
12391TIP3    H258589   4.061   1.313  16.935 -0.1989  0.2465 -0.5020
12392TIP3   OH258590   5.446   0.176  11.256  0.8024 -1.0845  0.3563
12392TIP3    H158591   5.360   0.134  11.258  0.4922 -0.5290  2.8727
12392TIP3    H258592   5.500   0.118  11.204 -0.6409 -2.4352  0.2813
12393TIP3   OH258593   4.709   1.700  11.229  0.7064  0.1128  0.4724
12393TIP3    H158594   4.696   1.794  11.239 -0.7723 -0.0015 -0.1731
12393TIP3    H258595   4.791   1.682  11.275  0.4896  1.5411  1.4760
12394TIP3   OH258596   0.035   3.539   2.946 -0.4133  0.8368 -0.1907
12394TIP3    H158597   0.123   3.527   2.910 -0.5286  1.4127 -0.6775
12394TIP3    H258598   0.048   3.539   3.041 -0.1826 -1.3363 -0.1664
12395TIP3   OH258599   0.912   5.276   4.373 -0.3219  0.5566  0.1204
12395TIP3    H158600   0.904   5.232   4.458  0.9940  0.1971  0.0890
12395TIP3    H258601   0.950   5.361   4.393 -1.7853  1.2620  0.0588
12396TIP3   OH258602   0.783   4.531  10.882 -0.0588  0.3336 -0.6152
12396TIP3    H158603   0.752   4.443  10.907  3.4557 -1.5461 -2.1325
12396TIP3    H258604   0.807   4.572  10.964 -0.6479 -0.6304  0.0608
12397TIP3   OH258605   5.799   1.156  13.470  0.2604  0.0751  0.2843
12397TIP3    H158606   5.859   1.134  13.542  0.3035  0.4585  0.3687
12397TIP3    H258607   5.852   1.208  13.410  0.0404  0.3186  0.3025
12398TIP3   OH258608   6.736   5.805  11.771  0.1068 -0.0344 -0.0696
12398TIP3    H158609   6.724   5.710  11.768 -1.6526  0.1734 -0.3638
12398TIP3    H258610   6.800   5.818  11.842 -1.7407 -1.2798  1.9490
12399TIP3   OH258611   0.469   1.640  15.190 -0.1056 -0.6829 -0.2688
12399TIP3    H158612   0.381   1.675  15.205 -0.6716 -1.7935 -0.8611
12399TIP3    H258613   0.456   1.545  15.184  1.1333 -0.8580 -0.3846
12400TIP3   OH258614   4.399   0.544  16.029 -0.1628  0.8013  0.4372
12400TIP3    H158615   4.461   0.471  16.029 -1.6210 -0.6345 -2.3308
12400TIP3    H258616   4.353   0.537  16.112  0.7772 -0.4958  0.8730
12401TIP3   OH258617   5.869   3.676   4.112  0.2571 -0.1717 -0.2380
12401TIP3    H158618   5.888   3.730   4.188  1.6481 -1.4959  0.4061
12401TIP3    H258619   5.945   3.618   4.103 -0.6870 -1.2936 -1.5270
12402TIP3   OH258620   2.134   0.268   2.053 -0.0168  0.4849  0.5554
12402TIP3    H158621   2.066   0.272   2.120 -0.5346  0.1610  0.0525
12402TIP3    H258622   2.087   0.252   1.971  0.7908 -1.4750  0.4380
12403TIP3   OH258623   2.545   0.149   3.664 -0.5433 -0.2998 -0.5893
12403TIP3    H158624   2.450   0.158   3.661 -0.7076 -1.2504  0.9840
12403TIP3    H258625   2.570   0.130   3.573 -1.7068  0.9447 -1.2123
12404TIP3   OH258626   3.182   2.484   0.062 -0.1799 -0.2226  0.6980
12404TIP3    H158627   3.169   2.510   0.154 -1.8185 -1.4610  0.8737
12404TIP3    H258628   3.194   2.567   0.015 -1.6569  0.6222  1.7172
12405TIP3   OH258629   6.275   5.413   2.697 -0.5890  0.1197 -0.5357
12405TIP3    H158630   6.371   5.418   2.702 -0.6490  0.7757  0.5466
12405TIP3    H258631   6.256   5.321   2.684  0.1643 -0.3053  1.0834
12406TIP3   OH258632   5.841   4.113   2.479  0.0119 -0.1458 -0.2046
12406TIP3    H158633   5.787   4.054   2.427 -0.0939  0.9758 -1.4185
12406TIP3    H258634   5.817   4.093   2.570 -0.4807 -1.5020 -0.6114
12407TIP3   OH258635   5.821   5.035  13.583  0.3351  0.4082 -0.0278
12407TIP3    H158636   5.817   5.114  13.529  0.5388  0.1388 -0.4471
12407TIP3    H258637   5.740   4.989  13.564  0.5417  0.1655 -0.3451
12408TIP3   OH258638   3.045   1.579  16.483 -0.3643  0.4093  0.0407
12408TIP3    H158639   2.978   1.641  16.513 -1.1823  0.3423 -1.5501
12408TIP3    H258640   3.082   1.543  16.564  1.0000  3.8089  1.1233
12409TIP3   OH258641   5.778   6.482  12.594 -0.5224  0.3291  0.1037
12409TIP3    H158642   5.739   6.555  12.642 -1.1501 -0.2353  0.4736
12409TIP3    H258643   5.712   6.458  12.529 -0.6705 -0.3993  0.4996
12410TIP3   OH258644   0.981   4.793   2.412 -0.1910  0.2078  0.4111
12410TIP3    H158645   0.952   4.702   2.404 -0.9444  0.4429  0.3664
12410TIP3    H258646   0.969   4.814   2.504 -0.7927  0.5080  0.2683
12411TIP3   OH258647   6.198   6.725   3.768 -0.1350 -0.2468 -0.6805
12411TIP3    H158648   6.154   6.770   3.840 -0.2287 -0.3757 -0.6555
12411TIP3    H258649   6.157   6.638   3.766  2.9456 -2.0044  2.1164
12412TIP3   OH258650   5.829   4.164  13.281 -0.4539 -0.2116  0.7413
12412TIP3    H158651   5.763   4.162  13.351  2.1125  1.3868  3.4154
12412TIP3    H258652   5.848   4.256  13.269 -0.5341 -0.4723 -1.9281
12413TIP3   OH258653   2.368   3.463  13.851 -0.4250  0.3141 -0.0978
12413TIP3    H158654   2.364   3.368  13.859 -0.5121  0.4434  1.8495
12413TIP3    H258655   2.348   3.480  13.759 -0.5342 -1.5328 -0.4584
12414TIP3   OH258656   1.450   0.072  15.579  0.1026  0.1454  0.0097
12414TIP3    H158657   1.527   0.094  15.633  0.7801 -0.5264 -0.6577
12414TIP3    H258658   1.452  -0.023  15.572  0.5418  0.2540 -1.9084
12415TIP3   OH258659   4.896   5.763   0.773  0.2147  0.7595 -0.0139
12415TIP3    H158660   4.944   5.844   0.758 -0.3660  1.2148  0.5393
12415TIP3    H258661   4.872   5.766   0.865  0.1883 -0.0464  0.0138
12416TIP3   OH258662   5.125   0.498  16.711  0.4896  0.1087  0.0557
12416TIP3    H158663   5.055   0.450  16.666  0.0852  0.1036  0.6848
12416TIP3    H258664   5.091   0.587  16.720  0.5045  0.0684  0.4975
12417TIP3   OH258665   1.158   3.390  11.369  0.1303 -0.1704  0.2133
12417TIP3    H158666   1.205   3.446  11.308  0.8457 -0.5869  0.3694
12417TIP3    H258667   1.071   3.380  11.331  0.7341 -0.8691 -1.0331
12418TIP3   OH258668   3.986   5.890  13.028 -0.1482 -0.2148 -0.3298
12418TIP3    H158669   3.945   5.962  13.075  1.2868  0.6140 -0.2790
12418TIP3    H258670   3.951   5.811  13.070  1.7230  0.4468  2.8518
12419TIP3   OH258671   4.556   4.565   2.274 -0.7001  0.0698 -0.0759
12419TIP3    H158672   4.535   4.472   2.279 -0.1425 -0.1426 -1.3232
12419TIP3    H258673   4.592   4.577   2.186  0.1816  1.2659  0.4151
12420TIP3   OH258674   5.672   6.334  15.002  0.1925  0.5315  0.4711
12420TIP3    H158675   5.719   6.275  15.062 -0.3494  0.7764  1.1451
12420TIP3    H258676   5.691   6.422  15.034  0.4427  0.7019 -0.1280
12421TIP3   OH258677   1.383   6.138  10.830  0.5260  0.0533 -0.4252
12421TIP3    H158678   1.461   6.172  10.785 -0.1987  0.3567 -1.4879
12421TIP3    H258679   1.315   6.137  10.763  0.5904 -4.0885 -0.6473
12422TIP3   OH258680   4.866   4.399  16.609 -0.4273 -0.0959 -0.2006
12422TIP3    H158681   4.794   4.340  16.588  0.7261 -1.4796 -0.4035
12422TIP3    H258682   4.833   4.486  16.586 -1.8824 -0.7298 -0.6338
12423TIP3   OH258683   5.904   1.759  16.615 -0.2734  0.2419  0.4245
12423TIP3    H158684   5.993   1.788  16.634  0.6005 -0.5967 -2.0430
12423TIP3    H258685   5.869   1.823  16.554 -0.2448 -0.9554 -0.9086
12424TIP3   OH258686   0.244   0.819   4.094 -0.7829  0.0295  0.6045
12424TIP3    H158687   0.223   0.813   4.000 -1.2109  0.3678  0.6726
12424TIP3    H258688   0.296   0.899   4.101  0.8923 -0.9951  0.3832
12425TIP3   OH258689   4.973   5.350   5.430  0.4684  0.0911 -0.0850
12425TIP3    H158690   4.977   5.428   5.374  1.2342 -0.2409 -0.5012
12425TIP3    H258691   4.927   5.285   5.377 -0.3512  0.3093  0.3389
12426TIP3   OH258692   5.282   6.674   6.293 -0.4836 -0.2833  0.5861
12426TIP3    H158693   5.269   6.629   6.377  0.4571  1.6447  1.8361
12426TIP3    H258694   5.205   6.730   6.284 -0.5493 -0.4338  0.1805
12427TIP3   OH258695   0.177   0.769  12.422  0.1890  0.0967  0.2020
12427TIP3    H158696   0.154   0.761  12.514  0.2890  0.0536  0.2232
12427TIP3    H258697   0.266   0.734  12.416  0.0439 -0.2497  0.0241
12428TIP3   OH258698   1.134   2.832   1.050  0.1223 -0.5760  0.5337
12428TIP3    H158699   1.139   2.802   0.959  0.3749 -1.9391  0.9804
12428TIP3    H258700   1.042   2.820   1.074 -0.2983  1.2433  0.0100
12429TIP3   OH258701   4.998   2.842   0.449 -0.7631 -0.1705 -0.1069
12429TIP3    H158702   4.926   2.780   0.432 -1.6251  0.9619 -0.7080
12429TIP3    H258703   4.960   2.908   0.506  0.3225 -0.4751  1.0045
12430TIP3   OH258704   6.512   6.259   4.306  0.4577  0.8040  0.3061
12430TIP3    H158705   6.576   6.222   4.368  0.1033 -1.0490 -0.3634
12430TIP3    H258706   6.564   6.286   4.231  0.6229  0.6735  0.3722
12431TIP3   OH258707   4.648   4.304   0.679 -0.5492  0.3324 -0.0357
12431TIP3    H158708   4.638   4.344   0.765 -3.3242 -1.3067  0.5227
12431TIP3    H258709   4.723   4.245   0.689 -0.9666  0.0013  1.3585
12432TIP3   OH258710   3.716   3.308   2.032  0.0209  0.3177 -0.2138
12432TIP3    H158711   3.789   3.295   1.972  0.2370 -1.1492  0.3100
12432TIP3    H258712   3.710   3.225   2.080 -2.6739 -0.0343 -1.0053
12433TIP3   OH258713   2.645   1.890  14.853  0.3239 -0.0217  0.5204
12433TIP3    H158714   2.736   1.918  14.860  0.4387 -0.0554 -0.6681
12433TIP3    H258715   2.635   1.862  14.762 -0.7097 -0.6079  0.8003
12434TIP3   OH258716   5.912   4.505   3.807 -0.2610  0.2755  0.2996
12434TIP3    H158717   5.987   4.454   3.836  0.1827  0.4935 -0.4232
12434TIP3    H258718   5.854   4.510   3.883 -0.6834 -1.9518  0.1661
12435TIP3   OH258719   0.512   1.504  17.107  0.5943 -0.0066  0.5251
12435TIP3    H158720   0.506   1.458  17.024 -0.8287 -3.1672  2.2093
12435TIP3    H258721   0.450   1.577  17.099 -0.4144 -0.9812 -0.7807
12436TIP3   OH258722   3.232   5.691  13.316 -0.0658  0.2223 -0.4795
12436TIP3    H158723   3.308   5.689  13.258 -0.1302 -0.5568 -0.5484
12436TIP3    H258724   3.237   5.609  13.365 -0.2956  0.6410  0.2525
12437TIP3   OH258725   6.749   2.433   2.351  0.0290  0.7353 -0.6966
12437TIP3    H158726   6.691   2.428   2.428 -0.7965 -0.9915 -1.3812
12437TIP3    H258727   6.774   2.526   2.347 -1.8075  1.3388  0.2796
12438TIP3   OH258728   6.665   6.651  15.898  0.4036  0.2671 -0.6728
12438TIP3    H158729   6.679   6.699  15.816  3.8180 -0.1923 -0.5170
12438TIP3    H258730   6.740   6.591  15.903 -0.6123 -0.9226  1.9838
12439TIP3   OH258731   4.265   6.272  13.593  0.0319 -0.1038 -0.1679
12439TIP3    H158732   4.172   6.285  13.577 -0.2831 -0.4475  1.2504
12439TIP3    H258733   4.287   6.192  13.545 -0.1970  0.4204 -1.1726
12440TIP3   OH258734   1.377   2.484   3.514 -0.3359  0.2726  0.0413
12440TIP3    H158735   1.369   2.580   3.509 -0.9727  0.2225  0.0164
12440TIP3    H258736   1.287   2.453   3.524 -0.3166 -0.4217 -1.6071
12441TIP3   OH258737   1.712   6.247  14.007 -0.2554 -0.3502 -0.4118
12441TIP3    H158738   1.625   6.211  14.023  0.6512 -1.7257  1.8292
12441TIP3    H258739   1.713   6.330  14.053  0.3406 -1.4855  1.7798
12442TIP3   OH258740   5.090   5.493  11.768 -0.5170  0.3423  0.3443
12442TIP3    H158741   5.179   5.482  11.735 -0.3366  0.5432  0.7428
12442TIP3    H258742   5.058   5.573  11.726 -0.7306 -0.0530 -0.2555
12443TIP3   OH258743   2.765   2.909  13.029  0.0646 -0.0477 -0.2670
12443TIP3    H158744   2.843   2.858  13.008 -0.2348 -0.3661 -0.6126
12443TIP3    H258745   2.797   2.999  13.035  0.6254 -0.2826  0.5066
12444TIP3   OH258746   5.407   6.071  10.957  0.2566 -0.2271 -0.1911
12444TIP3    H158747   5.493   6.048  10.921  1.5619  2.6493  0.7626
12444TIP3    H258748   5.370   6.133  10.893 -2.1439 -2.8842 -1.6194
12445TIP3   OH258749   4.515   5.694   3.567 -0.1744 -0.2832  0.1737
12445TIP3    H158750   4.427   5.685   3.603 -0.2165  0.9651  0.4054
12445TIP3    H258751   4.541   5.784   3.587  0.6184 -0.2060 -1.0756
12446TIP3   OH258752   4.560   4.392   1.724 -0.1990 -0.6828 -0.1924
12446TIP3    H158753   4.534   4.422   1.637 -0.8257  1.2986  0.6165
12446TIP3    H258754   4.652   4.415   1.731  0.0790 -1.6300 -0.6293
12447TIP3   OH258755   2.603   4.047  16.941  0.6656  0.5210 -0.3537
12447TIP3    H158756   2.513   4.042  16.908  1.3555 -1.4510 -2.2178
12447TIP3    H258757   2.616   3.963  16.986  1.7209  0.5395 -0.5976
12448TIP3   OH258758   6.731   3.765   1.180  0.1742 -0.4576 -0.2991
12448TIP3    H158759   6.739   3.691   1.241  1.2719  0.2978  0.4952
12448TIP3    H258760   6.641   3.796   1.192  0.1779 -0.7296  0.4527
12449TIP3   OH258761   1.220   5.979  16.261  0.4055 -0.0911  0.9969
12449TIP3    H158762   1.158   6.017  16.198  0.4025 -0.2238  0.9192
12449TIP3    H258763   1.205   5.884  16.255  1.3199 -0.1967  0.2392
12450TIP3   OH258764   4.292   3.371   5.581 -0.2358  0.2334 -0.5201
12450TIP3    H158765   4.370   3.372   5.525 -0.5189  1.0469 -0.9145
12450TIP3    H258766   4.228   3.425   5.534 -0.7722  0.2168  0.1756
12451TIP3   OH258767   5.561   1.640  16.889  0.4400  0.2482  0.1596
12451TIP3    H158768   5.621   1.624  16.816  1.2162  0.4833  0.7349
12451TIP3    H258769   5.603   1.709  16.941 -0.0192 -0.0241  0.9151
12452TIP3   OH258770   3.920   4.257   1.466 -0.4633 -0.2705 -0.2933
12452TIP3    H158771   3.948   4.184   1.521 -1.1811 -1.3930 -1.3664
12452TIP3    H258772   3.972   4.248   1.387  0.5066  1.2877  0.1256
12453TIP3   OH258773   2.362   5.416   0.440 -0.1483  0.0688 -0.5183
12453TIP3    H158774   2.411   5.336   0.417 -0.8882 -0.9299  1.1734
12453TIP3    H258775   2.276   5.404   0.400  0.2782  0.8525 -1.7208
12454TIP3   OH258776   1.150   2.427   0.734  0.3839  0.4093 -0.1821
12454TIP3    H158777   1.199   2.483   0.674 -0.6581  1.4515 -0.1014
12454TIP3    H258778   1.098   2.487   0.786 -0.2203 -0.6029  0.4284
12455TIP3   OH258779   6.305   0.127   0.588  0.1057  0.0169 -0.7298
12455TIP3    H158780   6.249   0.198   0.557  0.1133  0.2391 -0.2559
12455TIP3    H258781   6.260   0.093   0.665 -0.2815 -1.0068 -1.3932
12456TIP3   OH258782   5.300   3.737  17.199 -0.2401 -0.0885 -0.2818
12456TIP3    H158783   5.341   3.670  17.145  1.3822  1.6239 -1.2703
12456TIP3    H258784   5.351   3.736  17.281 -0.0314  0.1465 -0.4103
12457TIP3   OH258785   1.868   1.348   4.618  0.1852 -0.1706 -0.4125
12457TIP3    H158786   1.910   1.402   4.685  0.5856 -1.8041  0.7353
12457TIP3    H258787   1.775   1.352   4.639  0.2518 -0.2316 -0.0953
12458TIP3   OH258788   6.727   1.644  13.857 -0.6230 -0.3706  0.1711
12458TIP3    H158789   6.634   1.637  13.877 -0.9299 -0.6374 -1.2235
12458TIP3    H258790   6.757   1.553  13.851 -0.3379 -0.2886  0.3365
12459TIP3   OH258791   1.360   2.755   4.641  0.3686 -0.6559 -0.3569
12459TIP3    H158792   1.344   2.763   4.547  3.0814 -0.9625 -0.9047
12459TIP3    H258793   1.372   2.662   4.656 -1.1588 -0.7469  0.5582
12460TIP3   OH258794   1.820   4.954  13.413  0.2795 -0.5654  0.1841
12460TIP3    H158795   1.800   5.024  13.351  0.8847 -0.7246 -0.1894
12460TIP3    H258796   1.740   4.946  13.465  0.0064  0.0248 -0.1313
12461TIP3   OH258797   0.344   0.473  11.327 -0.3173  0.3756  0.0812
12461TIP3    H158798   0.406   0.423  11.274 -1.6705 -1.1368 -0.1495
12461TIP3    H258799   0.313   0.543  11.269 -0.4061 -0.1525 -0.5196
12462TIP3   OH258800   5.331   3.433   3.455 -0.4479  0.1392 -0.1354
12462TIP3    H158801   5.256   3.434   3.514 -0.6972  0.3833 -0.4542
12462TIP3    H258802   5.400   3.391   3.505 -1.2356 -1.5219 -0.3826
12463TIP3   OH258803   0.064   5.876  13.565 -0.3153 -0.1063 -0.3680
12463TIP3    H158804   0.132   5.928  13.521  1.7250  0.0805  2.7011
12463TIP3    H258805  -0.018   5.917  13.537  0.9665  1.8361 -1.6185
12464TIP3   OH258806   1.815   2.224   2.995 -0.7424 -0.5418  0.1253
12464TIP3    H158807   1.846   2.290   2.933  2.6355 -3.6714 -1.9514
12464TIP3    H258808   1.871   2.235   3.071 -1.3257  0.0178  0.4773
12465TIP3   OH258809   4.734   2.148  16.929 -0.2127 -1.1181 -0.2288
12465TIP3    H158810   4.679   2.086  16.881 -1.7928 -1.1373  1.4906
12465TIP3    H258811   4.809   2.164  16.871 -0.0615 -4.1111 -1.0173
12466TIP3   OH258812   6.287   3.008  10.796  0.6502  0.0993  0.2965
12466TIP3    H158813   6.213   2.968  10.751  0.7476  0.1987  0.0462
12466TIP3    H258814   6.356   3.011  10.730  0.7527  0.3615  0.4131
12467TIP3   OH258815   4.476   2.986  14.720  0.0663 -0.3106  0.1162
12467TIP3    H158816   4.447   3.075  14.737 -0.0302 -0.0792 -1.1543
12467TIP3    H258817   4.467   2.975  14.625  2.4644 -0.7989 -0.1318
12468TIP3   OH258818   0.692   4.586  14.887 -0.4624  0.6225  0.0050
12468TIP3    H158819   0.699   4.493  14.867  1.5569  0.5858  0.7011
12468TIP3    H258820   0.764   4.627  14.840 -1.0777  1.7876  0.0328
12469TIP3   OH258821   5.842   4.639  11.379  0.6200  0.2310  0.0102
12469TIP3    H158822   5.762   4.624  11.329 -0.7513 -0.6222  2.3206
12469TIP3    H258823   5.899   4.688  11.318 -1.3297  0.2317 -1.9531
12470TIP3   OH258824   6.310   1.966   0.905 -0.5603  0.0649  0.4927
12470TIP3    H158825   6.313   1.962   1.000  0.4797 -0.1247  0.4654
12470TIP3    H258826   6.399   1.945   0.877 -0.7862  0.3665 -0.5131
12471TIP3   OH258827   0.639   6.748  16.871 -0.3299  0.3637  0.1390
12471TIP3    H158828   0.563   6.708  16.828 -0.8127  1.4313 -0.0211
12471TIP3    H258829   0.611   6.759  16.962 -0.2248  0.4068  0.1664
12472TIP3   OH258830   5.490   5.105   4.574 -0.2976 -0.4535 -0.2011
12472TIP3    H158831   5.474   5.011   4.586  2.4258 -0.8469  0.9410
12472TIP3    H258832   5.573   5.109   4.527  0.1708  1.3870  0.6980
12473TIP3   OH258833   3.236   2.008   6.145  0.5407 -0.3886  0.2703
12473TIP3    H158834   3.226   1.914   6.158  0.2107 -0.2405  1.1237
12473TIP3    H258835   3.202   2.024   6.057  0.1234 -0.9868  0.3189
12474TIP3   OH258836   0.844   4.581   0.862  0.5097 -0.4745 -0.5149
12474TIP3    H158837   0.938   4.573   0.880  0.3129  0.9481  1.4982
12474TIP3    H258838   0.825   4.674   0.875 -1.7158 -1.1978  2.4787
12475TIP3   OH258839   4.361   0.756  13.821 -0.2904 -0.0534 -1.0932
12475TIP3    H158840   4.426   0.825  13.811 -0.1598 -0.0956 -0.5844
12475TIP3    H258841   4.296   0.773  13.753 -0.8323  1.2184 -0.2888
12476TIP3   OH258842   2.391   5.000  17.193 -0.2061 -0.2206 -0.4510
12476TIP3    H158843   2.458   4.962  17.251 -0.1777 -0.7397 -0.8086
12476TIP3    H258844   2.342   4.924  17.161  0.1630 -0.0032 -1.5707
12477TIP3   OH258845   5.782   5.837   0.243  0.3372  0.0668  0.8313
12477TIP3    H158846   5.869   5.809   0.272  1.0130  1.2354  0.0061
12477TIP3    H258847   5.798   5.914   0.188 -1.1582 -0.2026 -0.0374
12478TIP3   OH258848   6.347   6.769  16.771 -0.0354 -0.1409 -0.0912
12478TIP3    H158849   6.357   6.844  16.712 -1.1528 -0.3409 -0.5672
12478TIP3    H258850   6.375   6.693  16.719 -0.1627 -0.2070 -0.0655
12479TIP3   OH258851   0.381   2.269   6.028 -0.4607  0.1639 -0.1051
12479TIP3    H158852   0.433   2.320   6.090 -0.5910 -1.6786  1.6000
12479TIP3    H258853   0.440   2.257   5.953  0.2433  1.1832  0.2551
12480TIP3   OH258854   1.973   3.066   3.918  0.6065 -0.1885  0.0922
12480TIP3    H158855   2.031   3.034   3.849  1.9635  1.3622  0.4541
12480TIP3    H258856   1.961   3.159   3.898 -0.1276 -0.0407  1.1521
12481TIP3   OH258857   4.397   6.260   0.011 -0.3869  0.3284  0.2028
12481TIP3    H158858   4.374   6.285   0.100 -2.2868 -1.3398  0.2600
12481TIP3    H258859   4.353   6.325  -0.044 -0.7640  0.2899  0.4537
12482TIP3   OH258860   1.421   6.026  15.156 -0.3745  0.5446 -0.8082
12482TIP3    H158861   1.366   6.098  15.124 -0.6649  1.6174  1.8187
12482TIP3    H258862   1.393   6.014  15.247 -1.1028 -3.7063 -1.3853
12483TIP3   OH258863   3.685   4.602   5.141  0.4125 -0.0777 -0.5300
12483TIP3    H158864   3.735   4.680   5.168  0.4232 -0.3601  0.2821
12483TIP3    H258865   3.749   4.531   5.144  0.6779  0.0364 -2.3050
12484TIP3   OH258866   4.318   0.742  11.013  0.8663 -0.1865  0.0501
12484TIP3    H158867   4.354   0.768  11.098  0.6762  0.4444 -0.0610
12484TIP3    H258868   4.360   0.801  10.950  0.8449 -0.5096 -0.2715
12485TIP3   OH258869   5.618   6.629   6.006 -0.1489 -0.3346 -0.0168
12485TIP3    H158870   5.610   6.722   5.986 -1.4393 -0.0850  1.4231
12485TIP3    H258871   5.662   6.591   5.930 -1.6860  1.0589 -1.6829
12486TIP3   OH258872   0.801   6.192  11.348 -0.1639 -0.1853  0.1461
12486TIP3    H158873   0.710   6.170  11.329  0.1741 -1.4257 -0.1314
12486TIP3    H258874   0.844   6.108  11.361  1.0470  0.3587 -0.1729
12487TIP3   OH258875   2.096   4.768   2.288  0.6313 -0.4778 -0.6176
12487TIP3    H158876   2.070   4.745   2.377  1.0159 -1.7521 -0.8273
12487TIP3    H258877   2.073   4.861   2.280  0.8654 -0.2751  0.8971
12488TIP3   OH258878   2.358   1.521   4.496  0.1793 -0.2790 -0.4251
12488TIP3    H158879   2.312   1.520   4.580  0.1102 -0.3633 -0.4628
12488TIP3    H258880   2.433   1.577   4.510 -0.3988  0.5548 -0.6086
12489TIP3   OH258881   6.448   0.363  12.233 -0.2103 -0.2235  0.0429
12489TIP3    H158882   6.471   0.453  12.209 -1.1660 -0.7161 -3.1360
12489TIP3    H258883   6.422   0.369  12.325  0.3447  2.6113  0.1169
12490TIP3   OH258884   2.286   6.633   1.989 -0.6190 -0.5894 -0.3248
12490TIP3    H158885   2.247   6.713   1.953  0.1277 -0.1355 -0.1504
12490TIP3    H258886   2.231   6.610   2.063 -0.7739 -0.1613 -0.3026
12491TIP3   OH258887   4.709   3.886   3.513 -0.2593 -0.7435  0.1675
12491TIP3    H158888   4.723   3.810   3.457  2.4456 -2.5903  3.0124
12491TIP3    H258889   4.688   3.849   3.599 -1.0725  1.8253  1.1794
12492TIP3   OH258890   0.468   4.299  13.804 -0.2358 -0.0276  0.7537
12492TIP3    H158891   0.482   4.342  13.720 -4.1603  0.8255  0.3546
12492TIP3    H258892   0.436   4.211  13.781 -2.0134  0.4455  1.2305
12493TIP3   OH258893   4.294   4.191  16.397 -0.4534  0.2540  1.0788
12493TIP3    H158894   4.353   4.255  16.356 -1.9295  2.2536  1.9188
12493TIP3    H258895   4.353   4.128  16.439  1.0750  1.2471  0.5189
12494TIP3   OH258896   5.427   6.530  15.311 -0.1232  0.0213 -0.2663
12494TIP3    H158897   5.399   6.603  15.367 -3.5904 -0.9495 -0.4864
12494TIP3    H258898   5.357   6.523  15.245  2.7194 -0.2341 -3.5109
12495TIP3   OH258899   2.401   3.413  13.345 -0.1206  0.2502  0.1056
12495TIP3    H158900   2.487   3.410  13.386 -0.4310  0.8750  0.8312
12495TIP3    H258901   2.340   3.390  13.415 -0.4820 -1.4416 -0.6981
12496TIP3   OH258902   3.600   5.947   1.173  0.5427  0.6447  0.3215
12496TIP3    H158903   3.616   5.933   1.266  1.5880 -0.7710 -0.0327
12496TIP3    H258904   3.605   5.860   1.134 -3.4820  0.6540 -0.6183
12497TIP3   OH258905   6.639   3.507   0.616  0.0006 -0.0536  0.3988
12497TIP3    H158906   6.561   3.487   0.667  0.0858 -0.7348  0.2690
12497TIP3    H258907   6.617   3.587   0.569 -1.6494 -1.6242 -1.7015
12498TIP3   OH258908   2.116   0.002   0.781  1.2773  0.7105  0.0810
12498TIP3    H158909   2.133   0.088   0.818  1.3470  0.5700  0.3771
12498TIP3    H258910   2.066   0.020   0.701  1.8423  1.0575 -0.1994
12499TIP3   OH258911   3.429   0.476   3.170 -0.3950 -0.1294  0.4110
12499TIP3    H158912   3.479   0.396   3.183  1.5285  0.1824 -3.5036
12499TIP3    H258913   3.345   0.447   3.133 -0.5408 -0.4048  0.9588
12500TIP3   OH258914   2.844   0.985  13.116 -0.5251  0.7351  0.4743
12500TIP3    H158915   2.760   0.973  13.072  0.5044  0.6285 -1.5583
12500TIP3    H258916   2.893   0.905  13.095  0.3737  1.1492  0.9471
12501TIP3   OH258917   0.290   0.442   5.120  0.7256  0.2100 -0.5908
12501TIP3    H158918   0.332   0.514   5.075 -0.8115  0.7131 -1.2825
12501TIP3    H258919   0.212   0.422   5.068 -0.9030  0.5296  1.5552
12502TIP3   OH258920   1.794   6.473   2.957 -0.0506 -0.1762  0.1991
12502TIP3    H158921   1.748   6.390   2.951  0.4237 -0.4953  0.8973
12502TIP3    H258922   1.828   6.476   3.046 -2.4336  2.0338  1.1581
12503TIP3   OH258923   1.987   4.482  13.330 -0.0698  0.1008  0.2573
12503TIP3    H158924   1.966   4.560  13.382  2.9690  2.4689 -1.7508
12503TIP3    H258925   2.039   4.427  13.389 -0.0744  0.7909  0.9166
12504TIP3   OH258926   2.586   3.368  15.652 -0.3248 -0.1839  0.9098
12504TIP3    H158927   2.668   3.330  15.682 -0.8799 -1.5339  0.7912
12504TIP3    H258928   2.580   3.451  15.699  1.1850  0.0305  0.7790
12505TIP3   OH258929   0.689   3.688  12.294  0.7866 -0.7927 -0.0767
12505TIP3    H158930   0.683   3.729  12.208 -0.1297  1.4940  0.9912
12505TIP3    H258931   0.630   3.613  12.289 -2.1476  1.3460 -0.4847
12506TIP3   OH258932   0.637   0.785  11.670  0.5075  0.0870  0.5891
12506TIP3    H158933   0.703   0.790  11.739 -2.3305  0.2528  3.5298
12506TIP3    H258934   0.584   0.864  11.681  0.4281  0.5918 -2.4750
12507TIP3   OH258935   6.322   3.932   0.049  0.9367 -0.6904 -0.4621
12507TIP3    H158936   6.379   3.898   0.118 -0.3481 -0.6307  0.6872
12507TIP3    H258937   6.291   3.854   0.003  1.1048 -0.7959 -0.3988
12508TIP3   OH258938   3.628   0.094   5.790  0.3689 -0.1402 -0.0466
12508TIP3    H158939   3.547   0.051   5.762 -0.1167  1.2349 -0.8264
12508TIP3    H258940   3.663   0.037   5.859 -1.3588 -0.6458  0.4421
12509TIP3   OH258941   3.514   6.627   4.096  0.2685  0.0776 -0.0706
12509TIP3    H158942   3.456   6.697   4.066  0.0962  0.1610  0.4340
12509TIP3    H258943   3.509   6.632   4.192  1.0989  0.0713 -0.0229
12510TIP3   OH258944   2.339   0.915   6.192 -0.0838 -0.0831 -0.0860
12510TIP3    H158945   2.352   0.822   6.209  0.6245  0.1058  0.4671
12510TIP3    H258946   2.250   0.933   6.223 -1.0290 -0.9943 -2.0958
12511TIP3   OH258947   0.505   5.121   0.919 -0.0924  0.5874  0.6488
12511TIP3    H158948   0.410   5.129   0.909 -0.3131 -1.3268  0.8546
12511TIP3    H258949   0.528   5.189   0.983 -1.5536  0.1606  1.6937
12512TIP3   OH258950   5.958   0.277  13.120  0.0074  0.0489  0.1339
12512TIP3    H158951   6.024   0.288  13.188  1.1775  1.5757 -1.1523
12512TIP3    H258952   5.893   0.344  13.138  1.4896  2.0528 -1.4403
12513TIP3   OH258953   3.608   3.374  12.065  0.2788  0.3641 -0.4381
12513TIP3    H158954   3.656   3.448  12.029  1.1886 -0.1892 -0.4164
12513TIP3    H258955   3.516   3.394  12.049  0.3547  2.3873  1.2454
12514TIP3   OH258956   6.153   3.440   2.487  1.0300 -0.2145 -0.0035
12514TIP3    H158957   6.248   3.439   2.478  1.0066  1.4723 -0.8072
12514TIP3    H258958   6.121   3.415   2.400  0.7435  0.1103  0.0071
12515TIP3   OH258959   1.598   4.258   1.905 -0.7032  0.5711 -0.2276
12515TIP3    H158960   1.668   4.256   1.839 -1.2064  1.2617 -0.7952
12515TIP3    H258961   1.630   4.202   1.976  0.3002  0.6483 -0.6071
12516TIP3   OH258962   4.651   6.560   5.574 -0.0149  0.0922 -0.2503
12516TIP3    H158963   4.678   6.473   5.604  0.8985  0.2606 -0.5530
12516TIP3    H258964   4.651   6.614   5.653  0.9195  0.1765 -0.2965
12517TIP3   OH258965   2.770   5.053   0.013 -0.4062 -0.7605  0.1158
12517TIP3    H158966   2.814   5.100   0.085  0.1635 -1.1852  0.0473
12517TIP3    H258967   2.721   4.984   0.057  0.9492 -1.8108  0.0109
12518TIP3   OH258968   3.846   0.034   5.007 -0.1784 -0.5823  0.3693
12518TIP3    H158969   3.821   0.104   4.947  0.7338  0.8112  1.5503
12518TIP3    H258970   3.806  -0.045   4.970  0.0839  0.2770 -1.8563
12519TIP3   OH258971   6.774   2.399  11.445 -0.2314 -0.3755  0.1062
12519TIP3    H158972   6.696   2.429  11.398  0.1810 -0.5046 -0.6780
12519TIP3    H258973   6.743   2.325  11.498 -1.0454  0.7683  1.2951
12520TIP3   OH258974   4.819   5.393  16.310 -0.2648 -0.5043 -0.1615
12520TIP3    H158975   4.818   5.412  16.404 -0.3216 -1.2525 -0.0111
12520TIP3    H258976   4.736   5.429  16.279 -0.5654 -0.8732  0.1991
12521TIP3   OH258977   0.362   1.770   5.786 -0.4504  0.4123  0.0046
12521TIP3    H158978   0.442   1.822   5.773 -0.5165  0.3928 -0.4990
12521TIP3    H258979   0.350   1.725   5.703 -0.5992 -0.1278  0.3174
12522TIP3   OH258980   6.274   4.576  10.892  0.2404 -0.4845  0.3757
12522TIP3    H158981   6.235   4.621  10.817  1.7621 -1.0007 -0.7637
12522TIP3    H258982   6.280   4.484  10.865  2.2016 -0.4249  0.5026
12523TIP3   OH258983   4.115   1.060  12.671  0.2958  0.0271 -0.1762
12523TIP3    H158984   4.050   1.130  12.685  0.3408  0.0972 -0.3210
12523TIP3    H258985   4.119   1.015  12.755  0.1778  0.1241 -0.1182
12524TIP3   OH258986   3.930   1.058  11.162 -0.1341  0.2938  0.2637
12524TIP3    H158987   3.868   1.100  11.102  1.1991 -0.1585 -1.5196
12524TIP3    H258988   3.899   0.968  11.168 -1.0131  0.6536  1.3204
12525TIP3   OH258989   2.810   2.308  11.448  0.5355  0.1254  0.1570
12525TIP3    H158990   2.780   2.249  11.517  0.5268 -1.0976 -0.8507
12525TIP3    H258991   2.766   2.276  11.369 -0.9821  2.6490 -0.1482
12526TIP3   OH258992   2.584   1.109  12.503  0.0540 -0.4555 -0.4895
12526TIP3    H158993   2.599   1.066  12.587 -0.9100  0.2741  0.0727
12526TIP3    H258994   2.489   1.112  12.494  0.1254  0.5352 -1.0433
12527TIP3   OH258995   5.332   4.430  17.238  0.2412  0.5973 -0.0931
12527TIP3    H158996   5.407   4.418  17.180 -0.5275  0.1495 -1.0428
12527TIP3    H258997   5.295   4.342  17.247  0.9892  0.4550  2.0243
12528TIP3   OH258998   2.629   1.911   6.254 -0.4919  0.5692 -0.0903
12528TIP3    H158999   2.535   1.901   6.268 -0.4142 -1.5548 -0.7438
12528TIP3    H259000   2.669   1.851   6.316  0.6010  2.8374  1.5455
12529TIP3   OH259001   5.782   0.395  12.823 -0.1916  0.0670 -0.0970
12529TIP3    H159002   5.698   0.395  12.870 -0.6541 -3.4583 -0.6176
12529TIP3    H259003   5.824   0.313  12.850  2.6804  1.2801 -0.6152
12530TIP3   OH259004   5.932   5.734  12.253  0.3493  0.2993 -0.0692
12530TIP3    H159005   5.951   5.721  12.160  0.9403 -0.8287  0.1824
12530TIP3    H259006   6.017   5.755  12.292  0.4779 -1.1680  0.5028
12531TIP3   OH259007   1.572   0.831  13.665  0.1405  0.1820 -0.0704
12531TIP3    H159008   1.631   0.890  13.619 -0.9801  1.5075  0.1034
12531TIP3    H259009   1.571   0.751  13.612  0.8452  0.7247 -0.9323
12532TIP3   OH259010   1.734   6.546  16.867  0.3796 -0.1038  0.1380
12532TIP3    H159011   1.733   6.589  16.952  0.5444  0.5146 -0.1644
12532TIP3    H259012   1.766   6.457  16.885 -1.0534 -0.4839  0.9321
12533TIP3   OH259013   3.465   5.012  12.895 -0.4654  0.3348 -0.5739
12533TIP3    H159014   3.397   4.997  12.830  0.3050 -0.0385 -1.3164
12533TIP3    H259015   3.419   5.014  12.978 -1.3505 -0.1127 -1.0421
12534TIP3   OH259016   1.263   2.922  15.108 -0.0286  0.1231 -0.4048
12534TIP3    H159017   1.309   2.957  15.033  1.4206 -1.7702 -0.4859
12534TIP3    H259018   1.317   2.848  15.137 -1.2181 -0.0080  1.6886
12535TIP3   OH259019   2.462   5.326   0.736  0.2736  0.1375  0.3417
12535TIP3    H159020   2.382   5.361   0.697  0.8141 -0.8051 -1.7569
12535TIP3    H259021   2.528   5.393   0.719  1.0097 -1.1539 -2.5120
12536TIP3   OH259022   6.433   5.275   3.785  0.1932 -0.0231 -0.3433
12536TIP3    H159023   6.455   5.320   3.866 -0.1692  0.6264 -0.6017
12536TIP3    H259024   6.366   5.211   3.811 -1.0063  1.1832 -0.3747
12537TIP3   OH259025   2.492   4.104   4.129 -0.4595 -0.1166 -0.0027
12537TIP3    H159026   2.397   4.093   4.131 -0.5443 -0.1213  3.8475
12537TIP3    H259027   2.504   4.199   4.138 -0.0450 -0.0395 -1.2206
12538TIP3   OH259028   6.413   6.453  11.287 -0.1391  0.4331  0.2306
12538TIP3    H159029   6.381   6.485  11.203  0.6511 -1.3398 -0.8020
12538TIP3    H259030   6.335   6.448  11.342 -1.1270 -0.6805 -1.1805
12539TIP3   OH259031   4.113   6.619  12.393 -0.2215  0.0711  0.5418
12539TIP3    H159032   4.021   6.618  12.418 -1.2629 -1.4182 -2.7268
12539TIP3    H259033   4.132   6.528  12.370  1.3973  0.7111 -0.8716
12540TIP3   OH259034   5.226   1.417   5.237 -0.1116 -0.7172  0.5203
12540TIP3    H159035   5.275   1.398   5.317 -1.3436  2.0048  2.0822
12540TIP3    H259036   5.146   1.364   5.245  0.7269 -2.0990 -0.0302
12541TIP3   OH259037   2.962   4.058  12.710 -0.6759 -0.1830  0.0112
12541TIP3    H159038   2.888   4.009  12.747  1.1983 -1.2850  2.6219
12541TIP3    H259039   3.008   3.994  12.656 -1.2735  0.3528 -1.1725
12542TIP3   OH259040   6.758   5.921  15.560  0.4260  0.3856  0.1756
12542TIP3    H159041   6.783   5.896  15.649  2.0742 -1.3522 -0.7094
12542TIP3    H259042   6.841   5.945  15.518  0.1625 -1.8058 -1.7715
12543TIP3   OH259043   3.795   6.076   3.357 -0.4353 -0.0033 -0.6453
12543TIP3    H159044   3.887   6.062   3.381  0.2271  1.5803 -2.1101
12543TIP3    H259045   3.752   6.100   3.440  0.8606  1.0315 -0.2413
12544TIP3   OH259046   1.254   1.532  16.852  0.3802  0.1764 -0.2926
12544TIP3    H159047   1.263   1.440  16.876 -2.8538 -0.2015 -0.2067
12544TIP3    H259048   1.272   1.534  16.758  1.2883 -0.3563 -0.1442
12545TIP3   OH259049   1.468   3.705  14.421 -0.3653 -0.9059  0.2673
12545TIP3    H159050   1.424   3.762  14.485 -0.7360 -0.2148 -0.5860
12545TIP3    H259051   1.501   3.632  14.473  0.3027  0.1862  1.4345
12546TIP3   OH259052   1.190   4.721  13.378 -0.4917 -0.0558  0.3398
12546TIP3    H159053   1.239   4.661  13.322  0.5548  1.8807 -0.9361
12546TIP3    H259054   1.098   4.698  13.364 -0.1810 -0.4544 -1.2125
12547TIP3   OH259055   0.480   3.984   1.509 -0.6726  0.0407  0.2229
12547TIP3    H159056   0.553   3.989   1.571  0.4352 -0.4742 -0.9892
12547TIP3    H259057   0.432   4.066   1.522 -0.0463  0.2661  1.2307
12548TIP3   OH259058   6.047   4.997  16.779  0.1223  0.0130  0.3410
12548TIP3    H159059   6.065   5.086  16.808  0.7884 -0.7278  2.4277
12548TIP3    H259060   6.133   4.957  16.767 -0.1639 -0.4739 -0.1398
12549TIP3   OH259061   4.797   0.229  15.915 -0.0565  0.4184 -0.7681
12549TIP3    H159062   4.860   0.254  15.847  1.1752  2.7989  1.1109
12549TIP3    H259063   4.838   0.155  15.959  0.2781  0.4099 -1.0839
12550TIP3   OH259064   5.035   5.049   1.259 -0.0784  0.0738 -0.1581
12550TIP3    H159065   5.029   5.107   1.335  1.2523  2.3755 -1.6834
12550TIP3    H259066   4.975   5.088   1.195 -1.2662 -1.8859 -0.3169
12551TIP3   OH259067   0.760   6.759   6.197 -0.0778  0.1388  0.5702
12551TIP3    H159068   0.766   6.663   6.199  1.3870  0.1609 -0.4609
12551TIP3    H259069   0.702   6.778   6.123  0.4118  0.0422  0.1541
12552TIP3   OH259070   0.847   6.554  14.530  0.0136  0.0088  0.7233
12552TIP3    H159071   0.897   6.543  14.450  0.7310  0.8474  1.0438
12552TIP3    H259072   0.876   6.482  14.586  1.2612  0.7568  1.0882
12553TIP3   OH259073   2.064   2.390   5.809  0.2185 -0.1301 -0.0109
12553TIP3    H159074   2.103   2.461   5.861  2.1773 -0.7143 -0.5752
12553TIP3    H259075   2.016   2.338   5.872  0.7025  0.4100  0.8286
12554TIP3   OH259076   1.025   4.707   4.330 -0.1649  0.2767 -0.5780
12554TIP3    H159077   1.001   4.713   4.422  0.2475  0.5094 -0.4827
12554TIP3    H259078   1.117   4.682   4.330 -0.7153 -1.9295 -0.9559
12555TIP3   OH259079   2.519   0.287   0.351 -0.6990  0.0493 -0.1026
12555TIP3    H159080   2.456   0.346   0.393 -3.0095 -1.1058 -1.6935
12555TIP3    H259081   2.508   0.305   0.257  0.8539 -0.7393 -0.4672
12556TIP3   OH259082   0.916   2.697   2.213  0.0972 -0.1329 -0.6268
12556TIP3    H159083   0.828   2.732   2.197 -0.2683 -1.3511 -1.3856
12556TIP3    H259084   0.909   2.654   2.299 -0.4705 -1.4486 -1.2993
12557TIP3   OH259085   2.876   4.927   5.581  0.2904 -0.2460 -0.4048
12557TIP3    H159086   2.792   4.922   5.535 -0.4630 -0.4440  0.9070
12557TIP3    H259087   2.861   4.992   5.650  1.3106 -0.0819 -0.3322
12558TIP3   OH259088   0.267   0.145   1.268 -0.5116  0.0742  0.2092
12558TIP3    H159089   0.309   0.071   1.312 -0.6789  0.5939  1.2731
12558TIP3    H259090   0.280   0.219   1.328  1.2384  1.3619 -1.6230
12559TIP3   OH259091   5.513   0.664   4.580  0.1046 -0.0457  0.1390
12559TIP3    H159092   5.561   0.581   4.583  0.1537  0.0167  1.8363
12559TIP3    H259093   5.451   0.659   4.653 -0.4067  1.1132 -0.1935
12560TIP3   OH259094   4.244   0.775   2.464  0.5028  0.2722  0.1902
12560TIP3    H159095   4.283   0.694   2.431  3.0968  1.6545 -0.3967
12560TIP3    H259096   4.161   0.783   2.417  0.0276 -2.1156  0.4605
12561TIP3   OH259097   5.178   0.372   0.979 -0.3851  0.0777  0.3157
12561TIP3    H159098   5.207   0.342   1.065 -0.3024  2.0743  1.0355
12561TIP3    H259099   5.128   0.452   0.997 -3.1414 -1.1390 -1.2170
12562TIP3   OH259100   2.302   4.621   5.576  0.3658 -0.3285  0.0740
12562TIP3    H159101   2.337   4.649   5.491  0.3242  0.0893  0.1942
12562TIP3    H259102   2.372   4.568   5.614  0.1513 -1.0367 -0.4833
12563TIP3   OH259103   1.615   4.511   2.990 -0.3478  0.5716  0.0473
12563TIP3    H159104   1.638   4.550   2.906 -0.0607  0.3368  0.0176
12563TIP3    H259105   1.691   4.459   3.015 -0.6249  0.2357  0.2117
12564TIP3   OH259106   6.557   1.391   0.024  0.3083  0.2902 -0.2612
12564TIP3    H159107   6.578   1.303   0.056  0.0997  0.0284 -0.8219
12564TIP3    H259108   6.605   1.450   0.082  1.3565 -0.2366 -0.5662
12565TIP3   OH259109   4.562   5.107   5.197 -0.1806  0.3910 -0.1635
12565TIP3    H159110   4.498   5.052   5.242  0.7217  0.9660  1.9465
12565TIP3    H259111   4.550   5.087   5.104 -0.9565 -2.1664  0.4099
12566TIP3   OH259112   0.267   3.789   6.704  0.1485 -0.8335 -0.2107
12566TIP3    H159113   0.238   3.712   6.754  1.3548 -1.1461  0.0271
12566TIP3    H259114   0.279   3.757   6.615  1.2779 -1.0977  0.0203
12567TIP3   OH259115   0.050   3.945   0.373  0.1547 -0.4675  0.3834
12567TIP3    H159116   0.035   3.977   0.283 -0.7270  1.2786  1.0989
12567TIP3    H259117   0.004   3.861   0.376 -2.3859  0.7966 -0.0060
12568TIP3   OH259118   0.399   1.768  12.223 -0.6449  0.0443  0.2668
12568TIP3    H159119   0.309   1.752  12.196  0.4321 -1.4282 -2.9410
12568TIP3    H259120   0.424   1.691  12.274 -1.1306  0.3835  1.0270
12569TIP3   OH259121   0.857   3.188  15.997 -0.2730  0.6583  0.0172
12569TIP3    H159122   0.936   3.238  16.014 -1.1574  2.1054  0.0336
12569TIP3    H259123   0.883   3.097  16.008  0.9511  1.1755  1.8341
12570TIP3   OH259124   6.331   3.106   3.836 -0.3340 -0.2345 -0.6866
12570TIP3    H159125   6.279   3.085   3.758 -1.5014 -1.1275  0.3007
12570TIP3    H259126   6.379   3.025   3.854  0.3390  0.1390 -0.7711
12571TIP3   OH259127   2.184   4.773  11.793  0.1478 -0.3598  0.0110
12571TIP3    H159128   2.194   4.833  11.867  0.1495 -1.0143  0.5529
12571TIP3    H259129   2.233   4.695  11.819 -0.1124 -0.7155 -0.5468
12572TIP3   OH259130   3.016   2.637  13.138  0.0935 -0.3358  0.1528
12572TIP3    H159131   2.974   2.624  13.053 -1.2859  0.4695  0.6920
12572TIP3    H259132   3.080   2.565  13.144  0.6438 -0.0743 -1.8041
12573TIP3   OH259133   4.587   3.594  14.768 -0.0736 -0.3745  0.7654
12573TIP3    H159134   4.582   3.688  14.782  0.4770 -0.2010 -0.1140
12573TIP3    H259135   4.507   3.573  14.719  0.9799  0.0868 -1.2631
12574TIP3   OH259136   6.079   5.840  14.422 -0.2313  0.4952  0.9336
12574TIP3    H159137   6.011   5.900  14.390  0.3406  0.5091 -0.3349
12574TIP3    H259138   6.085   5.773  14.354 -0.6843 -0.8735  2.2137
12575TIP3   OH259139   3.708   4.092  11.572 -0.1740 -0.4373  0.4762
12575TIP3    H159140   3.655   4.167  11.600 -1.4521 -0.5781 -1.3984
12575TIP3    H259141   3.648   4.017  11.577  1.2152 -1.5014  2.7861
12576TIP3   OH259142   5.085   0.726  12.797 -0.5902 -0.3755 -0.5994
12576TIP3    H159143   4.993   0.727  12.772 -0.6077 -0.3070 -0.5310
12576TIP3    H259144   5.100   0.811  12.838 -0.3240 -0.1162 -1.2264
12577TIP3   OH259145   4.981   5.538   2.542  0.3880 -0.2799  0.0319
12577TIP3    H159146   4.896   5.536   2.588  0.1769 -1.6513 -0.3830
12577TIP3    H259147   5.033   5.471   2.586  0.9705 -0.0310 -0.2769
12578TIP3   OH259148   5.286   1.812   5.569  0.4446 -0.2131  0.5880
12578TIP3    H159149   5.359   1.874   5.566  1.3327 -1.2816 -0.7417
12578TIP3    H259150   5.228   1.847   5.637  2.2297  0.5984  1.7644
12579TIP3   OH259151   6.292   6.489  12.103 -0.0941 -0.6276  0.1012
12579TIP3    H159152   6.311   6.486  12.196  0.1871  0.7080  0.1136
12579TIP3    H259153   6.231   6.563  12.094  0.1577 -0.5199 -0.8079
12580TIP3   OH259154   2.029   1.272  16.737  0.6612  0.2708 -0.0396
12580TIP3    H159155   2.056   1.224  16.659  0.1472  0.0762 -0.1001
12580TIP3    H259156   1.971   1.340  16.704 -1.3685 -1.1697  0.3612
12581TIP3   OH259157   5.665   6.489   2.277 -0.3449  0.1235 -0.1586
12581TIP3    H159158   5.709   6.406   2.260  0.0301  0.0186  1.1889
12581TIP3    H259159   5.605   6.470   2.349  1.0378  1.3814  1.4165
12582TIP3   OH259160   5.306   2.844  13.378  0.1176 -0.5780 -0.1873
12582TIP3    H159161   5.342   2.929  13.353  0.2280 -0.5936 -0.0822
12582TIP3    H259162   5.212   2.852  13.364  0.0451 -0.2128  0.4800
12583TIP3   OH259163   2.109   1.355   2.465  0.1825  0.1892 -1.0560
12583TIP3    H159164   2.153   1.351   2.551  0.4563  1.8168 -1.1034
12583TIP3    H259165   2.181   1.364   2.402  0.0196 -1.5390 -1.5412
12584TIP3   OH259166   2.528   0.691  14.960 -0.6809 -0.2329 -0.8979
12584TIP3    H159167   2.511   0.599  14.940 -0.2390 -0.6336  0.4676
12584TIP3    H259168   2.603   0.689  15.019  0.8044  1.1675 -2.6144
12585TIP3   OH259169   4.285   1.327   4.411  0.1210  0.4162 -0.1769
12585TIP3    H159170   4.223   1.329   4.338  0.7772 -1.4041 -0.8358
12585TIP3    H259171   4.257   1.399   4.468 -0.9596  1.3072 -1.7502
12586TIP3   OH259172   2.079   1.908  12.879 -0.5315  0.9098 -0.3842
12586TIP3    H159173   2.034   1.826  12.900 -1.0165  1.6863  1.8312
12586TIP3    H259174   2.030   1.975  12.927  2.7143  1.8798  1.8383
12587TIP3   OH259175   1.431   3.278   4.263  0.7287 -0.3622  0.0699
12587TIP3    H159176   1.513   3.328   4.258  1.5171 -1.4254  1.5925
12587TIP3    H259177   1.373   3.331   4.316  0.5485  0.2090 -0.6755
12588TIP3   OH259178   3.955   3.110   4.542 -0.0060 -0.2119 -0.0045
12588TIP3    H159179   4.040   3.077   4.513  0.8776  2.0723 -0.1512
12588TIP3    H259180   3.938   3.185   4.486 -1.8255 -0.2143  0.4877
12589TIP3   OH259181   5.222   0.640  15.363  0.0781  0.3722 -0.1827
12589TIP3    H159182   5.179   0.645  15.448 -1.4091 -0.8052 -0.8053
12589TIP3    H259183   5.251   0.730  15.345 -0.7130  0.8878  1.0073
12590TIP3   OH259184   2.591   5.806   2.607 -0.7143  0.4060 -0.1286
12590TIP3    H159185   2.521   5.797   2.671 -0.7484 -1.2308 -0.3460
12590TIP3    H259186   2.660   5.747   2.639 -0.0671  0.8208 -0.7292
12591TIP3   OH259187   5.192   3.164  13.913 -0.0599 -0.0608  0.3043
12591TIP3    H159188   5.174   3.252  13.947  2.7034  0.4814  0.6260
12591TIP3    H259189   5.217   3.113  13.990  0.5517 -0.4720 -0.1545
12592TIP3   OH259190   0.489   1.198   5.345 -0.1832 -0.4974  0.5219
12592TIP3    H159191   0.544   1.225   5.418  2.7278  0.2381 -1.7357
12592TIP3    H259192   0.415   1.259   5.347  0.3468  0.1526  2.2257
12593TIP3   OH259193   0.706   3.986   2.314  0.2368  0.2334 -0.2550
12593TIP3    H159194   0.632   4.013   2.367  0.7442  1.1316  0.0284
12593TIP3    H259195   0.771   3.955   2.377 -0.4364 -2.0362 -0.5853
12594TIP3   OH259196   0.663   4.987  15.924 -0.2931 -0.2911 -0.1848
12594TIP3    H159197   0.704   4.901  15.911 -0.3269 -0.2386 -0.6292
12594TIP3    H259198   0.628   5.011  15.839  0.1824  0.4071 -0.1898
12595TIP3   OH259199   6.211   1.299   6.155 -0.2516  0.0868  0.7308
12595TIP3    H159200   6.130   1.341   6.180 -0.3459  0.7838 -0.6563
12595TIP3    H259201   6.197   1.206   6.174 -1.9305 -0.0260 -0.7555
12596TIP3   OH259202   2.713   4.279  17.021 -0.0970  0.0763 -0.2697
12596TIP3    H159203   2.646   4.216  16.995  0.8534 -0.6003 -1.1532
12596TIP3    H259204   2.764   4.233  17.088  0.5097 -0.0541 -0.8130
12597TIP3   OH259205   2.043   1.870  11.967  0.2240  0.1727 -0.5328
12597TIP3    H159206   2.114   1.886  12.030 -1.3477 -1.9642  1.9770
12597TIP3    H259207   2.060   1.782  11.934 -2.1608 -1.2886  1.6882
12598TIP3   OH259208   2.156   1.300  12.802  0.3203 -0.2008 -0.1697
12598TIP3    H159209   2.160   1.223  12.859 -0.1874  0.3259  0.5964
12598TIP3    H259210   2.072   1.294  12.758 -0.2379  0.5106  0.7703
12599TIP3   OH259211   2.165   0.074   5.447  0.2857 -0.2651 -0.0179
12599TIP3    H159212   2.212  -0.003   5.478  0.4609 -0.5386 -0.9420
12599TIP3    H259213   2.074   0.045   5.436  0.2380 -0.1868  0.1591
12600TIP3   OH259214   5.560   6.390  16.672  0.4641  0.0429  0.2664
12600TIP3    H159215   5.527   6.454  16.735 -1.0083 -1.5363  1.1641
12600TIP3    H259216   5.551   6.434  16.587  0.2425  1.3027  0.9140
12601TIP3   OH259217   4.387   4.890   4.193  0.2119  0.5016  0.1401
12601TIP3    H159218   4.473   4.907   4.230  1.1611 -0.7564 -1.3618
12601TIP3    H259219   4.370   4.798   4.211 -0.6690  0.6343  0.0806
12602TIP3   OH259220   0.277   0.336  15.254  0.4121 -0.1662 -0.3172
12602TIP3    H159221   0.216   0.375  15.316  0.7115 -0.5792  0.2462
12602TIP3    H259222   0.303   0.409  15.197 -1.9265 -0.3225 -1.7121
12603TIP3   OH259223   0.330   4.734   5.463  0.6927  0.1651  0.2069
12603TIP3    H159224   0.370   4.820   5.448 -0.1776  0.5071 -0.1874
12603TIP3    H259225   0.302   4.705   5.377 -0.2106  0.0814  0.5224
12604TIP3   OH259226   4.028   2.518  12.295 -0.3009  0.1606  0.0418
12604TIP3    H159227   3.968   2.454  12.333 -0.0700  0.5466  1.0824
12604TIP3    H259228   4.053   2.575  12.368 -2.0341  2.7118 -1.2289
12605TIP3   OH259229   1.254   3.589   1.330 -0.1188  0.0805 -0.4382
12605TIP3    H159230   1.264   3.603   1.236  2.2677  0.9876 -0.1075
12605TIP3    H259231   1.182   3.646   1.356 -0.7374 -0.1120 -1.6775
12606TIP3   OH259232   5.732   4.826   5.134 -0.1645 -0.1328  0.4932
12606TIP3    H159233   5.804   4.769   5.161 -0.0529 -0.1022  0.2598
12606TIP3    H259234   5.745   4.906   5.185  0.6113  0.2984 -0.3614
12607TIP3   OH259235   3.311   3.552   1.060  0.4857  0.2636  0.6633
12607TIP3    H159236   3.377   3.485   1.044 -2.0439 -1.5948 -4.0468
12607TIP3    H259237   3.338   3.626   1.007 -0.1219  0.3048  0.3984
12608TIP3   OH259238   3.492   1.941  15.473  0.0026 -0.3585 -0.1192
12608TIP3    H159239   3.585   1.919  15.465  0.4918  1.6836 -0.5864
12608TIP3    H259240   3.453   1.908  15.392  0.6136  0.0779 -0.6070
12609TIP3   OH259241   1.938   4.566  14.651  0.4115 -0.1610 -0.1494
12609TIP3    H159242   2.022   4.559  14.605  0.3898 -2.5143  0.0549
12609TIP3    H259243   1.875   4.522  14.593 -0.7053  1.4540 -0.2380
12610TIP3   OH259244   3.436   2.975  12.683  0.3789 -0.0204  0.0677
12610TIP3    H159245   3.469   2.999  12.596  2.0425 -0.2260  0.5893
12610TIP3    H259246   3.399   3.055  12.718 -1.4002 -0.2104 -1.2617
12611TIP3   OH259247   5.075   4.119   4.102  0.4461  0.6390  0.1777
12611TIP3    H159248   5.013   4.049   4.084  0.9481 -0.5474  2.6345
12611TIP3    H259249   5.026   4.200   4.083 -1.8934 -0.2439  1.9597
12612TIP3   OH259250   5.837   5.378   1.734  0.3828  0.6732  0.0566
12612TIP3    H159251   5.890   5.301   1.713  0.6892  0.7853  0.4055
12612TIP3    H259252   5.809   5.411   1.649 -0.7717 -0.5173 -0.0659
12613TIP3   OH259253   2.294   5.659  15.301 -0.0900 -0.2248 -0.1455
12613TIP3    H159254   2.371   5.652  15.357 -0.4449 -1.1088  0.2408
12613TIP3    H259255   2.318   5.723  15.234  0.8880 -0.3215  0.1111
12614TIP3   OH259256   6.447   2.444   2.357 -0.0185  0.2685 -0.2563
12614TIP3    H159257   6.370   2.413   2.309  1.0230  1.3889 -2.8062
12614TIP3    H259258   6.424   2.532   2.386 -0.2808 -0.0353  0.4908
12615TIP3   OH259259   1.134   1.751  16.992  0.1528 -0.0377  0.4772
12615TIP3    H159260   1.182   1.673  16.963  0.7087 -0.0305  1.3579
12615TIP3    H259261   1.125   1.804  16.913 -1.4394 -1.5958 -0.4692
12616TIP3   OH259262   6.719   5.895  14.936 -0.1461  0.0396 -0.1612
12616TIP3    H159263   6.714   5.906  15.031 -1.6330  1.8342 -0.3971
12616TIP3    H259264   6.680   5.809  14.921  0.0803 -0.2599  0.8298
12617TIP3   OH259265   1.659   2.935  15.657 -0.2161 -0.0050 -0.0063
12617TIP3    H159266   1.659   2.990  15.578 -0.0420  0.1711  0.1150
12617TIP3    H259267   1.748   2.943  15.691 -0.0710 -0.6843 -0.2097
12618TIP3   OH259268   2.680   3.807  11.140 -0.1377  0.2754  0.0252
12618TIP3    H159269   2.630   3.858  11.077  0.3656  0.1801 -0.4662
12618TIP3    H259270   2.619   3.739  11.170 -0.0091 -0.4990 -1.3642
12619TIP3   OH259271   0.555   2.203   0.106  0.2203  0.2026  0.1146
12619TIP3    H159272   0.629   2.216   0.047 -0.8498 -1.0025 -1.5933
12619TIP3    H259273   0.585   2.137   0.168  1.0550  0.8143  0.3838
12620TIP3   OH259274   6.290   3.485  16.239 -0.2847 -0.5366 -0.1816
12620TIP3    H159275   6.288   3.480  16.144 -2.1826 -1.1677 -0.1467
12620TIP3    H259276   6.198   3.479  16.266  0.2009 -0.3309  1.6885
12621TIP3   OH259277   1.957   6.050  11.279 -0.1392 -0.8325 -0.1056
12621TIP3    H159278   1.937   6.026  11.188  0.2724 -0.8321 -0.1960
12621TIP3    H259279   1.876   6.030  11.326 -0.7082  0.1415 -0.6478
12622TIP3   OH259280   3.249   1.367   2.525 -0.1050 -0.3790 -0.1638
12622TIP3    H159281   3.332   1.350   2.480 -0.2499 -1.7271  0.0499
12622TIP3    H259282   3.253   1.314   2.604 -0.8179  0.2144  0.2879
12623TIP3   OH259283   3.019   5.722  15.225 -0.5302  0.1158 -0.3524
12623TIP3    H159284   3.054   5.633  15.224 -0.8526 -0.0324 -1.8586
12623TIP3    H259285   3.043   5.757  15.310  0.7054 -0.9806 -0.2190
12624TIP3   OH259286   5.424   6.617  13.726  0.2038 -0.2762 -0.2326
12624TIP3    H159287   5.514   6.608  13.693 -0.3040 -0.2860 -1.6780
12624TIP3    H259288   5.386   6.530  13.716 -0.3022 -0.0079 -0.6393
12625TIP3   OH259289   5.082   2.270  11.040 -0.1174  0.1702 -0.0083
12625TIP3    H159290   5.056   2.229  10.959 -1.7258 -1.1648  1.1269
12625TIP3    H259291   5.057   2.208  11.108  2.7166  0.4550  1.4527
12626TIP3   OH259292   3.942   4.274  12.328  0.4203 -0.5716 -0.0748
12626TIP3    H159293   3.925   4.289  12.235 -1.4161  1.2866  0.4878
12626TIP3    H259294   4.004   4.343  12.353 -0.8691  0.4339  0.5148
12627TIP3   OH259295   1.130   2.439   1.555  0.1172  0.0541 -0.2749
12627TIP3    H159296   1.132   2.462   1.462  1.9060  1.8101  0.1191
12627TIP3    H259297   1.210   2.389   1.569  0.4015  0.7038  0.5024
12628TIP3   OH259298   6.065   2.672  17.201 -0.7680 -0.2649 -0.2567
12628TIP3    H159299   6.128   2.739  17.174 -0.2136 -0.2945  0.8826
12628TIP3    H259300   5.989   2.686  17.145  0.0528  0.1104 -1.3047
12629TIP3   OH259301   6.750   4.797   2.524 -0.1256  0.2841 -0.7517
12629TIP3    H159302   6.762   4.837   2.610 -0.0524  0.7455 -0.9695
12629TIP3    H259303   6.792   4.858   2.464  0.4844 -0.4125 -1.0388
12630TIP3   OH259304   5.991   0.940   3.556 -0.1086 -1.1390  0.5621
12630TIP3    H159305   6.026   0.851   3.560  0.7515 -0.7827  2.1099
12630TIP3    H259306   6.066   0.996   3.578 -0.6955 -0.0546 -0.1400
12631TIP3   OH259307   6.174   0.758   2.341 -0.1358 -0.4122 -0.2375
12631TIP3    H159308   6.133   0.791   2.261 -1.3419 -1.0604  0.0931
12631TIP3    H259309   6.137   0.671   2.354  0.5112 -0.5737  0.6894
12632TIP3   OH259310   2.775   5.693  11.064  0.4774 -0.4811  0.1261
12632TIP3    H159311   2.707   5.753  11.033  1.0300  0.3299  0.4429
12632TIP3    H259312   2.788   5.632  10.991 -2.7095 -2.6288  1.1042
12633TIP3   OH259313   4.715   3.533   5.390 -0.0313 -0.1147  0.1109
12633TIP3    H159314   4.776   3.473   5.431 -1.4682 -1.5989  0.1795
12633TIP3    H259315   4.705   3.605   5.453  0.8215 -0.3616  0.5405
12634TIP3   OH259316   1.368   5.078  11.581  0.2422 -0.5232  0.0410
12634TIP3    H159317   1.394   5.005  11.525  1.3863  0.0276 -0.1867
12634TIP3    H259318   1.338   5.037  11.662  0.3523 -1.2603 -0.2888
12635TIP3   OH259319   2.517   5.246   6.369  1.0594  0.1888 -0.2754
12635TIP3    H159320   2.550   5.333   6.393 -0.1151  0.2961  1.0605
12635TIP3    H259321   2.576   5.185   6.413  0.2740  0.3593  1.0423
12636TIP3   OH259322   0.364   4.086  16.533  0.3791 -0.3824 -0.0788
12636TIP3    H159323   0.444   4.082  16.584  0.0364 -3.3842  0.3818
12636TIP3    H259324   0.385   4.043  16.450 -0.6531 -0.9694 -0.0617
12637TIP3   OH259325   0.259   4.311   0.335  0.0042  0.1545 -0.9057
12637TIP3    H159326   0.198   4.359   0.390  0.2089 -0.3524 -0.2344
12637TIP3    H259327   0.340   4.306   0.386 -0.5169 -2.3808 -0.2102
12638TIP3   OH259328   4.234   5.269  13.001 -0.4641  0.8872  0.4489
12638TIP3    H159329   4.158   5.234  12.954 -0.3777 -2.0668  2.2677
12638TIP3    H259330   4.308   5.254  12.942 -0.9822  1.9725 -0.5173
12639TIP3   OH259331   5.837   5.061  16.529  0.6517  0.8884 -0.5114
12639TIP3    H159332   5.884   5.141  16.508  0.7150  0.9490 -0.1493
12639TIP3    H259333   5.759   5.090  16.577 -0.0700  0.8305 -1.6275
12640TIP3   OH259334   3.733   3.982  10.774 -0.3774 -0.1536 -0.0576
12640TIP3    H159335   3.786   3.903  10.769 -0.6794 -0.4520  1.0181
12640TIP3    H259336   3.661   3.967  10.713 -1.4467 -1.5431  1.4723
12641TIP3   OH259337   3.853   4.405   3.112  0.1818  0.4577 -0.3907
12641TIP3    H159338   3.800   4.342   3.162  0.9515  0.8335  0.9457
12641TIP3    H259339   3.790   4.451   3.057 -0.4631 -1.1493 -1.0755
12642TIP3   OH259340   2.760   2.789  12.699 -0.2922 -0.0161  0.7748
12642TIP3    H159341   2.762   2.830  12.612  1.2711 -0.3322  0.6227
12642TIP3    H259342   2.682   2.824  12.741 -0.8168  0.5062 -0.5908
12643TIP3   OH259343   2.833   6.612   3.994 -0.2110 -0.3556  0.0732
12643TIP3    H159344   2.866   6.666   3.923  1.8679 -1.6156 -0.0102
12643TIP3    H259345   2.858   6.660   4.074  0.8322 -0.7178 -0.0160
12644TIP3   OH259346   2.292   2.998   6.269 -0.5055 -0.4749 -0.4038
12644TIP3    H159347   2.378   2.984   6.230 -1.1229 -2.9136 -1.0513
12644TIP3    H259348   2.311   3.043   6.352  1.1112  1.5347 -1.7656
12645TIP3   OH259349   6.392   1.696  16.212 -1.0070  0.6134  0.7331
12645TIP3    H159350   6.473   1.725  16.255 -1.0158  0.5354  0.8023
12645TIP3    H259351   6.355   1.632  16.272 -1.2171  0.7893  0.7933
12646TIP3   OH259352   4.327   2.053  13.133 -0.5524  1.2185  0.4890
12646TIP3    H159353   4.383   2.130  13.146  0.0457  1.1915 -1.5881
12646TIP3    H259354   4.336   2.003  13.215  3.6327  0.5440 -0.1553
12647TIP3   OH259355   3.476   3.026   1.183  0.7945 -0.1979 -0.3779
12647TIP3    H159356   3.477   3.076   1.265 -0.3028 -1.2155  0.2779
12647TIP3    H259357   3.387   3.037   1.149  1.4153  0.7626 -1.8106
12648TIP3   OH259358   0.309   3.717  16.407  0.0529  0.2031 -0.0019
12648TIP3    H159359   0.290   3.800  16.363  1.0052  0.1575 -0.5169
12648TIP3    H259360   0.404   3.707  16.399 -0.1550 -1.4087 -0.7856
12649TIP3   OH259361   2.034   6.060   0.303 -0.3468 -0.8881  0.8001
12649TIP3    H159362   1.965   6.121   0.280 -0.3763 -1.1593  0.1609
12649TIP3    H259363   2.114   6.112   0.304 -0.1690 -1.0630 -1.0054
12650TIP3   OH259364   2.494   4.883  13.694  0.3839  0.4220 -0.2223
12650TIP3    H159365   2.405   4.917  13.709  0.5153  0.6255  0.1098
12650TIP3    H259366   2.490   4.842  13.608 -0.2178 -0.1634  0.0753
12651TIP3   OH259367   4.639   2.019   4.554  0.0237  0.3381  0.5279
12651TIP3    H159368   4.689   2.100   4.567 -0.9374  1.0339 -0.0045
12651TIP3    H259369   4.609   2.024   4.463 -0.9099 -0.1280  0.7990
12652TIP3   OH259370   1.361   4.129   1.920 -0.5717  0.5723  0.2679
12652TIP3    H159371   1.426   4.197   1.903 -1.5056  1.3727 -0.1791
12652TIP3    H259372   1.286   4.175   1.956 -0.8201 -0.3718  0.9953
12653TIP3   OH259373   5.293   0.957   2.316  0.0269  0.3014 -0.0781
12653TIP3    H159374   5.280   0.863   2.325  0.8234  0.1018 -0.9634
12653TIP3    H259375   5.388   0.969   2.315 -0.0556  1.2052  0.8229
12654TIP3   OH259376   4.960   1.192   5.623  0.2662  0.1974  0.0515
12654TIP3    H159377   4.965   1.105   5.582  0.3394  0.4879 -0.5728
12654TIP3    H259378   5.036   1.239   5.588  0.6364  0.2785  0.9509
12655TIP3   OH259379   6.733   0.141   1.694 -0.2222 -0.6916 -0.2471
12655TIP3    H159380   6.781   0.087   1.757 -0.3969  0.4314  0.9086
12655TIP3    H259381   6.790   0.217   1.679 -1.3289  0.3895  0.7154
12656TIP3   OH259382   0.930   5.112   2.641 -0.6107 -0.0167 -0.7226
12656TIP3    H159383   1.017   5.107   2.680 -0.4237  0.3856 -1.0746
12656TIP3    H259384   0.942   5.169   2.564 -1.2780  0.4122 -0.5153
12657TIP3   OH259385   2.356   1.669   3.585  0.2462 -0.0818 -0.3552
12657TIP3    H159386   2.435   1.636   3.543  1.4100  2.6684 -0.5444
12657TIP3    H259387   2.377   1.760   3.608 -2.4754  0.4027  0.6221
12658TIP3   OH259388   5.547   1.134  14.388 -0.1347  0.3354  0.0033
12658TIP3    H159389   5.620   1.157  14.445 -0.7715  0.0971  0.9469
12658TIP3    H259390   5.582   1.068  14.329  0.7404  1.1283 -0.3778
12659TIP3   OH259391   2.816   1.927   3.587  0.0401  0.0849  0.2131
12659TIP3    H159392   2.870   1.849   3.598 -0.5525 -0.1133  2.3051
12659TIP3    H259393   2.750   1.919   3.656 -1.4539  1.2954 -1.0112
12660TIP3   OH259394   2.858   5.349  14.979  0.1052  0.0940  0.0123
12660TIP3    H159395   2.823   5.302  14.903  0.6945 -2.4244  1.2089
12660TIP3    H259396   2.788   5.346  15.044 -0.1237  1.5849 -0.1407
12661TIP3   OH259397   2.795   3.231  14.190 -0.6311  0.4230  0.7555
12661TIP3    H159398   2.753   3.257  14.108  0.5790 -0.2477 -0.1285
12661TIP3    H259399   2.815   3.313  14.235 -1.3702  0.7964  0.4066
12662TIP3   OH259400   2.810   5.418   4.448 -0.2001  0.2303  0.6448
12662TIP3    H159401   2.869   5.490   4.427 -0.4400  0.6702  1.4136
12662TIP3    H259402   2.816   5.410   4.544  0.9535 -1.7494  0.4744
12663TIP3   OH259403   4.267   5.813   0.083 -0.3639  0.3080  0.3344
12663TIP3    H159404   4.235   5.894   0.043  1.0461  0.0410 -1.4625
12663TIP3    H259405   4.309   5.842   0.165 -1.8622  1.0750  0.8670
12664TIP3   OH259406   4.840   5.217  11.803  0.5860 -0.0652  0.3658
12664TIP3    H159407   4.773   5.149  11.808  0.7186 -0.0858  2.3109
12664TIP3    H259408   4.822   5.261  11.720 -2.0186  0.1015  0.9300
12665TIP3   OH259409   2.679   4.523   0.893 -0.3893  0.2026  0.2358
12665TIP3    H159410   2.624   4.556   0.964  0.5587  0.3299  0.9255
12665TIP3    H259411   2.763   4.504   0.934  0.5002  1.2151 -1.0414
12666TIP3   OH259412   0.100   3.346   4.511 -0.0842  0.3504 -0.4437
12666TIP3    H159413   0.053   3.274   4.470 -0.6156  0.5534 -0.2019
12666TIP3    H259414   0.042   3.375   4.581  0.3445  0.6947 -0.2313
12667TIP3   OH259415   3.053   0.733  15.923  0.3696  0.0084 -0.4985
12667TIP3    H159416   3.142   0.698  15.914  0.9994  0.8464  1.6773
12667TIP3    H259417   3.067   0.828  15.932 -0.9302  0.3723 -1.9014
12668TIP3   OH259418   1.739   3.202   4.465  0.3302  0.2537  0.2098
12668TIP3    H159419   1.710   3.210   4.556 -0.8847 -0.3747 -0.0920
12668TIP3    H259420   1.735   3.291   4.430  1.0056  0.5299  0.8275
12669TIP3   OH259421   2.203   5.222   5.890 -0.3865  0.0640  0.1579
12669TIP3    H159422   2.150   5.237   5.968 -0.9691  0.1517 -0.2440
12669TIP3    H259423   2.157   5.270   5.820 -0.6166 -1.0786 -0.5116
12670TIP3   OH259424   2.934   6.764  12.099  0.1886  0.2284  0.2345
12670TIP3    H159425   2.900   6.844  12.059 -0.2595  0.8979  1.8445
12670TIP3    H259426   3.005   6.794  12.156  1.4909 -0.8063 -0.7981
12671TIP3   OH259427   5.566   6.055   4.294 -0.0822  0.7879 -0.4285
12671TIP3    H159428   5.606   6.075   4.379 -1.0811  0.6143  0.0988
12671TIP3    H259429   5.526   5.969   4.306 -0.2914  0.7903 -1.0625
12672TIP3   OH259430   5.762   4.438  13.295  0.0069 -0.2338 -0.0305
12672TIP3    H159431   5.780   4.441  13.201  0.9023 -1.3820  0.0758
12672TIP3    H259432   5.675   4.477  13.304  1.0735  2.5659 -0.9857
12673TIP3   OH259433   4.238   0.545   0.328 -0.1309  0.4067  0.6929
12673TIP3    H159434   4.282   0.607   0.269  0.0812 -0.4598 -0.0739
12673TIP3    H259435   4.184   0.491   0.270  0.9652 -1.2186  1.1209
12674TIP3   OH259436   6.365   1.062   3.239 -0.3123  0.9140  0.6245
12674TIP3    H159437   6.275   1.090   3.223  0.5334  3.8185  0.2467
12674TIP3    H259438   6.413   1.144   3.252  1.9722 -0.5995  2.6291
12675TIP3   OH259439   3.563   4.829   1.812  0.2541  0.4105 -0.0665
12675TIP3    H159440   3.619   4.857   1.740  1.6749  1.3175  1.3178
12675TIP3    H259441   3.559   4.733   1.805  2.1866  0.2974 -0.0967
12676TIP3   OH259442   5.120   1.008   6.672  0.3178 -0.0209 -0.2341
12676TIP3    H159443   5.076   0.930   6.637 -0.4006  0.8975 -1.4289
12676TIP3    H259444   5.186   0.973   6.732  0.2871 -1.5597 -1.0534
12677TIP3   OH259445   4.552   5.306   2.984 -0.3774  0.0534 -0.0196
12677TIP3    H159446   4.548   5.222   2.939  1.3162 -0.5733  0.9253
12677TIP3    H259447   4.466   5.315   3.025 -1.1927 -0.3539 -1.5743
12678TIP3   OH259448   3.969   5.396  15.923  0.0670  0.6503  0.1462
12678TIP3    H159449   4.040   5.347  15.965 -1.8044 -3.2339 -0.7802
12678TIP3    H259450   3.976   5.373  15.830 -1.8467  0.8574 -0.0846
12679TIP3   OH259451   3.346   1.666   0.989 -0.7575  0.3532 -0.0966
12679TIP3    H159452   3.418   1.729   0.994  0.1118 -0.6423  0.3507
12679TIP3    H259453   3.345   1.637   0.897  0.2840 -0.5787  0.1597
12680TIP3   OH259454   5.135   1.922   2.655 -0.3311  0.1509 -0.3577
12680TIP3    H159455   5.211   1.871   2.682  0.3783  0.6977 -1.2753
12680TIP3    H259456   5.075   1.858   2.616  0.1353 -0.1299 -0.6165
12681TIP3   OH259457   2.904   1.263  14.873 -0.0626 -0.3603  0.3419
12681TIP3    H159458   2.913   1.340  14.816 -1.5410 -0.1405  0.3645
12681TIP3    H259459   2.977   1.206  14.848  0.3359  0.5075 -0.5354
12682TIP3   OH259460   5.213   5.895  12.696  0.0496 -0.5717  0.0929
12682TIP3    H159461   5.123   5.896  12.728 -0.0959 -0.6697 -0.2975
12682TIP3    H259462   5.262   5.950  12.757 -0.5902  0.7908 -0.5991
12683TIP3   OH259463   6.765   0.017  17.036  0.1946  0.2153 -0.4414
12683TIP3    H159464   6.698   0.055  17.093 -0.2117 -2.6432  1.2275
12683TIP3    H259465   6.731   0.027  16.948 -0.5274  2.2850  0.0329
12684TIP3   OH259466   2.872   2.345  13.795  0.4009 -0.2384  0.6774
12684TIP3    H159467   2.789   2.334  13.748 -0.5616  0.2947  2.1650
12684TIP3    H259468   2.907   2.257  13.803 -0.1684 -0.5061  0.2846
12685TIP3   OH259469   2.239   1.059   2.683  0.1009 -0.4076  0.2057
12685TIP3    H159470   2.208   1.141   2.721 -3.4495 -1.7629  0.6003
12685TIP3    H259471   2.209   1.063   2.592  1.2912 -0.6496 -0.2128
12686TIP3   OH259472   6.472   0.721   0.373  0.3683  0.0279  0.0719
12686TIP3    H159473   6.403   0.757   0.316  0.4053  1.6844  1.0148
12686TIP3    H259474   6.429   0.651   0.421 -0.6649  0.9838  0.5848
12687TIP3   OH259475   0.925   3.262   5.535  0.2193  0.1614 -0.1074
12687TIP3    H159476   0.896   3.315   5.610 -2.1476  0.1572 -0.9348
12687TIP3    H259477   0.856   3.273   5.470  2.4759  0.6075 -2.5601
12688TIP3   OH259478   3.658   3.900   4.519  0.4002 -0.3400  0.2944
12688TIP3    H159479   3.667   3.806   4.506 -1.9861 -0.5281 -0.3911
12688TIP3    H259480   3.577   3.923   4.474  1.8970  2.4053 -1.3246
12689TIP3   OH259481   3.606   3.792  16.239 -0.3578 -0.5114  0.0673
12689TIP3    H159482   3.608   3.815  16.146 -1.5558 -1.4440 -0.2088
12689TIP3    H259483   3.630   3.700  16.241 -2.6602 -1.1539  0.4148
12690TIP3   OH259484   5.902   4.035  12.943 -1.2392 -0.2100 -0.4474
12690TIP3    H159485   5.913   4.129  12.930 -0.9064 -0.0528  0.8774
12690TIP3    H259486   5.833   4.027  13.010 -1.5555 -0.9226 -0.8404
12691TIP3   OH259487   6.071   2.414   6.436 -0.1426 -0.4595 -0.2096
12691TIP3    H159488   6.115   2.329   6.438 -0.8966 -0.8733  1.8244
12691TIP3    H259489   6.139   2.477   6.458 -0.3017 -1.0085  2.1568
12692TIP3   OH259490   2.326   2.018  11.656  0.2651  0.3852  0.4055
12692TIP3    H159491   2.369   2.074  11.720 -0.3316 -0.0309  1.1947
12692TIP3    H259492   2.249   2.068  11.628 -0.4016 -0.1067  1.2910
12693TIP3   OH259493   5.648   5.724   2.349  0.8124 -0.0909  0.0327
12693TIP3    H159494   5.698   5.802   2.370 -0.0570  0.5775 -0.3005
12693TIP3    H259495   5.703   5.651   2.377  2.0819  0.6051 -0.5792
12694TIP3   OH259496   4.453   5.218   0.066 -0.0240 -0.0252  0.8773
12694TIP3    H159497   4.487   5.132   0.091 -2.0174 -1.1214  0.0563
12694TIP3    H259498   4.431   5.208  -0.027  1.2285  1.9273  0.3059
12695TIP3   OH259499   4.775   6.404  11.546  0.5661 -0.3536  0.2257
12695TIP3    H159500   4.720   6.464  11.597  0.1938 -0.1904 -0.3598
12695TIP3    H259501   4.865   6.435  11.562  0.5594 -1.0584  1.7487
12696TIP3   OH259502   4.180   0.797   5.433 -0.0254 -0.0752  0.4870
12696TIP3    H159503   4.178   0.723   5.372 -0.1700  0.2384  0.1033
12696TIP3    H259504   4.177   0.758   5.520  1.1116 -0.5860  0.3212
12697TIP3   OH259505   5.310   1.120   0.827 -0.3067  0.0211  0.5743
12697TIP3    H159506   5.330   1.086   0.740 -0.5475 -0.7521  0.8131
12697TIP3    H259507   5.215   1.133   0.827 -0.5408 -1.4629  1.2143
12698TIP3   OH259508   5.201   1.500   4.455  0.1298  0.2788 -0.7537
12698TIP3    H159509   5.239   1.420   4.419 -0.6744  1.0423 -3.6352
12698TIP3    H259510   5.195   1.559   4.379 -1.0676  2.3722  0.8646
12699TIP3   OH259511   1.544   0.121   5.039 -0.1320  0.0961 -0.3513
12699TIP3    H159512   1.550   0.148   5.130  1.3723  0.4178 -0.5188
12699TIP3    H259513   1.606   0.048   5.032 -0.7594 -0.3975 -0.9679
12700TIP3   OH259514   4.754   1.389  16.747  0.3747 -0.2515 -0.3577
12700TIP3    H159515   4.694   1.462  16.738 -1.4447 -1.4879  1.0148
12700TIP3    H259516   4.722   1.341  16.823  3.3923 -0.7329  0.7750
12701TIP3   OH259517   6.706   1.206  16.818  0.0327 -0.5524 -0.1508
12701TIP3    H159518   6.653   1.128  16.837 -1.1449  0.0598 -0.7911
12701TIP3    H259519   6.724   1.201  16.724 -0.6694  0.2928 -0.3444
12702TIP3   OH259520   0.939   6.355   1.505 -0.0483 -0.1944  0.2400
12702TIP3    H159521   0.862   6.307   1.475 -0.9768  0.8305  0.9258
12702TIP3    H259522   0.974   6.303   1.577  0.5728 -1.2342 -0.7804
12703TIP3   OH259523   0.928   1.502   0.953  0.3288 -0.4730 -0.3289
12703TIP3    H159524   1.000   1.496   1.017  0.0522 -0.1760  0.0150
12703TIP3    H259525   0.891   1.414   0.951 -0.1888 -0.2901  0.5539
12704TIP3   OH259526   0.907   2.628   5.697  0.1364  0.4198  0.5565
12704TIP3    H159527   0.868   2.688   5.634 -0.0076 -0.1777  0.0647
12704TIP3    H259528   0.890   2.668   5.782 -2.1453 -0.1294  0.4237
12705TIP3   OH259529   3.740   1.818  15.815 -0.5471 -0.2775 -0.2343
12705TIP3    H159530   3.755   1.746  15.754 -1.7765  1.0847 -2.3022
12705TIP3    H259531   3.790   1.796  15.893  2.2782 -1.4760 -2.2378
12706TIP3   OH259532   3.220   5.164   4.484  0.2250  0.0963  0.1628
12706TIP3    H159533   3.300   5.183   4.436 -0.2888  0.3075 -0.6175
12706TIP3    H259534   3.245   5.171   4.576  1.1115  0.1079 -0.0759
12707TIP3   OH259535   6.744   1.772  14.462  0.1434 -0.4616  0.1838
12707TIP3    H159536   6.716   1.694  14.414 -0.5306  0.6788 -1.3411
12707TIP3    H259537   6.828   1.796  14.424 -1.1186  1.3628 -1.6546
12708TIP3   OH259538   2.325   6.561  12.026 -0.2689  0.3741 -0.1094
12708TIP3    H159539   2.272   6.487  12.054  1.0430 -0.6357 -0.2311
12708TIP3    H259540   2.272   6.606  11.961  0.0228 -2.1218 -2.2273
12709TIP3   OH259541   5.862   0.272  14.422 -0.0124  0.7041  0.0028
12709TIP3    H159542   5.862   0.182  14.390  0.2179  0.3116  1.0818
12709TIP3    H259543   5.786   0.312  14.379 -1.3243 -0.5704  1.0482
12710TIP3   OH259544   6.044   4.308  12.892 -0.4717  0.5642 -0.0711
12710TIP3    H159545   6.036   4.293  12.986 -4.5284 -4.1202 -0.7336
12710TIP3    H259546   6.122   4.258  12.866  0.9646  2.2908  0.7017
12711TIP3   OH259547   0.192   6.406   6.525  0.2930  0.0524  0.3486
12711TIP3    H159548   0.191   6.469   6.597  1.9985 -1.1575  1.5013
12711TIP3    H259549   0.164   6.323   6.564 -0.6557 -0.2163 -0.8428
12712TIP3   OH259550   5.962   6.342   5.792 -0.0724  0.0314  0.7173
12712TIP3    H159551   6.022   6.414   5.809  0.6822 -0.1570 -0.9069
12712TIP3    H259552   5.950   6.343   5.697 -2.4858 -0.0907  0.9523
12713TIP3   OH259553   0.368   5.955  14.020 -0.8001  0.0413 -0.3068
12713TIP3    H159554   0.385   6.002  13.938  0.4376  0.5658  0.2165
12713TIP3    H259555   0.453   5.915  14.041 -0.8665  0.6256  1.1442
12714TIP3   OH259556   3.119   2.790   4.426 -0.0909  0.8392  0.4149
12714TIP3    H159557   3.037   2.748   4.449 -0.3639  0.0115 -1.8672
12714TIP3    H259558   3.160   2.809   4.510 -1.9439 -0.0229  1.5802
12715TIP3   OH259559   1.215   1.744  16.268  0.1643 -0.5109 -0.2126
12715TIP3    H159560   1.231   1.833  16.300 -0.9289  0.7371 -2.8224
12715TIP3    H259561   1.298   1.718  16.227  0.4164 -0.6168  0.3582
12716TIP3   OH259562   1.684   6.359  11.811 -0.3804  0.1158 -0.0460
12716TIP3    H159563   1.717   6.313  11.734 -3.0829 -1.8327 -0.1794
12716TIP3    H259564   1.749   6.343  11.879  1.7993  1.4189 -1.6691
12717TIP3   OH259565   6.246   1.949   0.575 -0.5427 -0.0324 -0.1121
12717TIP3    H159566   6.179   1.900   0.528 -0.8137  0.2640 -0.0409
12717TIP3    H259567   6.323   1.946   0.518 -0.7357 -0.0462 -0.3730
12718TIP3   OH259568   1.704   5.157  15.135 -0.6988  0.2067  0.4026
12718TIP3    H159569   1.792   5.130  15.108 -0.4148  1.4094  0.0322
12718TIP3    H259570   1.655   5.163  15.053 -0.7662  0.7165  0.4732
12719TIP3   OH259571   3.074   5.222   4.964  0.0721 -0.0572 -0.6851
12719TIP3    H159572   3.060   5.147   5.022 -0.4380  1.5519  1.3889
12719TIP3    H259573   2.988   5.237   4.925  0.7170 -2.0268 -3.1596
12720TIP3   OH259574   1.396   5.521  15.587  0.0588 -0.5247  0.0490
12720TIP3    H159575   1.404   5.442  15.534 -0.0738 -0.7053  0.2977
12720TIP3    H259576   1.486   5.551  15.599  0.0521 -0.1333 -0.8002
12721TIP3   OH259577   1.729   4.015   0.270  0.3594 -0.6031 -0.1115
12721TIP3    H159578   1.808   4.068   0.262  1.1511 -1.2812  2.2703
12721TIP3    H259579   1.744   3.940   0.212  0.5174  0.2856 -1.2488
12722TIP3   OH259580   4.008   1.382  15.583 -0.3003  0.4621 -0.6149
12722TIP3    H159581   4.089   1.388  15.633 -0.2735  0.0917 -0.6132
12722TIP3    H259582   3.949   1.331  15.639 -0.0296 -0.6067 -1.2616
12723TIP3   OH259583   4.777   2.780  11.909  0.5450 -0.3765  0.0628
12723TIP3    H159584   4.776   2.703  11.852 -1.4827 -0.4069  0.0636
12723TIP3    H259585   4.687   2.787  11.941  1.6215 -0.5456  3.5683
12724TIP3   OH259586   3.854   0.567  14.233 -0.0149  0.1758 -0.4373
12724TIP3    H159587   3.901   0.498  14.186  0.7665 -0.5201  1.2664
12724TIP3    H259588   3.762   0.543  14.225  0.2073 -0.7319 -0.4141
12725TIP3   OH259589   0.969   1.913   5.668 -0.4019  0.2788  0.5132
12725TIP3    H159590   1.031   1.933   5.598 -0.8507 -0.2883 -0.0646
12725TIP3    H259591   0.909   1.849   5.629 -3.0249  2.7560  0.1439
12726TIP3   OH259592   5.791   3.429   0.875 -0.1198 -0.2806  0.1128
12726TIP3    H159593   5.869   3.458   0.828 -0.1696  0.1627  0.3007
12726TIP3    H259594   5.764   3.349   0.830  0.2406 -0.2456 -0.1684
12727TIP3   OH259595   5.968   5.204   0.747 -0.3503 -0.2064  0.0182
12727TIP3    H159596   5.910   5.129   0.757 -1.2166  0.2915 -1.0631
12727TIP3    H259597   6.054   5.166   0.731 -0.9106 -1.0173 -1.2837
12728TIP3   OH259598   0.668   1.838  13.843 -0.1559 -0.0476  0.3180
12728TIP3    H159599   0.739   1.901  13.853  0.8307 -0.9891 -0.6202
12728TIP3    H259600   0.662   1.822  13.749  0.4176 -2.2214  0.5964
12729TIP3   OH259601   0.014   1.669   2.774  0.1423 -0.2929 -0.0946
12729TIP3    H159602   0.086   1.676   2.712  1.1601  4.0562  1.2415
12729TIP3    H259603   0.055   1.646   2.857 -0.1089  1.1061  0.4394
12730TIP3   OH259604   3.967   6.029  14.644 -0.4372 -0.2145  0.0111
12730TIP3    H159605   4.011   5.949  14.613 -3.3520 -1.7775 -0.4786
12730TIP3    H259606   3.908   5.998  14.713 -0.7414  1.7510  0.6815
12731TIP3   OH259607   1.281   5.126   4.392  0.1978  0.1588 -0.4065
12731TIP3    H159608   1.246   5.125   4.303  0.3276  0.0415 -0.4568
12731TIP3    H259609   1.375   5.111   4.381  0.2687  0.4821 -0.2747
12732TIP3   OH259610   5.976   2.345   2.427 -1.1901 -0.2054 -0.2614
12732TIP3    H159611   6.004   2.398   2.503  0.1022 -1.6630  0.3369
12732TIP3    H259612   5.990   2.255   2.455  1.3900 -0.7955 -2.9517
12733TIP3   OH259613   5.564   4.678   6.338 -0.0975 -0.1277 -0.3542
12733TIP3    H159614   5.535   4.767   6.358  0.0361 -0.3910  1.0486
12733TIP3    H259615   5.573   4.635   6.423  0.1328 -1.3990 -0.9961
12734TIP3   OH259616   6.642   0.200   3.549 -0.0088  0.6287  0.2391
12734TIP3    H159617   6.587   0.139   3.597 -2.9242  2.3238 -0.7256
12734TIP3    H259618   6.616   0.190   3.457  1.6038  1.2141 -0.3314
12735TIP3   OH259619   5.988   4.595   4.686  0.3882  0.0333 -0.0336
12735TIP3    H159620   5.930   4.652   4.737  0.0097  1.2140 -1.7136
12735TIP3    H259621   6.022   4.651   4.617  1.1023 -1.4533 -0.9381
12736TIP3   OH259622   1.387   2.739  14.370 -0.2334 -0.0053 -0.4266
12736TIP3    H159623   1.316   2.719  14.430  0.0280 -1.4993 -0.5795
12736TIP3    H259624   1.351   2.805  14.311 -0.0251  2.7037  2.2371
12737TIP3   OH259625   6.238   0.413  11.161 -0.6387 -0.2108 -0.5873
12737TIP3    H159626   6.267   0.384  11.248 -1.7345 -0.0376 -0.1426
12737TIP3    H259627   6.198   0.499  11.177  0.5459  0.5366 -1.5239
12738TIP3   OH259628   6.249   3.878  14.401  0.5561  0.0606 -0.1482
12738TIP3    H159629   6.200   3.807  14.360  1.2953 -0.3104 -0.3946
12738TIP3    H259630   6.340   3.849  14.400  0.8473  0.9297 -0.0873
12739TIP3   OH259631   2.743   6.175   0.354  0.0807  0.5117 -0.4047
12739TIP3    H159632   2.816   6.236   0.368  0.4009  0.2283 -0.8107
12739TIP3    H259633   2.773   6.093   0.393 -0.0860  0.4351 -0.4394
12740TIP3   OH259634   5.188   5.451   0.804  0.1640 -0.1934  0.1361
12740TIP3    H159635   5.199   5.429   0.712  0.1915  0.6220 -0.0675
12740TIP3    H259636   5.251   5.395   0.851  1.7367  0.9273 -0.5502
12741TIP3   OH259637   5.189   5.396   1.188 -0.1235  0.0203 -0.2923
12741TIP3    H159638   5.279   5.426   1.179  0.0014 -0.4032 -0.4431
12741TIP3    H259639   5.194   5.301   1.184 -0.5581 -0.0133 -0.1289
12742TIP3   OH259640   0.939   3.569  12.383 -0.3112  0.3783 -0.0546
12742TIP3    H159641   0.964   3.572  12.476  0.7456  1.8588 -0.3567
12742TIP3    H259642   0.856   3.618  12.380  0.5008  1.8011 -0.1098
12743TIP3   OH259643   1.926   6.369   3.241 -0.2221 -0.3724 -0.1268
12743TIP3    H159644   1.836   6.368   3.274  0.4429  1.0022  1.9188
12743TIP3    H259645   1.978   6.331   3.312  1.0435  0.6664 -0.4575
12744TIP3   OH259646   5.138   5.669   5.049 -0.2776  0.3041 -0.9083
12744TIP3    H159647   5.101   5.645   4.963 -0.5876 -0.1711 -0.6457
12744TIP3    H259648   5.170   5.758   5.037  1.1638 -0.3089 -1.9999
12745TIP3   OH259649   2.968   6.329   0.024  0.1189  0.4168  0.5306
12745TIP3    H159650   3.002   6.239   0.022 -0.4937  0.1961 -0.4051
12745TIP3    H259651   3.024   6.374   0.087  0.1387 -0.7354  1.3678
12746TIP3   OH259652   6.468   3.318   2.055 -0.4436  0.2076 -0.3225
12746TIP3    H159653   6.450   3.284   2.143  1.2262 -1.4510 -0.5540
12746TIP3    H259654   6.505   3.405   2.070  0.0427 -0.1485  0.6528
12747TIP3   OH259655   5.061   1.574  13.714 -0.7358 -0.1241  0.0270
12747TIP3    H159656   5.122   1.509  13.680 -0.5394 -1.5659  2.8416
12747TIP3    H259657   4.974   1.540  13.692 -0.6237 -1.2133  1.1837
12748TIP3   OH259658   4.352   3.074   6.468  0.0162 -0.1472 -0.5541
12748TIP3    H159659   4.424   3.137   6.481 -0.6532  0.6985 -0.8763
12748TIP3    H259660   4.396   2.995   6.436  0.9658 -0.1212  0.5901
12749TIP3   OH259661   1.744   5.048   1.482  0.2527 -0.1618 -0.3943
12749TIP3    H159662   1.797   4.988   1.534  0.8176 -0.2444 -1.0654
12749TIP3    H259663   1.769   5.031   1.391 -1.8976 -1.1934 -0.8658
12750TIP3   OH259664   3.291   6.681  15.526 -0.1505  0.3897  0.2522
12750TIP3    H159665   3.357   6.751  15.517 -0.8737  0.8759 -2.2669
12750TIP3    H259666   3.342   6.602  15.539  1.0616  0.7229 -1.8609
12751TIP3   OH259667   2.503   1.091   4.131 -0.0794 -0.0692  0.4155
12751TIP3    H159668   2.483   1.010   4.084  0.0676 -0.0129  0.2532
12751TIP3    H259669   2.430   1.149   4.111 -1.3975 -0.9505  2.4408
12752TIP3   OH259670   5.228   0.500   0.670  0.1430 -0.3726 -0.4704
12752TIP3    H159671   5.259   0.414   0.698  1.4705 -0.6138 -2.4361
12752TIP3    H259672   5.280   0.562   0.722  1.8596 -0.7957 -1.5960
12753TIP3   OH259673   4.874   4.280  11.663 -0.4561  0.5203 -0.3369
12753TIP3    H159674   4.846   4.354  11.716  0.8584  0.3540  0.6406
12753TIP3    H259675   4.839   4.298  11.576 -0.7092  1.9561  0.0406
12754TIP3   OH259676   3.406   2.425  16.846  0.0000  0.1210 -0.2563
12754TIP3    H159677   3.480   2.365  16.863  0.2394  0.9596  1.9867
12754TIP3    H259678   3.328   2.371  16.859  0.2175 -0.0026  0.5692
12755TIP3   OH259679   2.160   0.582  12.105  0.4062 -0.0283 -0.0090
12755TIP3    H159680   2.083   0.527  12.093  1.2694 -1.3449  0.3662
12755TIP3    H259681   2.125   0.671  12.107 -0.6947 -0.1379 -4.3409
12756TIP3   OH259682   5.624   5.747   5.119  0.1313 -0.1144 -0.4894
12756TIP3    H159683   5.622   5.707   5.032  0.8626 -1.0146 -0.1156
12756TIP3    H259684   5.706   5.796   5.121  0.5108 -0.7570 -0.0363
12757TIP3   OH259685   2.799   0.782   5.810  0.4263 -0.1566 -0.2128
12757TIP3    H159686   2.840   0.707   5.768  1.5421  0.4501 -0.2445
12757TIP3    H259687   2.871   0.831   5.849 -0.2785  0.8615 -0.1241
12758TIP3   OH259688   1.497   3.087  16.581  0.3366  0.4266 -0.5132
12758TIP3    H159689   1.448   3.154  16.532 -0.4416  0.8785  0.8312
12758TIP3    H259690   1.483   3.110  16.673 -0.5480 -1.9869  0.0238
12759TIP3   OH259691   1.365   1.550  12.587 -0.4290 -0.4372 -0.0334
12759TIP3    H159692   1.401   1.486  12.648 -1.3948  0.2223  1.2759
12759TIP3    H259693   1.277   1.518  12.568  0.1674 -1.1026 -1.8058
12760TIP3   OH259694   4.900   4.218   4.927  0.0875  0.5034  0.4993
12760TIP3    H159695   4.940   4.298   4.960 -0.6878  0.6572  1.1001
12760TIP3    H259696   4.910   4.223   4.832  0.9421  0.8199  0.5984
12761TIP3   OH259697   6.061   3.716  16.385 -0.1277 -0.0165  0.2425
12761TIP3    H159698   6.125   3.775  16.344  0.0359  0.7138  1.5111
12761TIP3    H259699   6.107   3.681  16.461 -0.3161 -1.6215 -0.3473
12762TIP3   OH259700   1.192   0.259  10.843  0.3689 -0.4109 -0.0844
12762TIP3    H159701   1.267   0.283  10.788  0.3191 -1.2331 -0.5172
12762TIP3    H259702   1.139   0.339  10.847  2.2263  0.8525  1.8719
12763TIP3   OH259703   5.047   2.773  14.572  0.5209 -0.0625  0.7859
12763TIP3    H159704   5.081   2.738  14.654  3.6538 -1.0287 -0.7571
12763TIP3    H259705   5.003   2.855  14.596  1.5801 -0.1767  3.3698
12764TIP3   OH259706   4.727   5.052   3.129 -0.0458 -0.1512  0.4803
12764TIP3    H159707   4.813   5.009   3.122  0.7472  1.1351  1.7452
12764TIP3    H259708   4.747   5.140   3.161 -1.8467  0.1469  0.8758
12765TIP3   OH259709   4.847   1.210   4.395 -0.5956 -0.3700 -0.5348
12765TIP3    H159710   4.807   1.131   4.359 -0.1401 -1.2137  0.7366
12765TIP3    H259711   4.805   1.221   4.480  0.2644  0.0277 -0.1556
12766TIP3   OH259712   1.987   1.554   5.651  0.0391 -0.3656  0.1428
12766TIP3    H159713   2.023   1.640   5.629  2.1891 -1.0974  0.5238
12766TIP3    H259714   1.906   1.573   5.700 -1.2072  1.3433 -2.3960
12767TIP3   OH259715   1.240   5.336   5.238 -0.1791 -0.7032 -0.5250
12767TIP3    H159716   1.260   5.292   5.320  0.5781  1.8033  0.7184
12767TIP3    H259717   1.325   5.366   5.205 -0.7906  0.9427 -0.6463
12768TIP3   OH259718   4.547   2.993   6.026  0.7118  0.2882 -0.2640
12768TIP3    H159719   4.589   2.952   5.950  0.4123 -1.5550  0.5175
12768TIP3    H259720   4.601   2.966   6.100 -1.2847 -1.4628  0.6602
12769TIP3   OH259721   6.458   0.646  14.759 -0.3345 -0.0673 -0.2985
12769TIP3    H159722   6.403   0.571  14.780 -2.7270  1.2724 -1.4355
12769TIP3    H259723   6.413   0.691  14.688  1.9308  1.4901 -0.8732
12770TIP3   OH259724   4.685   2.731  12.484 -0.5161 -0.3257  0.0442
12770TIP3    H159725   4.631   2.807  12.505  0.0823  0.7037 -1.9421
12770TIP3    H259726   4.728   2.754  12.402  2.5457 -1.3002  1.2421
12771TIP3   OH259727   3.667   0.447   5.128 -0.3033 -0.0166  0.1921
12771TIP3    H159728   3.699   0.477   5.043 -1.8572  0.1108 -0.3684
12771TIP3    H259729   3.746   0.439   5.181  0.8542 -1.2124 -1.5895
12772TIP3   OH259730   3.182   6.078   2.287  0.3817  0.4083 -0.4550
12772TIP3    H159731   3.217   6.150   2.235  3.1495 -0.6416 -0.2450
12772TIP3    H259732   3.254   6.053   2.345 -0.5524 -2.3091 -0.3031
12773TIP3   OH259733   4.875   6.191   5.181  0.1336  0.6222  0.2630
12773TIP3    H159734   4.936   6.260   5.206 -0.4879  0.6288  1.9286
12773TIP3    H259735   4.788   6.228   5.199 -0.4054  0.5816 -1.9587
12774TIP3   OH259736   2.248   4.507  15.678 -0.1459 -0.6644 -0.1799
12774TIP3    H159737   2.236   4.579  15.740 -1.1100 -3.5944  3.4066
12774TIP3    H259738   2.160   4.481  15.653  0.0435 -2.0791  0.5327
12775TIP3   OH259739   6.194   3.068  12.326  0.1979  0.2761  0.2023
12775TIP3    H159740   6.246   3.098  12.252 -1.5665  1.3827 -0.6654
12775TIP3    H259741   6.208   3.134  12.394  0.4567  0.2130  0.2078
12776TIP3   OH259742   4.859   3.361  12.653 -0.1402 -0.4772  0.3498
12776TIP3    H159743   4.804   3.320  12.720  0.7738 -0.0097  1.4202
12776TIP3    H259744   4.839   3.454  12.660 -0.2958 -0.4556 -0.2916
12777TIP3   OH259745   2.219   3.069   0.656 -0.2252 -0.4039  0.1713
12777TIP3    H159746   2.257   3.082   0.742  0.9785 -1.0060 -0.2514
12777TIP3    H259747   2.273   3.120   0.597 -0.8781 -0.2087 -0.2763
12778TIP3   OH259748   6.471   5.160  15.010 -0.5617  0.1085  0.3624
12778TIP3    H159749   6.462   5.138  15.103  0.2347 -0.4725  0.3147
12778TIP3    H259750   6.447   5.253  15.005 -3.2132 -0.4617  0.7101
12779TIP3   OH259751   0.113   2.656  12.068  0.1482  0.7610 -0.2530
12779TIP3    H159752   0.090   2.702  11.987 -1.9455 -0.3112 -0.3434
12779TIP3    H259753   0.032   2.659  12.120  1.2058  0.6867  1.4502
12780TIP3   OH259754   3.699   5.746  12.595 -0.1758  0.2335 -0.6357
12780TIP3    H159755   3.613   5.781  12.573 -0.4645 -0.4073 -0.5658
12780TIP3    H259756   3.695   5.730  12.689  0.3597  1.0977 -0.4567
12781TIP3   OH259757   3.247   2.867   4.012 -0.1472  0.2754 -0.7366
12781TIP3    H159758   3.244   2.912   4.096  0.1376 -0.7800 -0.1379
12781TIP3    H259759   3.159   2.878   3.975 -0.5522 -0.0279  0.1228
12782TIP3   OH259760   4.437   2.843  11.693  0.3849  0.2511  0.9764
12782TIP3    H159761   4.443   2.762  11.643 -0.1560  1.1191 -0.5663
12782TIP3    H259762   4.478   2.823  11.777  1.1481 -1.3181  0.2663
12783TIP3   OH259763   5.888   0.304  10.385 -0.3638 -0.0995  0.8614
12783TIP3    H159764   5.979   0.310  10.355  0.2346 -1.8146  2.1237
12783TIP3    H259765   5.885   0.359  10.463  0.1776 -1.5233  1.9433
12784TIP3   OH259766   1.687   2.075   2.679  0.2370  0.4331 -0.0267
12784TIP3    H159767   1.755   2.143   2.679  1.1899 -0.5085 -0.0045
12784TIP3    H259768   1.630   2.099   2.606  1.5543  0.2975 -1.1264
12785TIP3   OH259769   3.331   6.140  15.716 -0.1158  0.5749  0.4612
12785TIP3    H159770   3.243   6.104  15.732 -0.0497  0.1163 -0.1550
12785TIP3    H259771   3.378   6.127  15.798 -0.9329  1.7896  1.1599
12786TIP3   OH259772   6.444   6.364  12.968  0.5583 -0.3047  0.3013
12786TIP3    H159773   6.400   6.280  12.956  1.5262 -0.7431 -0.3184
12786TIP3    H259774   6.534   6.348  12.941  1.2838  0.3887  2.1398
12787TIP3   OH259775   6.183   3.096  13.899  0.3750 -0.3947 -0.4935
12787TIP3    H159776   6.157   3.171  13.846 -1.3764 -2.3580 -2.6153
12787TIP3    H259777   6.269   3.119  13.934  0.3022  2.1734 -1.8122
12788TIP3   OH259778   0.438   4.009   6.616  0.3693 -0.4298 -0.4091
12788TIP3    H159779   0.523   3.964   6.611  1.5709  1.1297  3.2415
12788TIP3    H259780   0.386   3.955   6.675 -0.5458 -0.3452 -1.1127
12789TIP3   OH259781   1.755   3.845   5.123  0.6241  0.3217  0.4962
12789TIP3    H159782   1.666   3.811   5.109  1.4622 -2.3722  1.0574
12789TIP3    H259783   1.812   3.776   5.089  2.5449  2.1203 -0.1533
12790TIP3   OH259784   0.587   3.937  14.112 -0.3376  0.4763  0.2895
12790TIP3    H159785   0.653   3.867  14.113 -2.2606 -1.4823  1.8996
12790TIP3    H259786   0.520   3.905  14.051  0.0733  2.3692 -1.2338
12791TIP3   OH259787   4.336   6.308  13.284 -0.5314  0.2551 -0.5033
12791TIP3    H159788   4.276   6.249  13.238 -2.0581  1.1338  0.3175
12791TIP3    H259789   4.280   6.374  13.324  0.9539  0.8580  0.6731
12792TIP3   OH259790   5.658   1.831  11.792  0.3620  0.0504  0.3187
12792TIP3    H159791   5.597   1.879  11.736  0.1193  0.4144  0.8883
12792TIP3    H259792   5.735   1.888  11.798  1.6214 -1.2314 -1.9798
12793TIP3   OH259793   3.975   4.678  16.896 -0.1954 -0.2197 -0.1829
12793TIP3    H159794   3.939   4.766  16.903  0.4745  0.1297 -0.9464
12793TIP3    H259795   4.070   4.691  16.893  0.0136 -1.0812  1.3667
12794TIP3   OH259796   1.735   5.238  11.605  0.2414  0.1484 -0.1163
12794TIP3    H159797   1.792   5.182  11.552 -0.5440 -1.6012  0.7996
12794TIP3    H259798   1.648   5.225  11.569 -0.1082 -0.0912  0.7892
12795TIP3   OH259799   2.939   3.171  13.084 -0.8931 -0.3099  0.4376
12795TIP3    H159800   2.955   3.237  13.016  2.2436 -0.6185  0.7219
12795TIP3    H259801   2.986   3.093  13.054 -3.3556 -2.0590  0.7829
12796TIP3   OH259802   4.531   4.383   4.424 -0.0151 -0.3830 -0.1233
12796TIP3    H159803   4.575   4.466   4.438 -1.2444  0.0861  1.1608
12796TIP3    H259804   4.600   4.325   4.391  1.6187  0.2783  1.9042
12797TIP3   OH259805   4.031   5.985  16.428 -0.1530  0.2812 -0.5367
12797TIP3    H159806   4.061   5.901  16.393  0.0321 -0.3040  0.9158
12797TIP3    H259807   3.938   5.972  16.445 -0.1815  0.4527 -0.5587
12798TIP3   OH259808   4.644   6.747   3.392 -0.0287  0.4247  0.0906
12798TIP3    H159809   4.630   6.818   3.330 -1.4347  0.8027  0.7757
12798TIP3    H259810   4.608   6.780   3.474 -0.9861 -1.1532  0.3641
12799TIP3   OH259811   2.365   2.928   2.022 -0.7276  0.2524 -0.2042
12799TIP3    H159812   2.360   3.011   1.974 -2.5401  1.9074  2.6112
12799TIP3    H259813   2.409   2.951   2.104  2.1889 -2.4563 -0.8065
12800TIP3   OH259814   6.304   4.505  13.464 -0.0218  0.4190 -0.4323
12800TIP3    H159815   6.316   4.599  13.477 -1.8988  0.4667  1.3686
12800TIP3    H259816   6.332   4.466  13.546 -1.9227 -0.3155 -0.0948
12801TIP3   OH259817   2.490   6.217  11.267 -0.0122 -0.7380 -0.4330
12801TIP3    H159818   2.480   6.240  11.359  1.4264  0.9116 -0.6415
12801TIP3    H259819   2.460   6.126  11.261  0.7171 -1.1782  1.8251
12802TIP3   OH259820   6.476   0.050  11.331 -0.0799 -0.2329  0.2281
12802TIP3    H159821   6.539  -0.023  11.327  0.4720  0.2941 -1.2172
12802TIP3    H259822   6.392   0.008  11.347  0.1060 -1.2894 -1.3392
12803TIP3   OH259823   2.477   2.843  11.533 -0.1405 -0.0577 -0.0435
12803TIP3    H159824   2.473   2.934  11.505 -2.3855 -0.0309  0.1960
12803TIP3    H259825   2.462   2.847  11.628 -1.7474 -0.7351 -0.2397
12804TIP3   OH259826   3.744   6.280   5.070  0.4306  0.4553 -0.1043
12804TIP3    H159827   3.686   6.250   5.000  0.9409  0.8775 -0.7253
12804TIP3    H259828   3.692   6.273   5.150 -0.6756  1.3835 -0.7209
12805TIP3   OH259829   5.235   1.674   1.295  0.3716  1.2269 -0.1747
12805TIP3    H159830   5.286   1.595   1.279 -1.4505  0.0402 -0.4321
12805TIP3    H259831   5.214   1.671   1.389  0.0082  1.2060 -0.2540
12806TIP3   OH259832   6.239   0.813   1.894  0.1687 -0.1256 -0.1567
12806TIP3    H159833   6.284   0.767   1.965  0.1370  0.1979  0.0728
12806TIP3    H259834   6.274   0.902   1.897 -0.4823  0.1303  0.0239
12807TIP3   OH259835   6.654   0.902   2.532  0.0110 -0.1069 -0.1082
12807TIP3    H159836   6.627   0.932   2.445  0.3349 -0.0500 -0.1935
12807TIP3    H259837   6.735   0.950   2.550  1.9850 -2.6689 -1.3312
12808TIP3   OH259838   0.569   5.998  12.235 -0.2467  0.0259  0.6421
12808TIP3    H159839   0.492   6.032  12.280 -1.1927 -0.2986 -0.6752
12808TIP3    H259840   0.612   6.075  12.198 -0.6361  0.0932  0.3245
12809TIP3   OH259841   5.727   0.102  12.278 -0.3749 -0.2784 -0.1504
12809TIP3    H159842   5.637   0.070  12.274 -0.0253 -1.2187 -2.6496
12809TIP3    H259843   5.739   0.129  12.369 -2.2263 -2.9511  1.0310
12810TIP3   OH259844   3.763   3.634  12.004 -0.3663 -0.1632 -0.3746
12810TIP3    H159845   3.717   3.691  11.942 -0.0580  2.4330  1.6024
12810TIP3    H259846   3.856   3.651  11.986 -0.2719  0.8636  0.9093
12811TIP3   OH259847   2.183   1.365  15.223 -0.3436  0.1458 -0.0163
12811TIP3    H159848   2.218   1.295  15.279 -0.8577 -1.8623 -2.0548
12811TIP3    H259849   2.236   1.360  15.143 -1.8464  0.5554 -1.0855
12812TIP3   OH259850   6.426   5.124   6.313  0.2114 -0.3733 -0.3110
12812TIP3    H159851   6.483   5.118   6.236  0.3174 -1.4270 -0.1648
12812TIP3    H259852   6.351   5.068   6.292 -0.2229  0.0917 -0.0294
12813TIP3   OH259853   0.958   5.602  11.025 -0.3365 -0.3485  0.1226
12813TIP3    H159854   0.881   5.584  10.970 -0.2641 -2.6471  0.6799
12813TIP3    H259855   0.921   5.624  11.111 -0.3776 -0.9025  0.2463
12814TIP3   OH259856   2.307   2.844   0.268 -0.1370  0.5451 -0.4123
12814TIP3    H159857   2.242   2.912   0.281  0.0816  0.5679  0.5863
12814TIP3    H259858   2.257   2.768   0.237 -0.3303  1.2496 -1.9486
12815TIP3   OH259859   6.433   2.097   5.468 -0.0220 -0.0097  0.1709
12815TIP3    H159860   6.490   2.137   5.533  0.8208  2.1640 -1.7772
12815TIP3    H259861   6.349   2.087   5.512  0.7406  0.5190  1.8335
12816TIP3   OH259862   0.032   0.457  11.646 -0.5801 -0.2021  0.4349
12816TIP3    H159863   0.065   0.445  11.735 -0.3886 -1.9747  0.1609
12816TIP3    H259864   0.095   0.411  11.591 -1.3235 -0.1184 -0.4987
12817TIP3   OH259865   3.270   3.851  14.702 -0.1699  0.0269 -0.5162
12817TIP3    H159866   3.269   3.876  14.794 -0.3317  0.8267 -0.7244
12817TIP3    H259867   3.239   3.929  14.656  1.8776  0.3479 -1.4276
12818TIP3   OH259868   2.378   4.980   5.372  0.2893 -0.2834  0.2862
12818TIP3    H159869   2.386   5.036   5.295  1.8305 -1.2027 -0.2634
12818TIP3    H259870   2.344   4.897   5.338  1.2172 -0.7764  0.5500
12819TIP3   OH259871   3.201   6.536   3.135  0.3298 -0.5513  0.1200
12819TIP3    H159872   3.282   6.495   3.104  0.8379  0.5032  0.0077
12819TIP3    H259873   3.214   6.546   3.229  1.1101  1.2419 -0.1413
12820TIP3   OH259874   5.841   1.984  11.936  0.1742 -0.0472 -0.2848
12820TIP3    H159875   5.884   1.940  12.009  1.8406  0.4284 -0.9376
12820TIP3    H259876   5.892   2.064  11.923  0.0509 -0.2322 -2.1208
12821TIP3   OH259877   3.020   4.186   3.554  0.2761 -0.1865 -0.4742
12821TIP3    H159878   3.115   4.191   3.545  0.3771 -0.0343  0.5194
12821TIP3    H259879   3.005   4.110   3.609 -0.0175  1.0479  1.2427
12822TIP3   OH259880   6.105   4.642  12.569  0.5720  0.8757 -0.0184
12822TIP3    H159881   6.060   4.727  12.566  0.2226  0.7069  0.2959
12822TIP3    H259882   6.145   4.640  12.656 -0.1786  0.3475  0.3314
12823TIP3   OH259883   6.156   3.420  15.010  0.0279 -0.5874  0.6895
12823TIP3    H159884   6.180   3.489  14.949  0.6949  0.1734  1.7729
12823TIP3    H259885   6.113   3.465  15.083 -0.3764 -1.4221  0.9883
12824TIP3   OH259886   4.550   4.971   0.508  0.3953  0.3259 -0.5650
12824TIP3    H159887   4.477   5.027   0.480  0.5287  1.2065  0.7391
12824TIP3    H259888   4.545   4.972   0.604 -0.9621 -3.7073 -0.4052
12825TIP3   OH259889   4.461   3.260  13.647  0.0624  0.1425  0.3514
12825TIP3    H159890   4.515   3.293  13.574  1.6713 -0.3750  1.2601
12825TIP3    H259891   4.409   3.336  13.673 -2.0072 -0.1086 -2.4923
12826TIP3   OH259892   3.308   4.158  15.299 -0.0549  0.3784  0.0494
12826TIP3    H159893   3.266   4.218  15.361 -0.0480  0.0729  0.3535
12826TIP3    H259894   3.398   4.189  15.292  0.6372 -0.9716  2.0344
12827TIP3   OH259895   5.701   0.866  16.027 -0.8067 -0.6988 -1.0945
12827TIP3    H159896   5.665   0.804  15.964  0.9842 -0.4515 -2.4189
12827TIP3    H259897   5.637   0.937  16.030 -1.9905 -1.7210 -0.9086
12828TIP3   OH259898   0.254   4.203  12.751  0.5908 -0.4907  0.1048
12828TIP3    H159899   0.218   4.291  12.763 -0.7045 -0.8473 -0.9543
12828TIP3    H259900   0.283   4.177  12.839  0.0205  0.5636  0.6254
12829TIP3   OH259901   5.090   1.642  14.266 -0.7011  0.0725 -0.6321
12829TIP3    H159902   5.011   1.693  14.281 -0.1746  1.0742 -1.1563
12829TIP3    H259903   5.117   1.665  14.177  0.5407  0.2561 -0.2277
12830TIP3   OH259904   6.447   0.577   3.805 -0.4236  0.0470 -0.4007
12830TIP3    H159905   6.530   0.537   3.781  0.2440  1.5437 -0.6712
12830TIP3    H259906   6.432   0.548   3.895 -0.2649 -1.2470 -0.7615
12831TIP3   OH259907   1.994   0.966  10.607 -0.4298  0.7449 -0.3712
12831TIP3    H159908   1.992   1.058  10.634 -3.0910  0.5474  0.3291
12831TIP3    H259909   1.997   0.968  10.512  0.4815  1.5166 -0.3425
12832TIP3   OH259910   3.244   3.777  16.088 -0.1244  0.0774  0.4730
12832TIP3    H159911   3.177   3.755  16.023  0.5490  0.9321 -0.5447
12832TIP3    H259912   3.322   3.798  16.036  1.0248 -1.1350  1.6370
12833TIP3   OH259913   4.536   1.450   4.848  0.0881  0.5753 -0.4526
12833TIP3    H159914   4.552   1.519   4.784 -0.4749  0.5657 -0.6104
12833TIP3    H259915   4.558   1.489   4.933  1.1946  0.4727 -0.6742
12834TIP3   OH259916   1.617   3.920  13.057  0.0953 -0.0094 -0.1739
12834TIP3    H159917   1.696   3.868  13.041  1.1442  1.8538 -1.4230
12834TIP3    H259918   1.626   3.949  13.148  1.5086  1.1591 -0.6442
12835TIP3   OH259919   2.045   4.155  11.429  0.2252  0.7539  0.7035
12835TIP3    H159920   2.087   4.138  11.345 -0.0160  1.0322  0.5245
12835TIP3    H259921   2.098   4.224  11.469 -0.8550  2.1142 -0.1367
12836TIP3   OH259922   1.368   5.346  16.531 -0.0850  0.2487 -0.4956
12836TIP3    H159923   1.436   5.318  16.592 -0.0455 -0.5707 -0.9027
12836TIP3    H259924   1.291   5.295  16.555 -0.3657  0.6777 -0.4735
12837TIP3   OH259925   4.464   0.499  15.463  0.0807 -0.1391 -0.1897
12837TIP3    H159926   4.475   0.533  15.374 -1.6046  0.0173 -0.3857
12837TIP3    H259927   4.452   0.577  15.517  1.6429 -0.2054  0.2982
12838TIP3   OH259928   0.410   0.448   3.833  0.4697  0.7507  0.0115
12838TIP3    H159929   0.331   0.448   3.886  0.4431 -0.4335  0.0103
12838TIP3    H259930   0.479   0.478   3.892  0.3256  0.0748  0.5328
12839TIP3   OH259931   6.290   4.201   0.081 -0.1517  0.3687 -0.2758
12839TIP3    H159932   6.316   4.110   0.064 -0.8402  0.2859 -0.9064
12839TIP3    H259933   6.372   4.250   0.071  0.4928 -0.3155  1.3179
12840TIP3   OH259934   6.077   3.719  12.540  0.3426  0.4256  0.0449
12840TIP3    H159935   6.034   3.796  12.577  0.0630  0.0638  0.4784
12840TIP3    H259936   6.118   3.676  12.615 -0.1631 -0.2737 -0.0701
12841TIP3   OH259937   1.997   0.618   1.674  0.4149  0.8689  0.1687
12841TIP3    H159938   1.996   0.713   1.661  1.6453  0.7172 -1.3042
12841TIP3    H259939   2.022   0.582   1.589  0.6215 -0.7468  0.8691
12842TIP3   OH259940   2.938   0.396  14.621 -0.2693  0.3940 -0.1958
12842TIP3    H159941   2.985   0.314  14.636 -2.1157 -0.5430  0.7603
12842TIP3    H259942   3.006   0.458  14.595  1.2604 -1.2671 -0.3507
12843TIP3   OH259943   4.823   6.508  11.862 -0.0072 -0.2483  0.3435
12843TIP3    H159944   4.817   6.592  11.816 -0.6291 -0.5139 -0.0899
12843TIP3    H259945   4.819   6.530  11.955  1.4732  0.3183  0.2968
12844TIP3   OH259946   2.364   1.764  13.058  1.0822  0.6150  0.2580
12844TIP3    H159947   2.398   1.829  12.997 -0.2370  1.0658 -0.0110
12844TIP3    H259948   2.293   1.721  13.010  1.1798 -0.2386  0.8530
12845TIP3   OH259949   4.240   0.075  16.612 -0.2139 -0.3589  0.4745
12845TIP3    H159950   4.257   0.125  16.533  0.5546 -0.7390  0.3894
12845TIP3    H259951   4.156   0.030  16.595 -0.4801  0.2262  0.2241
12846TIP3   OH259952   2.371   2.124  13.783  0.4689  0.3992  0.6052
12846TIP3    H159953   2.378   2.127  13.688  0.3817 -2.2561  0.4558
12846TIP3    H259954   2.280   2.148  13.801  0.3370  0.3649 -0.0077
12847TIP3   OH259955   2.140   2.565   4.488 -0.0605 -0.9481  0.5899
12847TIP3    H159956   2.052   2.543   4.458 -0.4393  1.6807 -0.6191
12847TIP3    H259957   2.197   2.536   4.416 -0.2729 -0.2774  0.1368
12848TIP3   OH259958   2.226   5.278  11.328  0.1393 -0.4239 -0.3629
12848TIP3    H159959   2.302   5.236  11.288  1.2103  0.9560  0.1379
12848TIP3    H259960   2.234   5.258  11.422  1.4383  1.9136  0.1054
12849TIP3   OH259961   4.541   4.468  16.946  0.0302 -0.4624 -0.6270
12849TIP3    H159962   4.525   4.487  16.853 -0.2039 -2.2009 -0.9814
12849TIP3    H259963   4.509   4.379  16.958  2.1264 -1.1135  0.6027
12850TIP3   OH259964   1.317   2.067  12.236  0.1464  0.1334  0.6799
12850TIP3    H159965   1.222   2.053  12.230  0.2204  0.0243 -0.5698
12850TIP3    H259966   1.328   2.160  12.216  0.3849 -0.1355 -0.5556
12851TIP3   OH259967   0.832   0.671  16.567 -0.1334 -0.5704 -0.1598
12851TIP3    H159968   0.817   0.726  16.644 -0.0261 -0.5681 -0.1408
12851TIP3    H259969   0.800   0.584  16.593  1.4929 -1.0021  0.5129
12852TIP3   OH259970   6.111   5.295   5.310  0.0803  0.0229  0.2250
12852TIP3    H159971   6.182   5.334   5.361  0.1457 -1.5430  1.3916
12852TIP3    H259972   6.147   5.212   5.278 -1.5298 -1.3731  1.8067
12853TIP3   OH259973   0.357   3.927   1.234  0.7421  0.5752  0.1359
12853TIP3    H159974   0.268   3.930   1.271  0.6588 -1.0579  0.1355
12853TIP3    H259975   0.412   3.965   1.302  0.1681  0.6785  0.5564
12854TIP3   OH259976   1.144   0.190  12.220 -0.2438  0.5482  0.1720
12854TIP3    H159977   1.209   0.127  12.252 -0.5474  0.7503  1.2194
12854TIP3    H259978   1.187   0.275  12.230 -1.4789  0.9624  3.2634
12855TIP3   OH259979   1.990   3.916  16.349 -0.2001  0.4769 -0.5052
12855TIP3    H159980   2.075   3.902  16.392 -0.9467  1.4908  1.4376
12855TIP3    H259981   2.011   3.965  16.270  0.9621  1.6189  0.4652
12856TIP3   OH259982   1.562   3.753   1.323 -0.3475 -0.4116 -0.7894
12856TIP3    H159983   1.539   3.667   1.286 -1.2548  0.4170 -2.2396
12856TIP3    H259984   1.544   3.815   1.252 -0.6527  1.0976  0.5604
12857TIP3   OH259985   3.972   3.679  12.346  0.0539 -0.2427  0.1885
12857TIP3    H159986   4.065   3.681  12.325  0.3805 -0.5632  1.4879
12857TIP3    H259987   3.942   3.769  12.332  0.9971  0.3123  1.4833
12858TIP3   OH259988   5.474   3.062   5.483  0.0558  0.9039 -0.1334
12858TIP3    H159989   5.442   3.141   5.526  1.3872  2.3574 -1.6399
12858TIP3    H259990   5.395   3.016   5.454 -0.8477  3.7042 -2.6263
12859TIP3   OH259991   0.667   3.780  15.661 -0.2137 -0.3008  0.6441
12859TIP3    H159992   0.576   3.777  15.689  0.3112  0.6560  2.6887
12859TIP3    H259993   0.704   3.696  15.689 -0.0276  0.0902  1.6034
12860TIP3   OH259994   3.019   4.604  15.715 -0.2427  0.0993 -0.9693
12860TIP3    H159995   3.058   4.567  15.794  0.3446  0.4545 -1.0914
12860TIP3    H259996   3.017   4.699  15.731 -2.1902  0.0218 -0.4478
12861TIP3   OH259997   4.491   3.241   4.060  0.2087  0.3293  0.4540
12861TIP3    H159998   4.465   3.184   3.988 -3.3123  0.8095  1.1864
12861TIP3    H259999   4.502   3.328   4.020 -0.6876  0.3767  0.2948
12862TIP3   OH260000   3.360   1.081   4.734 -0.1952 -0.5030 -0.0921
12862TIP3    H160001   3.449   1.090   4.770  0.0708 -1.2004 -0.5434
12862TIP3    H260002   3.316   1.163   4.757  0.2782 -0.5201  0.9310
12863TIP3   OH260003   0.028   2.945   5.875 -0.3935  0.0327 -0.2729
12863TIP3    H160004   0.008   3.038   5.885 -1.0902 -0.0934 -0.4450
12863TIP3    H260005  -0.026   2.902   5.941  2.6051 -0.0008  2.4119
12864TIP3   OH260006   0.046   4.504   4.707 -0.1640  0.0806 -0.1394
12864TIP3    H160007   0.122   4.533   4.656 -0.8231  2.9745  0.3488
12864TIP3    H260008   0.075   4.512   4.798 -0.9495  1.0389  0.0448
12865TIP3   OH260009   6.372   2.892  16.346  0.3542 -0.1668  0.2388
12865TIP3    H160010   6.373   2.815  16.401 -0.5670 -1.2409 -1.1652
12865TIP3    H260011   6.354   2.859  16.258  2.0371  1.4313 -0.8006
12866TIP3   OH260012   3.502   3.868  14.502  0.0928 -0.1286 -1.0594
12866TIP3    H160013   3.536   3.778  14.504 -0.3566 -0.2903  0.3782
12866TIP3    H260014   3.425   3.865  14.558  0.6654  1.3945 -0.1556
12867TIP3   OH260015   2.679   1.107   0.892  0.1727  0.2630  0.1051
12867TIP3    H160016   2.736   1.052   0.838  0.8625  1.1692 -0.1204
12867TIP3    H260017   2.718   1.194   0.886 -1.4308  0.9955 -0.3513
12868TIP3   OH260018   0.797   1.842  11.106 -0.2441  0.0158  0.2685
12868TIP3    H160019   0.742   1.861  11.182  0.5733  1.3193  0.5763
12868TIP3    H260020   0.858   1.916  11.101  0.8843 -0.9209 -0.6003
12869TIP3   OH260021   4.119   4.630   5.106  0.4091 -0.6103 -0.1899
12869TIP3    H160022   4.154   4.718   5.119  1.5493 -1.4194  3.3140
12869TIP3    H260023   4.048   4.641   5.043 -1.3720  3.3642  2.1658
12870TIP3   OH260024   3.667   4.975  14.815 -0.2047 -0.2338 -0.5779
12870TIP3    H160025   3.654   5.060  14.856  1.7416  0.0715 -0.4950
12870TIP3    H260026   3.753   4.947  14.846 -0.2081 -1.5888 -1.7179
12871TIP3   OH260027   1.637   3.880  16.021 -0.2877 -0.1316 -0.3941
12871TIP3    H160028   1.660   3.923  16.104 -0.4692 -0.1185 -0.3492
12871TIP3    H260029   1.558   3.830  16.042 -2.1368  2.2417 -1.2828
12872TIP3   OH260030   1.216   4.109  13.426 -0.0884 -0.1342  0.4275
12872TIP3    H160031   1.287   4.047  13.412 -1.7279 -2.0024 -0.2117
12872TIP3    H260032   1.156   4.092  13.352 -1.8709  0.3083  1.7150
12873TIP3   OH260033   0.950   0.714  10.583 -0.2933 -0.1837 -0.0588
12873TIP3    H160034   0.954   0.622  10.608  0.4491 -0.1841 -0.1484
12873TIP3    H260035   0.976   0.762  10.662 -2.7745  0.0925  0.6806
12874TIP3   OH260036   2.640   5.299   5.913  0.1226 -0.0881  0.0657
12874TIP3    H160037   2.678   5.379   5.876  2.4241 -0.5616  1.2340
12874TIP3    H260038   2.651   5.309   6.008  1.3868 -2.1806  0.2033
12875TIP3   OH260039   4.483   4.823   1.539 -0.2736  0.1591 -0.7300
12875TIP3    H160040   4.502   4.775   1.620 -0.3775  0.3843 -0.5691
12875TIP3    H260041   4.394   4.856   1.552 -0.7726 -0.8490 -1.4545
12876TIP3   OH260042   3.480   4.407   0.992  0.5417  0.0263  0.1633
12876TIP3    H160043   3.393   4.374   1.015  0.7075 -0.3992  0.1953
12876TIP3    H260044   3.498   4.473   1.058 -0.0635  0.6422 -0.2772
12877TIP3   OH260045   5.518   1.417   2.072 -0.1836 -0.0922 -0.1109
12877TIP3    H160046   5.464   1.392   1.997 -1.0772  0.0014  0.5002
12877TIP3    H260047   5.514   1.343   2.131 -2.9833  1.3861  1.7859
12878TIP3   OH260048   0.341   3.475  17.086  0.4875 -0.0514 -0.1185
12878TIP3    H160049   0.398   3.406  17.119  0.3133 -0.0101  0.2668
12878TIP3    H260050   0.278   3.429  17.030  0.3431 -0.2092  0.1743
12879TIP3   OH260051   2.104   3.747   0.165  0.0019 -0.5080 -0.2880
12879TIP3    H160052   2.149   3.789   0.238  1.3042 -0.0621 -1.3251
12879TIP3    H260053   2.071   3.665   0.202 -1.0466  0.5651  1.2967
12880TIP3   OH260054   2.943   6.644  11.296 -0.1319 -0.0752  0.7130
12880TIP3    H160055   3.035   6.647  11.323  0.3067 -1.0271 -0.5745
12880TIP3    H260056   2.945   6.603  11.210 -1.9031 -1.5600  1.3131
12881TIP3   OH260057   1.182   0.075   5.570 -0.4376 -0.6503  0.1267
12881TIP3    H160058   1.230   0.018   5.630  1.5002  1.0963  0.3250
12881TIP3    H260059   1.186   0.030   5.485  0.4544 -1.1476  0.4258
12882TIP3   OH260060   3.020   3.184   3.025 -0.2624  0.1643  0.2769
12882TIP3    H160061   3.038   3.226   3.109  0.1309 -1.5637  1.1046
12882TIP3    H260062   3.078   3.109   3.023 -0.0650  0.3245 -1.7020
12883TIP3   OH260063   1.204   4.944  12.634 -0.1522  0.1196 -0.8533
12883TIP3    H160064   1.127   4.978  12.678 -1.1424 -1.1673 -1.5198
12883TIP3    H260065   1.241   5.020  12.588  0.2537  1.2207  1.1764
12884TIP3   OH260066   6.397   4.171   1.641 -0.0657 -0.1848 -0.1842
12884TIP3    H160067   6.445   4.236   1.693  0.8677 -1.4714  0.6332
12884TIP3    H260068   6.376   4.101   1.704  0.3877 -1.4230 -1.3511
12885TIP3   OH260069   2.010   6.359   4.190  0.0464  0.0785 -0.1138
12885TIP3    H160070   2.075   6.395   4.251 -0.1744 -0.6744  0.5960
12885TIP3    H260071   2.016   6.265   4.202 -2.1476  0.0128  1.0401
12886TIP3   OH260072   1.030   5.701   5.391 -0.0050 -0.3191 -0.1433
12886TIP3    H160073   1.103   5.656   5.432  0.4299  0.2632 -0.2672
12886TIP3    H260074   1.064   5.732   5.308 -0.5892 -0.6182 -0.5020
12887TIP3   OH260075   0.303   1.937   5.375 -0.0311  0.4997 -0.3411
12887TIP3    H160076   0.355   2.016   5.357  0.3122  0.1508 -0.9101
12887TIP3    H260077   0.212   1.965   5.365  0.0865  0.8377 -0.4916
12888TIP3   OH260078   6.646   2.335  14.776  0.1935 -0.0437 -0.2185
12888TIP3    H160079   6.588   2.258  14.780 -0.7355  0.6255 -0.5298
12888TIP3    H260080   6.600   2.402  14.827  0.9360  0.3535 -0.0648
12889TIP3   OH260081   1.477   0.608   4.419  0.4752 -0.6050  0.0852
12889TIP3    H160082   1.507   0.696   4.439 -0.0561 -0.6891  1.3362
12889TIP3    H260083   1.552   0.567   4.375  0.9922  0.2275  0.1657
12890TIP3   OH260084   0.674   5.338  13.134 -0.3752  0.3032  0.7667
12890TIP3    H160085   0.645   5.425  13.164 -0.6054  1.0991 -1.5621
12890TIP3    H260086   0.593   5.293  13.109 -0.1089  0.1406  0.1855
12891TIP3   OH260087   0.792   6.710   4.772 -1.1255 -0.3120  0.0175
12891TIP3    H160088   0.783   6.624   4.814  1.0667 -1.3854 -1.4897
12891TIP3    H260089   0.829   6.766   4.841 -1.3158 -0.9256  0.6359
12892TIP3   OH260090   4.488   3.410  12.253  0.8897 -0.1641  0.2740
12892TIP3    H160091   4.581   3.421  12.235  0.1930  1.7275 -3.0145
12892TIP3    H260092   4.457   3.498  12.275 -0.3674 -0.4426 -0.2756
12893TIP3   OH260093   3.481   4.309  17.170  0.2746  0.1209 -0.0010
12893TIP3    H160094   3.509   4.259  17.094  0.7614 -0.2906  0.4435
12893TIP3    H260095   3.391   4.336  17.150  0.2256 -0.4125 -0.4981
12894TIP3   OH260096   4.724   3.591  15.098 -0.3475  0.5627  0.6033
12894TIP3    H160097   4.732   3.656  15.168 -0.4727  0.5084  0.6682
12894TIP3    H260098   4.747   3.508  15.140  1.8946  0.8325  0.0204
12895TIP3   OH260099   5.083   5.568  14.137  0.4586 -0.6039  0.2195
12895TIP3    H160100   5.079   5.560  14.232  0.4815  0.7194  0.3396
12895TIP3    H260101   4.994   5.551  14.108  0.5187 -1.3443  0.4349
12896TIP3   OH260102   6.682   4.200   6.152 -0.4306 -0.0257 -0.2828
12896TIP3    H160103   6.730   4.276   6.184 -2.1485  1.3966 -0.9462
12896TIP3    H260104   6.597   4.204   6.197 -0.4606 -1.7428 -0.1053
12897TIP3   OH260105   0.616   0.103  13.375  0.3615  0.1191  0.0390
12897TIP3    H160106   0.646   0.092  13.465  3.0459  0.2001 -0.7578
12897TIP3    H260107   0.580   0.018  13.351 -0.3864  0.0988  1.1482
12898TIP3   OH260108   6.438   6.711   0.960  0.2179  0.4916 -0.4099
12898TIP3    H160109   6.399   6.682   1.042 -0.0762 -0.5228 -0.8898
12898TIP3    H260110   6.364   6.742   0.907  0.4582  1.5798 -0.1363
12899TIP3   OH260111   3.953   5.019   4.386  0.2951  0.4789 -0.1097
12899TIP3    H160112   3.911   5.099   4.417 -0.8867 -0.5641  1.1241
12899TIP3    H260113   4.022   5.001   4.450 -1.5052 -1.1417  1.5136
12900TIP3   OH260114   6.344   6.192  14.778  0.0843  0.2364  0.1102
12900TIP3    H160115   6.306   6.140  14.707 -0.6807  1.4215 -0.3824
12900TIP3    H260116   6.283   6.264  14.791  1.4979  1.4875  0.1821
12901TIP3   OH260117   3.472   2.022  14.332 -0.0035 -0.5554 -0.3279
12901TIP3    H160118   3.520   2.102  14.351  0.4872 -1.1886  1.2972
12901TIP3    H260119   3.416   2.044  14.258 -1.1449  1.8207  1.1344
12902TIP3   OH260120   0.897   4.274  11.386  0.1059  0.1425 -0.3738
12902TIP3    H160121   0.873   4.360  11.418 -1.9131 -0.2685 -0.6708
12902TIP3    H260122   0.932   4.290  11.298  3.1886  0.9793  0.8673
12903TIP3   OH260123   2.836   6.719   5.439 -0.3995 -0.0659 -0.2028
12903TIP3    H160124   2.759   6.666   5.457 -0.1482 -0.3986 -0.1061
12903TIP3    H260125   2.906   6.656   5.425  0.2978  0.2519  1.6326
12904TIP3   OH260126   2.921   5.291   0.731 -0.5024  0.5030 -0.0111
12904TIP3    H160127   2.965   5.212   0.762 -2.9835 -0.4100  1.4928
12904TIP3    H260128   2.882   5.266   0.648  0.1936  0.7148 -0.4048
12905TIP3   OH260129   1.139   5.033  16.003  0.7049 -0.2620  0.0889
12905TIP3    H160130   1.067   5.038  16.066  1.7838  1.4034  1.2793
12905TIP3    H260131   1.098   5.049  15.918 -0.5371 -0.8795  0.5565
12906TIP3   OH260132   2.268   4.160  10.588 -0.2575 -0.1679  0.3556
12906TIP3    H160133   2.176   4.171  10.612  0.1988  0.7116  1.8432
12906TIP3    H260134   2.302   4.096  10.650 -0.0648 -1.1603 -0.7555
12907TIP3   OH260135   1.553   0.165  14.226 -0.7170  0.2341  0.6953
12907TIP3    H160136   1.489   0.114  14.275 -1.0316 -1.6916 -1.5488
12907TIP3    H260137   1.538   0.142  14.134  2.2210  0.8112 -0.0554
12908TIP3   OH260138   0.754   1.346   3.970  0.7213 -0.2098  0.5352
12908TIP3    H160139   0.687   1.295   4.015  0.9271  0.1207  1.2304
12908TIP3    H260140   0.790   1.285   3.904 -0.9646 -0.0516 -0.5885
12909TIP3   OH260141   2.429   3.464   0.666  0.1533  0.6797 -0.2102
12909TIP3    H160142   2.453   3.542   0.716 -0.2332  0.5843  0.1297
12909TIP3    H260143   2.353   3.491   0.615 -0.1900  0.4281  0.1648
12910TIP3   OH260144   5.402   0.800  12.210 -0.3650  0.1553  0.1820
12910TIP3    H160145   5.452   0.846  12.278 -1.4030 -1.0547  1.8490
12910TIP3    H260146   5.311   0.826  12.226 -0.4305  2.1388 -2.6518
12911TIP3   OH260147   1.980   2.039   2.034  0.4285  0.4267  0.7800
12911TIP3    H160148   2.069   2.006   2.017  0.1413 -0.9737  1.7685
12911TIP3    H260149   1.976   2.122   1.987  2.4658  0.8146  1.1603
12912TIP3   OH260150   5.955   1.489   4.920  0.8914 -0.2935 -0.1946
12912TIP3    H160151   5.911   1.472   5.003  0.8254  0.1690 -0.1334
12912TIP3    H260152   5.989   1.578   4.928 -0.3987  0.3198 -1.2155
12913TIP3   OH260153   2.396   5.078   4.365 -0.1746 -0.5075  0.1164
12913TIP3    H160154   2.456   5.152   4.376  0.1511 -0.6168 -0.7999
12913TIP3    H260155   2.409   5.025   4.444 -1.6355  1.2286  1.6081
12914TIP3   OH260156   3.506   1.787  16.617 -0.0592  0.1032 -0.0975
12914TIP3    H160157   3.481   1.739  16.538 -0.6711 -2.1055  1.3493
12914TIP3    H260158   3.489   1.726  16.689  1.0362  1.8147  1.7187
12915TIP3   OH260159   1.898   2.902   1.964 -0.1224 -0.2340  0.2984
12915TIP3    H160160   1.888   2.864   1.876  2.9747 -1.8426  0.5173
12915TIP3    H260161   1.952   2.980   1.950  1.6863 -1.3360  0.8635
12916TIP3   OH260162   3.538   1.546   4.220 -0.0080 -0.0768 -0.0076
12916TIP3    H160163   3.498   1.488   4.285  1.0957 -0.2221  0.5692
12916TIP3    H260164   3.553   1.491   4.144  0.6834 -0.4593  0.4003
12917TIP3   OH260165   6.079   4.064  13.246 -0.7341  0.1149  0.2630
12917TIP3    H160166   6.087   3.969  13.255 -1.2236 -0.2529 -2.3973
12917TIP3    H260167   5.986   4.082  13.260 -1.2604 -0.2933 -2.2320
12918TIP3   OH260168   0.105   4.293   5.617 -0.1611 -0.0935  0.5218
12918TIP3    H160169   0.104   4.387   5.601 -0.7918 -0.2764 -0.5726
12918TIP3    H260170   0.014   4.266   5.605  0.2279 -1.0373 -0.3557
12919TIP3   OH260171   0.319   0.800  16.449  0.7240 -0.5858 -0.7430
12919TIP3    H160172   0.388   0.759  16.501  0.8847 -1.2265 -1.4287
12919TIP3    H260173   0.319   0.892  16.475  0.6868 -0.9213  0.4868
12920TIP3   OH260174   4.064   1.776  11.399 -0.0947  0.2425  0.1644
12920TIP3    H160175   4.041   1.851  11.453  2.4041  1.4516 -0.3386
12920TIP3    H260176   3.979   1.737  11.374 -1.4086  2.2843  1.2373
12921TIP3   OH260177   4.369   2.406  11.677  0.1362  0.0835 -0.0378
12921TIP3    H160178   4.349   2.312  11.682 -2.1747  0.5613  0.7116
12921TIP3    H260179   4.302   2.442  11.619  1.3681  1.2016 -0.8069
12922TIP3   OH260180   4.956   5.299  10.339  0.1658  0.6240  0.6526
12922TIP3    H160181   4.897   5.239  10.293 -0.4637  0.6643  1.3857
12922TIP3    H260182   5.043   5.264  10.323  0.0232  1.0061 -1.0916
12923TIP3   OH260183   1.979   6.685  11.352 -0.4304  0.5018  0.4967
12923TIP3    H160184   2.023   6.688  11.267 -1.4213 -0.7507 -0.1028
12923TIP3    H260185   2.046   6.711  11.415  0.7187  0.1361 -0.5372
12924TIP3   OH260186   0.931   1.901  14.766  0.4548 -0.5623 -0.1304
12924TIP3    H160187   0.995   1.966  14.737  0.2383 -0.0056  0.6154
12924TIP3    H260188   0.981   1.821  14.777  0.6823 -0.6020 -1.3027
12925TIP3   OH260189   5.095   0.949  12.952  0.0596  0.2289  0.4806
12925TIP3    H160190   5.032   0.932  13.022 -1.1013 -0.9456 -0.7779
12925TIP3    H260191   5.065   1.032  12.913  0.1114  0.3698  0.7392
12926TIP3   OH260192   3.765   5.396  16.702 -0.0538 -0.2738  0.4720
12926TIP3    H160193   3.708   5.400  16.625  0.3244 -0.1494  0.1952
12926TIP3    H260194   3.849   5.429  16.671 -0.5913  2.4494  1.6066
12927TIP3   OH260195   3.338   6.454  13.814  0.3295  0.0623 -0.6344
12927TIP3    H160196   3.255   6.501  13.818  1.0106  1.2278  0.4836
12927TIP3    H260197   3.362   6.439  13.906 -0.3061 -3.3770 -0.8919
12928TIP3   OH260198   0.736   1.124  11.435 -0.5953 -0.4730 -0.0616
12928TIP3    H160199   0.704   1.110  11.524 -0.4965  0.3400  0.1074
12928TIP3    H260200   0.738   1.219  11.425 -1.8518 -0.5561 -1.3886
12929TIP3   OH260201   1.820   6.288  12.069  0.4897  0.0928 -0.5574
12929TIP3    H160202   1.873   6.236  12.128 -0.1854 -0.3545 -0.3376
12929TIP3    H260203   1.772   6.348  12.126  0.7926  0.5409 -0.7609
12930TIP3   OH260204   2.799   3.150   2.865 -0.2432 -0.0265  0.3593
12930TIP3    H160205   2.747   3.228   2.884 -1.7670 -0.6597 -0.9248
12930TIP3    H260206   2.871   3.153   2.928 -1.2395  1.4653  1.5061
12931TIP3   OH260207   0.728   5.273  13.727 -0.2456 -0.0894 -0.4258
12931TIP3    H160208   0.681   5.349  13.760 -0.4495  0.0243 -0.9611
12931TIP3    H260209   0.702   5.267  13.634  1.4140  0.4381 -0.9508
12932TIP3   OH260210   5.852   1.737   0.488  0.1311 -0.0245  0.0337
12932TIP3    H160211   5.786   1.691   0.541 -0.3109 -1.6371 -1.7717
12932TIP3    H260212   5.800   1.790   0.428  0.4584 -0.9729 -1.1172
12933TIP3   OH260213   6.472   1.112   5.178  0.1389 -0.2583  0.4089
12933TIP3    H160214   6.459   1.091   5.271 -1.6092 -1.2801 -0.0122
12933TIP3    H260215   6.478   1.208   5.176 -1.3653 -0.0947  1.4478
12934TIP3   OH260216   6.412   1.524  14.723 -0.1230  0.5431  0.0562
12934TIP3    H160217   6.505   1.545  14.721  0.5106 -1.8105  1.3270
12934TIP3    H260218   6.386   1.523  14.631  0.9554  1.7168 -0.2919
12935TIP3   OH260219   4.845   6.300  17.143 -0.0249  1.0645 -0.4821
12935TIP3    H160220   4.820   6.208  17.136  3.1840  0.0585 -0.2487
12935TIP3    H260221   4.762   6.347  17.152 -1.8473 -1.6210 -2.0889
12936TIP3   OH260222   4.437   6.593  12.258 -0.2817 -0.0705 -0.3123
12936TIP3    H160223   4.359   6.558  12.214 -0.3908 -0.0852 -0.1066
12936TIP3    H260224   4.423   6.688  12.259 -0.1666 -0.0500 -0.5218
12937TIP3   OH260225   6.097   3.367  14.134 -0.3287  0.0641 -0.5298
12937TIP3    H160226   6.148   3.448  14.130 -1.4097  0.7343 -1.9482
12937TIP3    H260227   6.051   3.372  14.218 -1.0754  1.4004 -0.9870
12938TIP3   OH260228   6.563   3.875  12.721  0.1966  0.0240 -0.4867
12938TIP3    H160229   6.587   3.787  12.693  0.1912 -0.7005  1.5676
12938TIP3    H260230   6.537   3.920  12.641 -1.4854 -2.3858 -1.4133
12939TIP3   OH260231   5.212   6.003   6.255 -0.1773 -0.4736 -0.0657
12939TIP3    H160232   5.296   5.961   6.235  1.1914  2.3539 -0.9140
12939TIP3    H260233   5.192   5.977   6.344  1.3506 -1.6237 -0.0159
12940TIP3   OH260234   5.424   4.128  16.365 -0.3425  0.0044  0.3219
12940TIP3    H160235   5.491   4.194  16.383  0.7334 -0.4595 -1.6231
12940TIP3    H260236   5.470   4.044  16.373 -0.1822 -0.2861 -2.4988
12941TIP3   OH260237   3.493   5.801   3.111 -0.1184  0.0807 -0.5035
12941TIP3    H160238   3.518   5.755   3.190  0.1874 -0.5636 -0.9700
12941TIP3    H260239   3.575   5.820   3.066 -0.1886  1.5874 -0.0524
12942TIP3   OH260240   5.718   4.049   5.662 -0.0887  0.4632  0.6322
12942TIP3    H160241   5.761   4.043   5.748 -0.6842  0.6919  0.9580
12942TIP3    H260242   5.699   4.142   5.652  2.5504  0.9098 -1.0699
12943TIP3   OH260243   5.935   0.873  10.936 -0.0895 -0.5203 -0.2111
12943TIP3    H160244   5.893   0.811  10.877 -0.1479  0.0111 -0.7427
12943TIP3    H260245   6.020   0.890  10.896 -0.8482  1.2719 -1.1986
12944TIP3   OH260246   6.669   4.373  14.304 -0.5375  0.1084 -0.0874
12944TIP3    H160247   6.599   4.376  14.369 -0.9729 -0.1247 -0.5319
12944TIP3    H260248   6.635   4.315  14.235 -0.1889  0.5455 -0.6365
12945TIP3   OH260249   5.171   4.898   3.971 -0.3514  0.5495 -0.1813
12945TIP3    H160250   5.174   4.865   4.061  1.0228 -0.1975 -0.4780
12945TIP3    H260251   5.239   4.966   3.968 -1.4159  1.6448 -0.2728
12946TIP3   OH260252   6.674   3.028  15.842  0.2172 -0.0406 -0.5558
12946TIP3    H160253   6.633   3.113  15.825  1.3539  0.9644  1.3341
12946TIP3    H260254   6.633   2.998  15.924 -1.2646 -2.1050 -1.9490
12947TIP3   OH260255   5.362   6.754   2.185 -0.1974  0.5025  0.4337
12947TIP3    H160256   5.374   6.716   2.271  2.5713 -1.3640 -0.6461
12947TIP3    H260257   5.327   6.682   2.132  1.6862  0.4296 -0.8083
12948TIP3   OH260258   3.357   0.216   1.512  0.3656 -0.4707  0.0264
12948TIP3    H160259   3.402   0.219   1.427  1.0367  0.0865  0.3831
12948TIP3    H260260   3.350   0.308   1.537  1.3524 -0.6818  1.1689
12949TIP3   OH260261   5.774   4.499   5.400  0.1633 -0.1226  0.1305
12949TIP3    H160262   5.758   4.474   5.492  1.0570 -1.3189 -0.0130
12949TIP3    H260263   5.811   4.587   5.406  1.5595 -0.7239  1.0563
12950TIP3   OH260264   4.620   5.907  12.508 -0.5141  0.1553  0.1880
12950TIP3    H160265   4.557   5.880  12.574 -0.7536 -1.1030 -0.5022
12950TIP3    H260266   4.612   6.002  12.503  0.1324  0.3801  2.5501
12951TIP3   OH260267   1.531   3.978  16.759  0.3591  0.0562 -0.3180
12951TIP3    H160268   1.572   4.006  16.841 -1.2089 -2.5063  1.4837
12951TIP3    H260269   1.604   3.946  16.706  1.1727 -0.8217  1.2543
12952TIP3   OH260270   5.777   1.212   1.565  0.5732  0.1153  0.1957
12952TIP3    H160271   5.706   1.147   1.559 -0.0971  0.8504 -0.1120
12952TIP3    H260272   5.843   1.171   1.620  0.2546 -0.9119 -0.1717
12953TIP3   OH260273   3.313   2.221  12.624  0.1757 -0.1960  0.2341
12953TIP3    H160274   3.352   2.239  12.710  0.1179  2.5319 -0.2101
12953TIP3    H260275   3.256   2.296  12.608 -0.5088 -1.0913 -1.8198
12954TIP3   OH260276   1.948   1.344   2.023 -0.0101 -0.5176  0.5419
12954TIP3    H160277   1.949   1.422   2.078 -1.3404  0.0362 -0.1767
12954TIP3    H260278   1.872   1.294   2.054  0.1854 -0.9881  0.2671
12955TIP3   OH260279   0.276   6.572  14.851 -0.4212  0.4133  0.2735
12955TIP3    H160280   0.308   6.646  14.903 -0.6078  0.8350 -0.1988
12955TIP3    H260281   0.239   6.512  14.915 -0.2438  0.7192  0.6691
12956TIP3   OH260282   1.744   3.480   3.456  0.1879 -0.2233  0.6324
12956TIP3    H160283   1.800   3.409   3.427  0.0798 -0.7007  1.5531
12956TIP3    H260284   1.657   3.459   3.421  0.5569  0.4963 -0.7601
12957TIP3   OH260285   5.565   6.244  12.116 -0.2468 -0.1312 -0.2349
12957TIP3    H160286   5.646   6.253  12.067 -2.1729 -0.4760 -3.8188
12957TIP3    H260287   5.560   6.151  12.137  0.6771  0.0484  0.8958
12958TIP3   OH260288   3.498   1.961   4.518  0.0833  0.7627  0.7413
12958TIP3    H160289   3.582   1.961   4.565  0.2575 -0.5155  0.4583
12958TIP3    H260290   3.485   1.870   4.492 -1.3940  0.9424  0.7711
12959TIP3   OH260291   5.750   1.359  12.804 -0.2209  0.0837 -0.2304
12959TIP3    H160292   5.683   1.398  12.860  1.2262  0.1627  1.5660
12959TIP3    H260293   5.779   1.281  12.853  1.5078  0.4817 -0.5713
12960TIP3   OH260294   0.253   6.228   5.164 -0.1782 -0.0224  0.3020
12960TIP3    H160295   0.323   6.207   5.103  0.5103  1.6052  0.4715
12960TIP3    H260296   0.286   6.198   5.249 -1.3263 -2.7027 -0.1000
12961TIP3   OH260297   1.994   1.578   2.196 -0.3530 -0.2839  0.4537
12961TIP3    H160298   1.967   1.668   2.214 -1.4641 -0.8186  1.6164
12961TIP3    H260299   2.090   1.583   2.188 -0.4503  1.0845 -0.1508
12962TIP3   OH260300   0.305   1.883   1.962 -0.6740  0.1512 -0.0368
12962TIP3    H160301   0.225   1.845   1.927 -1.7915  1.9164  0.4368
12962TIP3    H260302   0.298   1.977   1.942  1.6068  0.2806 -0.5774
12963TIP3   OH260303   5.211   0.373  13.525  0.1511 -0.4101  0.2355
12963TIP3    H160304   5.270   0.395  13.453 -0.5355 -1.1791 -0.5791
12963TIP3    H260305   5.251   0.416  13.601  0.1507  1.6207 -0.8168
12964TIP3   OH260306   2.702   6.323   5.062 -0.0911 -0.3520  0.8538
12964TIP3    H160307   2.652   6.258   5.111 -0.7719 -0.0542  0.5700
12964TIP3    H260308   2.641   6.396   5.051  0.4420  0.0547  0.5862
12965TIP3   OH260309   4.682   4.461   5.427 -0.2794  0.8162  0.3408
12965TIP3    H160310   4.649   4.450   5.338 -1.3651  2.0452  0.5574
12965TIP3    H260311   4.741   4.537   5.421  0.0525  0.5789  0.5738
12966TIP3   OH260312   2.104   0.596   1.382 -0.5469  0.1371  0.3025
12966TIP3    H160313   2.170   0.647   1.429  0.5154 -0.2737 -0.6748
12966TIP3    H260314   2.047   0.661   1.342  0.7332  0.6187 -0.8515
12967TIP3   OH260315   4.291   2.187  15.842  0.0740 -0.4495  0.7379
12967TIP3    H160316   4.305   2.255  15.907 -0.4418 -0.1396  0.5286
12967TIP3    H260317   4.377   2.174  15.802  0.0077  0.7014  0.1826
12968TIP3   OH260318   6.612   0.583  14.113 -0.9769 -0.1460  0.1821
12968TIP3    H160319   6.636   0.568  14.205  1.1254 -0.2232 -0.3283
12968TIP3    H260320   6.694   0.572  14.065 -1.6481  1.6791 -1.5167
12969TIP3   OH260321   2.682   4.428   6.141  0.4071  0.3699  0.0850
12969TIP3    H160322   2.709   4.450   6.230  1.0815 -1.0223  0.2551
12969TIP3    H260323   2.700   4.334   6.133 -3.4928 -0.5133 -0.1416
12970TIP3   OH260324   6.416   1.620  12.890  0.7180  0.5013  0.0927
12970TIP3    H160325   6.369   1.570  12.957  1.5932  0.6986  0.8660
12970TIP3    H260326   6.489   1.563  12.864  0.4996  0.5085 -0.5549
12971TIP3   OH260327   1.613   6.442   4.525  0.8936 -0.8013  0.7033
12971TIP3    H160328   1.617   6.536   4.511 -1.0552 -0.5591  1.4210
12971TIP3    H260329   1.637   6.403   4.441  0.1217  0.3879 -0.0925
12972TIP3   OH260330   6.622   2.073  16.082 -0.5982 -0.4603 -0.4332
12972TIP3    H160331   6.530   2.064  16.106 -0.9431 -0.6506 -1.7471
12972TIP3    H260332   6.647   2.160  16.113 -1.2878 -0.3084 -0.2896
12973TIP3   OH260333   1.414   3.995   0.366  0.2646 -0.3496  0.2410
12973TIP3    H160334   1.390   4.069   0.309  1.3036  0.9935  1.4906
12973TIP3    H260335   1.464   3.937   0.309  1.4735  1.0735 -0.2009
12974TIP3   OH260336   6.406   5.151   1.550 -0.3700  0.1680  0.1842
12974TIP3    H160337   6.404   5.168   1.644  0.9246 -0.0496  0.2789
12974TIP3    H260338   6.325   5.104   1.531 -0.6344  0.2087  1.1891
12975TIP3   OH260339   2.918   0.335  11.107  0.0378 -0.2587  0.1205
12975TIP3    H160340   2.910   0.241  11.092 -2.3581  0.2222 -2.1883
12975TIP3    H260341   2.979   0.365  11.039 -0.7346  0.1122 -0.4173
12976TIP3   OH260342   1.066   1.759  13.080  0.1181  0.1140 -0.0014
12976TIP3    H160343   1.155   1.765  13.044 -0.0606 -2.0820 -0.9728
12976TIP3    H260344   1.056   1.667  13.102 -1.7901  0.4149  0.5326
12977TIP3   OH260345   0.013   4.345  10.907 -1.3026 -0.4303 -0.0078
12977TIP3    H160346   0.080   4.277  10.897 -0.1211  0.6670  0.1419
12977TIP3    H260347  -0.031   4.348  10.822 -1.6863 -1.6920  0.1345
12978TIP3   OH260348   5.705   3.880  11.887  0.2547 -0.4193  0.4078
12978TIP3    H160349   5.636   3.923  11.836  0.3220  0.7935  1.2897
12978TIP3    H260350   5.726   3.801  11.837  0.8868  1.0938 -1.9045
12979TIP3   OH260351   5.302   3.820   1.091  0.0391 -0.2638  0.2875
12979TIP3    H160352   5.376   3.781   1.136 -0.7784 -1.6305  0.5179
12979TIP3    H260353   5.230   3.814   1.154 -0.4462  0.3784 -0.1904
12980TIP3   OH260354   2.884   1.983   1.790 -0.2347 -0.6240 -0.4807
12980TIP3    H160355   2.975   2.009   1.774 -1.1940  3.1369 -0.5989
12980TIP3    H260356   2.844   1.979   1.703 -0.1059 -3.1032 -0.5051
12981TIP3   OH260357   4.556   1.455   1.799  0.4237  0.2588 -0.3383
12981TIP3    H160358   4.602   1.496   1.872  0.9496  0.2396 -0.6537
12981TIP3    H260359   4.603   1.374   1.784  0.5686  0.4581 -0.9671
12982TIP3   OH260360   2.773   0.232   5.558  0.6845  0.5227 -0.7323
12982TIP3    H160361   2.868   0.218   5.551  0.8908  0.8259  0.9389
12982TIP3    H260362   2.765   0.317   5.603 -0.2696 -1.1983  2.6608
12983TIP3   OH260363   6.049   6.300  13.799 -0.6191  0.4845 -0.0057
12983TIP3    H160364   5.954   6.292  13.804 -0.6359 -1.6199 -2.0859
12983TIP3    H260365   6.078   6.220  13.755  2.4675 -0.5561  3.3719
12984TIP3   OH260366   4.785   3.412   5.852 -0.1186  0.0334 -0.2926
12984TIP3    H160367   4.808   3.327   5.890 -1.0768 -0.5104 -0.8741
12984TIP3    H260368   4.690   3.407   5.838 -0.2525  1.3407 -0.0076
12985TIP3   OH260369   0.644   2.739  11.065 -0.1223 -0.8245  0.1972
12985TIP3    H160370   0.737   2.752  11.079  0.3897 -2.5127 -1.3159
12985TIP3    H260371   0.638   2.659  11.013 -2.3056  0.1206 -1.1582
12986TIP3   OH260372   5.711   1.509   1.715 -0.1092  0.2959 -0.0378
12986TIP3    H160373   5.743   1.599   1.715 -1.3047  0.7382 -0.6471
12986TIP3    H260374   5.777   1.461   1.764  0.3815  1.5580  0.5930
12987TIP3   OH260375   0.420   6.497   3.278 -0.2241  0.2154 -0.1540
12987TIP3    H160376   0.500   6.465   3.320  0.2450  0.1942 -1.0491
12987TIP3    H260377   0.361   6.515   3.351  1.2419  2.0487  0.6662
12988TIP3   OH260378   5.228   5.934   4.056  1.2864  0.3908 -0.6071
12988TIP3    H160379   5.181   5.980   3.987 -0.0971  1.5434  1.0209
12988TIP3    H260380   5.312   5.978   4.062  1.0877  0.8272 -0.9940
12989TIP3   OH260381   1.722   1.823   1.222  0.3753 -0.4208 -0.2077
12989TIP3    H160382   1.648   1.880   1.243 -0.4767 -1.1105 -1.2112
12989TIP3    H260383   1.728   1.762   1.295  0.2553 -0.0536  0.1071
12990TIP3   OH260384   5.948   5.297  13.844  0.1615  0.5310 -0.6020
12990TIP3    H160385   5.872   5.285  13.787  0.7995 -2.0020 -1.0539
12990TIP3    H260386   6.016   5.330  13.786 -0.0583  0.9617 -0.6163
12991TIP3   OH260387   2.759   4.954   2.856  0.2462 -0.0329 -0.5348
12991TIP3    H160388   2.835   4.979   2.908 -0.4007  1.2897 -0.1832
12991TIP3    H260389   2.744   4.862   2.877 -0.7370  0.7477  2.6132
12992TIP3   OH260390   3.296   0.638  15.539 -0.0694  0.2274 -0.6485
12992TIP3    H160391   3.353   0.606  15.470  0.2371  1.4887 -1.0094
12992TIP3    H260392   3.299   0.734  15.530  0.7032  0.4963  1.6409
12993TIP3   OH260393   0.680   1.892   5.229  0.4849 -0.5692 -0.5056
12993TIP3    H160394   0.714   1.980   5.213  1.6036 -1.0889 -1.1087
12993TIP3    H260395   0.724   1.863   5.309 -2.1611  0.5325  1.4622
12994TIP3   OH260396   4.805   0.501   2.342 -0.0772 -0.3117  0.0033
12994TIP3    H160397   4.849   0.515   2.426  1.6286 -1.3222 -0.6554
12994TIP3    H260398   4.757   0.581   2.326  1.2385  0.7179  0.9955
12995TIP3   OH260399   5.254   6.475   2.925  0.1045 -0.3131  0.5029
12995TIP3    H160400   5.225   6.550   2.977 -3.0720 -1.6274  0.9014
12995TIP3    H260401   5.244   6.400   2.984  4.0478 -1.0923  0.4254
12996TIP3   OH260402   5.796   5.997  16.261 -0.1529 -0.2177  0.4020
12996TIP3    H160403   5.832   6.048  16.189  0.3770  0.5156  1.1560
12996TIP3    H260404   5.724   5.947  16.222  2.0531 -2.2740 -1.3372
12997TIP3   OH260405   6.391   5.187   3.238 -0.3384  0.5291  0.1330
12997TIP3    H160406   6.473   5.138   3.245  0.1177  1.3083  0.3456
12997TIP3    H260407   6.328   5.133   3.286  0.0250 -0.1227 -0.1086
12998TIP3   OH260408   1.789   5.242   6.197 -0.0662 -0.1380 -0.1904
12998TIP3    H160409   1.776   5.149   6.185  0.0854 -0.1243 -0.4654
12998TIP3    H260410   1.727   5.267   6.265 -1.8333  0.0367 -1.7864
12999TIP3   OH260411   3.560   4.626   0.658  0.0242  0.2959 -0.5213
12999TIP3    H160412   3.548   4.532   0.640 -0.2058  0.2110  0.0288
12999TIP3    H260413   3.473   4.664   0.645  0.1726  0.4809 -0.9905
13000TIP3   OH260414   0.735   1.973  16.780  0.6082 -0.2988 -0.2511
13000TIP3    H160415   0.806   1.957  16.719  0.7891 -1.2352  0.1868
13000TIP3    H260416   0.761   1.928  16.860  0.3153  0.7951  0.4858
13001TIP3   OH260417   0.022   4.847   3.353  0.6736 -0.0138  0.3626
13001TIP3    H160418   0.022   4.754   3.330 -0.9233 -0.2130  1.0258
13001TIP3    H260419  -0.069   4.865   3.377  1.0095  1.6743  0.4409
13002TIP3   OH260420   0.193   3.058   1.337  0.1340 -0.4788  0.2399
13002TIP3    H160421   0.171   3.147   1.308 -0.3262 -0.9317 -0.8255
13002TIP3    H260422   0.242   3.072   1.418 -0.4044  0.7290  0.3892
13003TIP3   OH260423   3.813   5.537  15.263 -0.0449 -0.1352  0.0726
13003TIP3    H160424   3.804   5.575  15.176  1.8008 -1.4516 -0.7659
13003TIP3    H260425   3.727   5.499  15.282 -0.4150 -0.0360 -1.2788
13004TIP3   OH260426   0.042   0.165   5.176  0.1091 -0.3436  0.3131
13004TIP3    H160427   0.030   0.254   5.209 -1.6111 -0.4833  0.1636
13004TIP3    H260428  -0.023   0.157   5.106 -0.5624 -2.0650  1.0769
13005TIP3   OH260429   2.328   2.462   4.284 -0.7073  0.4588 -0.4536
13005TIP3    H160430   2.309   2.504   4.200  0.5329  0.0570 -0.9516
13005TIP3    H260431   2.423   2.458   4.289 -0.6879  1.7519  1.6256
13006TIP3   OH260432   1.892   6.358  11.517 -0.2547  0.3529  0.4751
13006TIP3    H160433   1.838   6.316  11.450  1.0530  0.6337 -0.8330
13006TIP3    H260434   1.843   6.436  11.542 -1.6947 -0.7857  1.3463
13007TIP3   OH260435   1.186   2.156  11.813 -0.0980  0.5650 -0.1160
13007TIP3    H160436   1.272   2.189  11.840  0.7316  0.3619 -2.2535
13007TIP3    H260437   1.150   2.226  11.758  0.7701 -1.0744 -2.9721
13008TIP3   OH260438   1.319   6.737  12.089 -0.2632 -0.5155  0.2379
13008TIP3    H160439   1.245   6.686  12.056 -0.0619 -0.3889 -0.4401
13008TIP3    H260440   1.393   6.677  12.086  0.1330 -0.0061 -1.2669
13009TIP3   OH260441   3.609   0.680  11.524  0.3750  0.3635  0.1232
13009TIP3    H160442   3.558   0.602  11.500 -0.1876  0.6531  0.3683
13009TIP3    H260443   3.694   0.646  11.551  0.3277 -0.1228 -0.3314
13010TIP3   OH260444   1.810   4.340   3.085 -0.4502 -0.1360 -0.1106
13010TIP3    H160445   1.885   4.387   3.048 -2.1934  2.8838 -0.1710
13010TIP3    H260446   1.809   4.365   3.177 -1.0549 -0.6088  0.0188
13011TIP3   OH260447   4.847   4.318  11.102  0.1507 -0.3707  0.1012
13011TIP3    H160448   4.762   4.356  11.078  0.4423  0.7051  0.6945
13011TIP3    H260449   4.853   4.239  11.049 -0.4397  0.4633 -1.2816
13012TIP3   OH260450   3.304   3.654  17.142  0.5520  0.0126 -0.1795
13012TIP3    H160451   3.237   3.625  17.080 -1.1441 -0.7413  1.8677
13012TIP3    H260452   3.289   3.600  17.220  1.0723  2.4239  1.7086
13013TIP3   OH260453   0.003   2.817  13.733  0.0009  0.0711 -0.7440
13013TIP3    H160454   0.075   2.873  13.762  0.9651 -0.8554 -1.2900
13013TIP3    H260455  -0.021   2.852  13.647 -0.8889  0.9774 -0.1648
13014TIP3   OH260456   6.189   1.878  16.221 -0.3240 -0.3389 -0.2009
13014TIP3    H160457   6.220   1.944  16.283  0.5104 -0.8466 -0.0659
13014TIP3    H260458   6.256   1.810  16.223  0.3799  0.1873 -2.5621
13015TIP3   OH260459   5.025   2.579   3.381  0.5609 -0.3063  0.0928
13015TIP3    H160460   4.959   2.609   3.318 -0.4111 -1.5213  0.5209
13015TIP3    H260461   5.056   2.660   3.423 -1.2426  0.2201  0.4751
13016TIP3   OH260462   0.092   2.093   5.715  0.8125 -0.0312 -0.0563
13016TIP3    H160463   0.121   2.111   5.626  1.0183 -0.1938 -0.0226
13016TIP3    H260464   0.172   2.078   5.765  0.6459 -2.4495 -0.3885
13017TIP3   OH260465   2.244   3.374   0.948 -0.0964  0.1420  0.5430
13017TIP3    H160466   2.294   3.293   0.952  0.4403  0.4550  0.2956
13017TIP3    H260467   2.254   3.413   1.035 -1.1353 -0.5009  0.9759
13018TIP3   OH260468   5.634   3.671   5.340  0.3019  0.3530 -0.0618
13018TIP3    H160469   5.601   3.757   5.364  1.5040 -0.1038  4.1588
13018TIP3    H260470   5.725   3.685   5.315  0.1290  0.4300 -0.6550
13019TIP3   OH260471   1.024   0.520   1.025 -0.0712 -0.0012 -0.1825
13019TIP3    H160472   0.978   0.498   1.106  1.7330  0.3332  0.9861
13019TIP3    H260473   0.975   0.594   0.988 -1.0099 -0.2661  0.4993
13020TIP3   OH260474   6.343   5.305   4.119 -0.2531  0.2163  0.3468
13020TIP3    H160475   6.314   5.214   4.127 -1.8232  0.6382 -0.1579
13020TIP3    H260476   6.262   5.355   4.105  0.2770  2.0469  3.0950
13021TIP3   OH260477   1.789   0.747   3.519 -0.0633 -0.1682 -0.1868
13021TIP3    H160478   1.776   0.691   3.442 -0.3186  1.9677 -1.8047
13021TIP3    H260479   1.705   0.791   3.530 -0.1619 -0.7434  1.6290
13022TIP3   OH260480   6.633   2.710  14.772  0.7251  0.2855  0.5739
13022TIP3    H160481   6.547   2.747  14.793  0.8699  0.0944  1.5409
13022TIP3    H260482   6.643   2.636  14.831  2.3199  1.3972  1.7937
13023TIP3   OH260483   1.890   3.139  15.058 -0.1588  0.0711 -0.1873
13023TIP3    H160484   1.872   3.174  14.970  0.7376 -0.7310 -0.7128
13023TIP3    H260485   1.900   3.217  15.113 -1.7960  0.5747 -0.5544
13024TIP3   OH260486   4.586   4.732  16.069 -0.2802  0.1575  0.0169
13024TIP3    H160487   4.499   4.767  16.089  0.2398  1.1698  0.5889
13024TIP3    H260488   4.647   4.792  16.113  0.8127  0.7840 -2.2363
13025TIP3   OH260489   5.235   4.250   4.342 -0.3639  0.1724  0.2933
13025TIP3    H160490   5.201   4.169   4.380 -1.1975  0.1118 -0.5470
13025TIP3    H260491   5.157   4.296   4.311  0.2973  0.0115 -1.7617
13026TIP3   OH260492   2.999   5.268   0.018  0.3005  0.5591  0.2164
13026TIP3    H160493   2.941   5.194   0.038  1.7180 -0.2174  1.6619
13026TIP3    H260494   2.995   5.276  -0.078 -2.9556  1.2429  0.3009
13027TIP3   OH260495   3.722   0.044   2.493 -0.0377  0.4071  0.7574
13027TIP3    H160496   3.703  -0.013   2.567 -1.0687 -1.3036 -0.7574
13027TIP3    H260497   3.636   0.071   2.460  0.3552 -0.0227 -0.6789
13028TIP3   OH260498   5.462   5.885  15.339 -0.2629 -0.2325  0.6941
13028TIP3    H160499   5.555   5.889  15.363  0.2810  0.7734 -1.3572
13028TIP3    H260500   5.421   5.956  15.389  0.6428  1.1535 -0.4448
13029TIP3   OH260501   3.450   5.299   2.996  0.2270  0.3663 -0.2114
13029TIP3    H160502   3.523   5.238   2.998 -0.7932 -0.8766 -0.0366
13029TIP3    H260503   3.489   5.384   3.015  1.3435 -0.5427  1.7993
13030TIP3   OH260504   1.861   5.902  13.744  1.1611 -0.0930  0.2319
13030TIP3    H160505   1.891   5.888  13.654  0.6209  0.2601 -0.0049
13030TIP3    H260506   1.865   5.815  13.784  1.8845 -0.1638  0.0207
13031TIP3   OH260507   3.800   5.730  14.603 -0.4752 -0.2257 -0.2875
13031TIP3    H160508   3.840   5.759  14.521  0.6239  3.3039  1.3157
13031TIP3    H260509   3.710   5.764  14.598 -0.7961 -1.0626 -0.4660
13032TIP3   OH260510   0.792   5.772   0.540  0.4676  0.0515  0.2210
13032TIP3    H160511   0.760   5.812   0.621  0.9889 -1.8409  1.4090
13032TIP3    H260512   0.884   5.754   0.557  0.2966 -1.4490 -0.3554
13033TIP3   OH260513   1.531   2.275   6.156  0.5050 -0.0917 -0.7373
13033TIP3    H160514   1.481   2.271   6.075 -2.3234 -0.1934  0.8576
13033TIP3    H260515   1.565   2.365   6.158 -0.8698  0.4744 -1.2614
13034TIP3   OH260516   3.785   3.753  14.715  0.4763 -0.6639  0.0642
13034TIP3    H160517   3.741   3.722  14.794  0.4051  1.6545  1.0322
13034TIP3    H260518   3.724   3.734  14.644 -0.5751 -0.5737  0.9199
13035TIP3   OH260519   0.241   6.084  11.785  0.0145  0.4745 -0.2108
13035TIP3    H160520   0.200   6.105  11.702  2.9909 -0.4447 -2.0552
13035TIP3    H260521   0.207   5.998  11.808 -0.6296  0.6233 -0.5930
13036TIP3   OH260522   2.451   4.277   5.516 -0.1944  0.0753  0.0489
13036TIP3    H160523   2.542   4.271   5.487 -0.1059  1.6227 -0.0864
13036TIP3    H260524   2.449   4.354   5.573 -1.2857 -0.3244  0.5745
13037TIP3   OH260525   5.266   4.084  16.144 -0.2423  0.2662 -0.0225
13037TIP3    H160526   5.204   4.011  16.145 -0.4855  0.4715 -0.0455
13037TIP3    H260527   5.318   4.073  16.223 -0.7628  0.4845  0.3580
13038TIP3   OH260528   4.599   3.838  12.512 -0.0550  0.0347 -0.3789
13038TIP3    H160529   4.552   3.898  12.570 -0.4908 -0.0338 -0.6626
13038TIP3    H260530   4.544   3.759  12.510  0.8325 -0.6392  0.5199
13039TIP3   OH260531   0.887   5.017  11.949 -0.8566 -0.1727 -0.4451
13039TIP3    H160532   0.834   5.086  11.990 -1.4647 -0.2871 -1.0172
13039TIP3    H260533   0.917   5.056  11.867  0.9092  0.2910  0.3791
13040TIP3   OH260534   0.365   4.137  14.583  0.3493  0.0562 -0.3416
13040TIP3    H160535   0.288   4.125  14.527  0.9453 -3.0233 -0.6936
13040TIP3    H260536   0.438   4.145  14.521  0.7472 -1.0791 -0.0324
13041TIP3   OH260537   5.630   3.656   0.863 -0.3998 -0.6349  0.2295
13041TIP3    H160538   5.698   3.591   0.848  1.7908  1.8146 -1.3553
13041TIP3    H260539   5.598   3.639   0.952  4.0883 -0.4424  2.1216
13042TIP3   OH260540   5.637   3.443   2.983 -0.3653 -0.1365 -0.7897
13042TIP3    H160541   5.715   3.395   2.953 -0.2697 -0.8476  0.5429
13042TIP3    H260542   5.667   3.533   2.996 -0.8403  0.7805 -4.6215
13043TIP3   OH260543   1.091   0.258  11.254  0.1313  1.3420  0.0145
13043TIP3    H160544   1.139   0.315  11.194 -0.6478  1.4340 -0.5428
13043TIP3    H260545   1.148   0.250  11.330  1.2073  1.0952 -0.7901
13044TIP3   OH260546   2.953   0.669   1.664 -0.0191 -0.3020  0.2017
13044TIP3    H160547   2.897   0.661   1.742 -0.0987  0.1679  0.1964
13044TIP3    H260548   3.002   0.750   1.677 -0.9445  0.4591 -0.8034
13045TIP3   OH260549   4.858   3.847  14.489  0.0466 -0.5992  0.2378
13045TIP3    H160550   4.856   3.864  14.583 -0.7700  0.0693  0.1111
13045TIP3    H260551   4.766   3.849  14.462  0.2751 -0.7038 -0.5935
13046TIP3   OH260552   4.358   4.478  12.968 -0.2929  0.4951  0.2789
13046TIP3    H160553   4.453   4.470  12.955 -0.2994  1.3970 -0.4746
13046TIP3    H260554   4.349   4.494  13.062  0.1996 -0.7907  0.5612
13047TIP3   OH260555   5.077   4.279  16.727 -0.5866  0.3786  0.3082
13047TIP3    H160556   5.010   4.319  16.673 -0.4675  0.3994  0.1760
13047TIP3    H260557   5.159   4.293  16.679 -0.8226 -2.2859 -1.0352
13048TIP3   OH260558   0.588   5.168  14.982  0.0283 -0.2627  0.2109
13048TIP3    H160559   0.576   5.257  14.950  0.3315  0.1766  1.3010
13048TIP3    H260560   0.624   5.120  14.907 -0.2738  0.4848 -0.4225
13049TIP3   OH260561   5.255   1.658  16.922  0.3742 -0.0667 -0.0960
13049TIP3    H160562   5.330   1.717  16.919 -0.8568  1.5381 -0.8716
13049TIP3    H260563   5.293   1.571  16.919  2.2202  0.6889  0.0641
13050TIP3   OH260564   1.317   2.429  13.331  0.3146 -0.4980  0.0392
13050TIP3    H160565   1.318   2.350  13.277  0.3966 -0.8126  0.4961
13050TIP3    H260566   1.355   2.401  13.415 -1.2004 -0.3828  0.7833
13051TIP3   OH260567   3.652   5.261  14.889  0.5323  0.2026  0.9286
13051TIP3    H160568   3.736   5.281  14.932 -0.2976  1.5346  2.0319
13051TIP3    H260569   3.644   5.329  14.821  1.4946 -1.4588 -0.9423
13052TIP3   OH260570   1.958   6.621   2.673  0.3133  0.7922  0.1012
13052TIP3    H160571   2.023   6.616   2.603 -0.4197  1.9810 -0.6936
13052TIP3    H260572   1.903   6.696   2.650 -1.1008  0.0674  0.9495
13053TIP3   OH260573   5.416   0.262   2.476 -0.2272 -0.0078  0.1795
13053TIP3    H160574   5.511   0.263   2.489 -0.2064 -1.8951  0.5503
13053TIP3    H260575   5.404   0.285   2.384  0.8012 -2.1249 -0.5460
13054TIP3   OH260576   4.607   5.177  14.531 -0.0677  0.2233 -0.1163
13054TIP3    H160577   4.539   5.113  14.553 -0.5827  0.5631 -0.7145
13054TIP3    H260578   4.606   5.182  14.436  0.9306  0.0997 -0.1476
13055TIP3   OH260579   2.626   0.032   3.896  0.4404  0.6163 -0.1060
13055TIP3    H160580   2.542  -0.000   3.928  1.2751  1.0666  2.8400
13055TIP3    H260581   2.607   0.064   3.807 -1.8766 -1.6008 -0.5369
13056TIP3   OH260582   0.417   3.669   3.960 -0.0855 -0.0898  1.0726
13056TIP3    H160583   0.354   3.699   4.026 -2.0600 -0.0702 -0.7284
13056TIP3    H260584   0.426   3.575   3.975  1.7592  0.3294  3.1388
13057TIP3   OH260585   1.574   5.145   2.305  0.1580 -0.3979 -0.5039
13057TIP3    H160586   1.495   5.092   2.308 -0.1562  0.0169 -1.1944
13057TIP3    H260587   1.622   5.122   2.384 -0.3768 -1.0818 -0.3761
13058TIP3   OH260588   5.718   6.568  13.091  0.4716 -0.2305  0.1475
13058TIP3    H160589   5.709   6.664  13.095 -0.1676 -0.2740 -0.0367
13058TIP3    H260590   5.746   6.551  13.001  0.9246 -0.1951  0.2807
13059TIP3   OH260591   3.964   1.412  14.712  0.3542  0.1449  0.7019
13059TIP3    H160592   3.978   1.482  14.649  2.0237  0.2953  1.2014
13059TIP3    H260593   4.052   1.385  14.738 -0.1862 -2.7544 -0.1455
13060TIP3   OH260594   4.112   5.858   1.420 -0.1068 -0.0930 -0.1767
13060TIP3    H160595   4.028   5.899   1.398  0.2462 -0.5382 -2.6336
13060TIP3    H260596   4.176   5.928   1.407  0.1228 -0.3822 -0.6125
13061TIP3   OH260597   4.847   1.773   5.208 -0.5414 -0.0609  0.9322
13061TIP3    H160598   4.920   1.723   5.246 -0.9661  0.2934  2.2671
13061TIP3    H260599   4.793   1.797   5.283 -0.4783  2.2103  0.3301
13062TIP3   OH260600   0.769   3.556  12.901 -0.6609  0.2093  0.0924
13062TIP3    H160601   0.836   3.591  12.959 -0.9146 -1.1267  1.2387
13062TIP3    H260602   0.692   3.546  12.957 -0.3357 -3.0455  0.1166
13063TIP3   OH260603   3.371   0.655  16.560 -0.0032  0.8383 -0.2222
13063TIP3    H160604   3.437   0.688  16.620 -1.6410  0.0635  2.2201
13063TIP3    H260605   3.327   0.733  16.527  1.0590  1.2958 -0.5918
13064TIP3   OH260606   4.162   5.513   3.766 -0.0087  0.2784 -0.3419
13064TIP3    H160607   4.194   5.529   3.677  0.3271  0.1492 -0.2485
13064TIP3    H260608   4.233   5.465   3.809 -0.1425  0.3892  0.0136
13065TIP3   OH260609   4.386   6.362   5.180  0.2339 -1.0355 -0.8245
13065TIP3    H160610   4.405   6.384   5.271 -0.4454  0.3834 -1.0016
13065TIP3    H260611   4.343   6.277   5.185 -0.6441 -0.5632  0.2922
13066TIP3   OH260612   0.644   0.018   3.437 -0.3707  0.5649 -0.2496
13066TIP3    H160613   0.726   0.060   3.464 -0.7602  0.8631  0.4936
13066TIP3    H260614   0.576   0.063   3.487 -0.7762 -1.1195  0.8126
13067TIP3   OH260615   0.995   2.772  12.828  0.5531  0.0319 -0.1114
13067TIP3    H160616   0.987   2.766  12.923  0.6377  0.2117 -0.0919
13067TIP3    H260617   1.052   2.848  12.814  0.0459  0.3855 -0.3208
13068TIP3   OH260618   5.620   3.246   3.201 -0.3698  0.0911 -0.3662
13068TIP3    H160619   5.715   3.233   3.201 -0.1716  1.0497 -2.6845
13068TIP3    H260620   5.608   3.337   3.229 -0.6121 -0.0233 -0.0960
13069TIP3   OH260621   1.431   4.818   4.681  0.2977 -0.2094 -0.1259
13069TIP3    H160622   1.454   4.910   4.699  1.3898 -0.3580 -0.6756
13069TIP3    H260623   1.510   4.781   4.641 -1.0919 -0.6111 -2.7140
13070TIP3   OH260624   4.278   2.749  14.609 -0.1976  0.2740  0.3585
13070TIP3    H160625   4.316   2.752  14.696 -0.0667  0.6068  0.2912
13070TIP3    H260626   4.184   2.746  14.624 -0.1887  0.6979  0.5063
13071TIP3   OH260627   1.609   0.035   6.243  0.2558 -0.2326  0.1422
13071TIP3    H160628   1.650  -0.015   6.314  2.2543  0.2029 -0.6318
13071TIP3    H260629   1.682   0.079   6.200 -0.7647 -1.0281 -2.6229
13072TIP3   OH260630   5.140   1.368   0.859 -0.5845  0.0097  0.2109
13072TIP3    H160631   5.234   1.353   0.865 -0.4006  1.3967  1.1227
13072TIP3    H260632   5.131   1.457   0.827 -1.6253 -0.6208 -1.4392
13073TIP3   OH260633   0.767   5.162   3.958 -0.1064  0.1604 -0.9797
13073TIP3    H160634   0.704   5.229   3.983 -0.6232 -0.6220 -0.1557
13073TIP3    H260635   0.800   5.192   3.873 -1.6723  0.5293 -1.4983
13074TIP3   OH260636   0.075   3.548   4.752 -0.2142 -0.4629  0.0233
13074TIP3    H160637   0.041   3.461   4.775 -0.4509 -0.3477  0.1096
13074TIP3    H260638   0.166   3.532   4.728 -0.2422 -0.7289  0.0886
13075TIP3   OH260639   5.880   5.352   3.743 -0.1734  0.4430  0.5824
13075TIP3    H160640   5.916   5.277   3.697  4.7987  2.1876  1.0256
13075TIP3    H260641   5.785   5.345   3.731  0.2981 -3.4690 -2.9450
13076TIP3   OH260642   4.769   6.046  16.520  0.1145  0.1796 -0.5707
13076TIP3    H160643   4.806   6.052  16.608  0.7540 -0.2068 -0.8071
13076TIP3    H260644   4.764   5.952  16.503 -3.0191  0.1004  0.2907
13077TIP3   OH260645   3.662   3.990  15.645 -0.0898  0.1645  0.1389
13077TIP3    H160646   3.586   3.973  15.588 -1.0345 -2.9290  2.1084
13077TIP3    H260647   3.737   3.985  15.586 -1.0617 -2.5454 -1.0595
13078TIP3   OH260648   3.224   2.224  16.824 -0.0823  0.8211  0.3921
13078TIP3    H160649   3.130   2.219  16.838 -0.2201  0.3567 -0.6009
13078TIP3    H260650   3.258   2.142  16.859 -0.0942  0.8274  0.4187
13079TIP3   OH260651   0.386   3.491   2.117 -0.8569 -0.1752 -0.0739
13079TIP3    H160652   0.315   3.512   2.178 -0.2090 -0.8140  0.9222
13079TIP3    H260653   0.393   3.396   2.120  0.8130 -0.0567  0.7482
13080TIP3   OH260654   1.068   4.678   3.143 -0.4065 -0.0871 -0.4087
13080TIP3    H160655   1.091   4.763   3.106  0.7937 -0.4558 -0.5608
13080TIP3    H260656   1.102   4.615   3.080 -2.0122 -0.6877 -0.7157
13081TIP3   OH260657   6.763   3.532  12.269  0.1682  0.0616 -0.2271
13081TIP3    H160658   6.695   3.578  12.219  0.5311  2.0259  0.9664
13081TIP3    H260659   6.832   3.514  12.205 -0.5069  0.0936 -0.9775
13082TIP3   OH260660   5.035   2.823  12.429  0.4237  0.0672 -0.1296
13082TIP3    H160661   5.099   2.888  12.399  0.2200  0.2448 -0.1802
13082TIP3    H260662   5.061   2.802  12.519 -1.0240  2.1570  0.8541
13083TIP3   OH260663   3.265   6.689  16.870 -0.0327 -1.0201 -0.3429
13083TIP3    H160664   3.276   6.604  16.826  3.0073  0.7088 -3.3919
13083TIP3    H260665   3.230   6.747  16.803  0.6304  0.7689  0.7723
13084TIP3   OH260666   0.042   0.881  11.078  0.0028 -0.0185  0.2699
13084TIP3    H160667  -0.040   0.836  11.055  0.4673 -0.4187 -0.6388
13084TIP3    H260668   0.089   0.890  10.995  0.8437  0.2910  0.7661
13085TIP3   OH260669   4.827   3.425   6.206 -0.2033 -0.7833  0.6314
13085TIP3    H160670   4.756   3.364   6.186 -0.0426 -0.8500  0.2612
13085TIP3    H260671   4.785   3.496   6.254 -1.0027  0.4697 -1.7549
13086TIP3   OH260672   0.555   6.266   1.815  0.1020 -0.3137  0.3766
13086TIP3    H160673   0.515   6.342   1.772 -0.0992 -0.1290  0.8771
13086TIP3    H260674   0.642   6.296   1.840  0.0841 -0.3047  0.4270
13087TIP3   OH260675   2.403   0.895  16.211 -0.3624  0.2471 -0.0205
13087TIP3    H160676   2.386   0.973  16.158  1.4735  0.7955  0.1227
13087TIP3    H260677   2.460   0.841  16.156 -0.5960 -0.4237  0.3812
13088TIP3   OH260678   3.909   0.536   2.127 -0.0727 -0.1111 -0.1924
13088TIP3    H160679   3.876   0.452   2.159 -3.3672  1.0974 -0.0476
13088TIP3    H260680   3.955   0.574   2.202  0.6228 -1.3161  0.0288
13089TIP3   OH260681   0.137   2.291  15.525 -0.1623  0.4198 -0.2216
13089TIP3    H160682   0.177   2.224  15.580 -1.0300  1.2583  1.5017
13089TIP3    H260683   0.043   2.274  15.530 -0.2413 -0.0234 -2.2183
13090TIP3   OH260684   1.061   2.428   2.646 -0.0454 -0.4275 -0.4091
13090TIP3    H160685   1.102   2.403   2.730 -0.0070  1.4209  0.1524
13090TIP3    H260686   1.042   2.344   2.604  1.1417 -1.3907  0.8596
13091TIP3   OH260687   3.802   5.842   4.424  0.1772  0.3981 -0.1052
13091TIP3    H160688   3.787   5.849   4.329  3.0675 -0.9395 -0.7553
13091TIP3    H260689   3.865   5.911   4.443  2.3432 -1.5172  0.0705
13092TIP3   OH260690   0.749   3.327  13.455  0.1261 -0.2868  0.4524
13092TIP3    H160691   0.815   3.395  13.438 -1.4079  1.0867 -0.3492
13092TIP3    H260692   0.791   3.246  13.427  2.1497  0.2344  1.7600
13093TIP3   OH260693   3.129   2.655   4.976  0.4172 -1.0980  0.3241
13093TIP3    H160694   3.185   2.677   5.050  0.4861 -1.6074  0.4283
13093TIP3    H260695   3.116   2.560   4.983  1.4456 -1.3654 -1.0211
13094TIP3   OH260696   4.046   0.853  11.631 -0.0820 -0.1250 -0.3575
13094TIP3    H160697   4.039   0.810  11.546  0.8511 -2.1674  0.5298
13094TIP3    H260698   4.013   0.788  11.694 -1.2970  1.5418  0.8301
13095TIP3   OH260699   2.829   5.701   1.467 -0.0991 -0.5135  0.4841
13095TIP3    H160700   2.834   5.610   1.499 -1.3460 -0.8562 -0.2538
13095TIP3    H260701   2.738   5.727   1.481  0.1868  0.5484  0.4533
13096TIP3   OH260702   2.655   4.046   2.044  0.0012 -0.0611 -0.0888
13096TIP3    H160703   2.591   4.109   2.077 -0.3484  1.3754 -3.1368
13096TIP3    H260704   2.740   4.088   2.058 -0.1237  0.4161 -0.7383
13097TIP3   OH260705   1.233   2.088  13.470  0.4796 -0.0884 -0.7355
13097TIP3    H160706   1.237   2.143  13.391  0.2022  0.2763 -0.4999
13097TIP3    H260707   1.321   2.095  13.508  0.0831  1.2415 -0.0138
13098TIP3   OH260708   6.306   5.762  13.222  0.2141  0.3980 -0.0782
13098TIP3    H160709   6.226   5.814  13.216  0.5726  0.9503 -0.1590
13098TIP3    H260710   6.326   5.759  13.315 -0.8604 -1.2473  0.1426
13099TIP3   OH260711   4.668   2.779   5.138 -0.5867 -0.3213  0.1661
13099TIP3    H160712   4.635   2.842   5.074  2.4959  0.3519 -0.9242
13099TIP3    H260713   4.651   2.694   5.098  0.0079  0.0467 -0.9061
13100TIP3   OH260714   0.512   5.582  14.648 -0.0390 -0.2852  0.5667
13100TIP3    H160715   0.505   5.575  14.553 -2.3329 -0.6081  0.6859
13100TIP3    H260716   0.563   5.661  14.663  0.8184 -0.5196 -0.9142
13101TIP3   OH260717   2.924   0.882   2.548 -0.0803  0.1192 -0.5341
13101TIP3    H160718   2.998   0.903   2.604 -0.6832  1.1338 -0.0923
13101TIP3    H260719   2.880   0.809   2.593  1.1684 -1.1729 -1.3041
13102TIP3   OH260720   3.065   4.692  12.186 -0.7292  0.4466  0.5241
13102TIP3    H160721   3.039   4.648  12.267  0.4974  1.3467  1.4512
13102TIP3    H260722   3.054   4.785  12.205  0.6841  0.7276  0.0833
13103TIP3   OH260723   0.076   1.737  16.193  0.3030  0.0820 -0.4253
13103TIP3    H160724   0.062   1.671  16.261 -3.3265 -1.1390 -2.1382
13103TIP3    H260725   0.054   1.820  16.237  1.3177 -0.2300  0.7441
13104TIP3   OH260726   1.874   1.456  14.249 -0.1194 -0.0595 -0.5374
13104TIP3    H160727   1.880   1.366  14.281 -0.6703  0.0641 -0.0648
13104TIP3    H260728   1.835   1.504  14.322  1.6633  0.8963 -0.1690
13105TIP3   OH260729   3.921   3.350   4.395 -0.1950 -0.1210 -0.2629
13105TIP3    H160730   4.015   3.365   4.392 -0.1441 -0.1526  0.8321
13105TIP3    H260731   3.889   3.378   4.309  0.7086  0.5505 -0.3872
13106TIP3   OH260732   2.387   0.186  12.351 -0.0907 -0.1380  0.1597
13106TIP3    H160733   2.295   0.208  12.337  0.3902  0.5367 -2.5875
13106TIP3    H260734   2.391   0.091  12.339 -0.2769 -0.0109 -1.0402
13107TIP3   OH260735   3.084   3.544  15.316 -0.2192  0.3752  0.2715
13107TIP3    H160736   3.070   3.500  15.400  1.5068 -0.2238  0.2772
13107TIP3    H260737   3.173   3.577  15.321 -0.1689  0.5251 -1.2526
13108TIP3   OH260738   4.065   0.808  12.060 -0.2448  0.1416  0.5824
13108TIP3    H160739   4.116   0.888  12.048  0.2686 -0.4886 -2.1627
13108TIP3    H260740   4.122   0.750  12.109  0.0165  0.8651  1.1624
13109TIP3   OH260741   1.970   5.897  14.405  0.0126 -0.1005  0.3549
13109TIP3    H160742   1.901   5.837  14.433 -0.6206  0.8534  0.8821
13109TIP3    H260743   2.024   5.845  14.345  0.0511 -1.4693  1.5456
13110TIP3   OH260744   6.655   1.656  14.691  0.1226  0.2950 -0.6899
13110TIP3    H160745   6.705   1.703  14.624  0.2580 -0.2342 -0.9684
13110TIP3    H260746   6.721   1.611  14.743 -0.0739 -0.6433 -1.2392
13111TIP3   OH260747   0.264   5.111  15.479 -0.3403  0.4364  0.0474
13111TIP3    H160748   0.285   5.182  15.419  0.0662  0.5385  0.3051
13111TIP3    H260749   0.308   5.034  15.443  0.5119  0.6536  0.5952
13112TIP3   OH260750   2.011   0.626   2.862  0.1682 -0.0042 -0.0279
13112TIP3    H160751   2.051   0.585   2.939  0.2643 -0.5309 -0.3551
13112TIP3    H260752   2.072   0.696   2.838  0.2211  0.0566  0.2764
13113TIP3   OH260753   5.798   0.649  12.029  0.1154 -0.4503  0.2030
13113TIP3    H160754   5.727   0.602  12.072 -1.8482  0.7373 -1.5097
13113TIP3    H260755   5.873   0.589  12.033 -1.0807 -1.9391  1.7130
13114TIP3   OH260756   3.877   3.799  16.382 -0.1154 -0.0420  0.0775
13114TIP3    H160757   3.843   3.863  16.319  0.8949  0.1733 -0.2785
13114TIP3    H260758   3.963   3.833  16.406 -0.3276 -0.3328  1.2915
13115TIP3   OH260759   5.556   3.766   2.721  0.2536  0.1889 -0.0412
13115TIP3    H160760   5.544   3.861   2.730  0.9122  0.4115 -1.2145
13115TIP3    H260761   5.501   3.728   2.789  2.2817  1.4913  2.5209
13116TIP3   OH260762   4.284   0.944   4.366 -0.9488 -0.0760 -0.2466
13116TIP3    H160763   4.259   0.927   4.275  1.6287 -0.7714 -0.9018
13116TIP3    H260764   4.359   0.887   4.382  0.9996  2.6287  1.0923
13117TIP3   OH260765   3.198   3.593   3.654  0.1242 -0.0069 -0.5347
13117TIP3    H160766   3.253   3.516   3.642 -0.2953 -0.2146 -1.1798
13117TIP3    H260767   3.122   3.577   3.599  0.2332  1.0572 -1.0267
13118TIP3   OH260768   5.533   4.369   6.215  0.1126 -0.3683  0.2554
13118TIP3    H160769   5.573   4.286   6.190 -0.4627  0.2103 -2.9843
13118TIP3    H260770   5.508   4.410   6.132 -0.9292  2.4105  1.8036
13119TIP3   OH260771   4.102   5.800  14.524  0.6226 -0.0028  0.9716
13119TIP3    H160772   4.045   5.724  14.537  0.8033 -0.0384  1.6361
13119TIP3    H260773   4.190   5.764  14.524  0.6877  0.1563  0.8484
13120TIP3   OH260774   2.857   6.076  13.179 -0.1023  0.0458  0.1880
13120TIP3    H160775   2.942   6.056  13.219 -0.2798 -1.1402 -0.0058
13120TIP3    H260776   2.876   6.086  13.086 -0.3364 -1.3407 -0.0236
13121TIP3   OH260777   1.132   6.629  17.170 -0.4270  0.4686 -0.5963
13121TIP3    H160778   1.054   6.645  17.117  0.2518  1.9423 -1.1996
13121TIP3    H260779   1.198   6.687  17.133  0.1436  1.3961  1.7144
13122TIP3   OH260780   2.822   2.248   3.501  0.4975 -0.3305  0.0584
13122TIP3    H160781   2.783   2.197   3.573  1.5064 -1.0369  0.1227
13122TIP3    H260782   2.836   2.184   3.431  2.8593 -0.4374  0.5623
13123TIP3   OH260783   5.760   5.380  12.274  0.6798  0.3137 -0.4306
13123TIP3    H160784   5.723   5.464  12.301 -0.2180 -0.2480  0.1234
13123TIP3    H260785   5.687   5.319  12.276  0.9255 -0.1367 -2.5411
13124TIP3   OH260786   6.741   3.439  11.809 -0.5876  0.0637  0.3672
13124TIP3    H160787   6.817   3.463  11.862  0.2246  0.1098 -0.7597
13124TIP3    H260788   6.710   3.356  11.846  0.6002 -0.4408  0.2826
13125TIP3   OH260789   1.172   1.538  12.266 -0.6582 -0.4025  0.3397
13125TIP3    H160790   1.224   1.616  12.248  0.5172 -1.0213  0.8950
13125TIP3    H260791   1.106   1.567  12.329  0.5112 -0.0875  1.4696
13126TIP3   OH260792   6.655   3.112  15.300  0.0055  0.3344 -0.2628
13126TIP3    H160793   6.692   3.039  15.251  2.5745  0.6405  1.0430
13126TIP3    H260794   6.703   3.189  15.269  0.4209  0.7911  1.3929
13127TIP3   OH260795   0.726   1.464  12.764  0.1091 -0.1458 -0.3321
13127TIP3    H160796   0.736   1.479  12.669 -2.9239 -0.5166 -0.7933
13127TIP3    H260797   0.703   1.550  12.799 -1.5100 -0.5084 -0.4278
13128TIP3   OH260798   2.472   2.558   1.142  0.5250  0.2720 -0.2684
13128TIP3    H160799   2.414   2.623   1.102 -0.7472 -1.4304 -1.3182
13128TIP3    H260800   2.416   2.510   1.204  0.8140 -1.2584 -1.1414
13129TIP3   OH260801   3.326   4.565   4.291 -0.1242  0.0292 -0.1573
13129TIP3    H160802   3.293   4.475   4.291  0.9035 -0.3658  0.3280
13129TIP3    H260803   3.248   4.619   4.280 -0.6846 -0.9384 -1.2008
13130TIP3   OH260804   3.173   3.706   1.714 -0.1497  0.1159  0.5355
13130TIP3    H160805   3.157   3.708   1.808  1.5366  0.8867  0.8418
13130TIP3    H260806   3.087   3.715   1.675 -0.8520  0.0922  2.0017
13131TIP3   OH260807   2.748   0.147   4.112  0.0861 -0.1869 -0.1496
13131TIP3    H160808   2.679   0.080   4.113 -1.3455  1.2283 -0.2220
13131TIP3    H260809   2.791   0.136   4.027 -1.7411  0.5213 -1.2081
13132TIP3   OH260810   0.740   1.971   0.017 -0.7803  0.5114  0.0190
13132TIP3    H160811   0.808   1.913  -0.017 -1.8885 -0.8890  0.0956
13132TIP3    H260812   0.667   1.913   0.038 -1.7365  1.8793  0.6438
13133TIP3   OH260813   3.075   0.811  11.350 -0.0100 -0.6711  0.2956
13133TIP3    H160814   3.136   0.802  11.423  0.4915 -2.6046 -0.3009
13133TIP3    H260815   3.084   0.729  11.302 -1.1712  0.0942 -1.2937
13134TIP3   OH260816   1.511   4.925  15.538  0.3876  0.3017  0.1875
13134TIP3    H160817   1.549   4.993  15.594 -0.9104  1.2884 -0.1006
13134TIP3    H260818   1.538   4.949  15.450  0.6910 -0.0736  0.1789
13135TIP3   OH260819   4.623   4.341  14.628  0.1935  0.2417 -0.1937
13135TIP3    H160820   4.539   4.374  14.598 -1.1269 -1.4558  1.3594
13135TIP3    H260821   4.619   4.347  14.723  2.0785  0.6047 -0.0861
13136TIP3   OH260822   3.651   2.037  16.695  0.2431 -0.3540 -0.8276
13136TIP3    H160823   3.715   1.969  16.678  0.2194 -0.1056 -2.0400
13136TIP3    H260824   3.567   1.990  16.701  0.3160 -0.4986 -0.9437
13137TIP3   OH260825   4.916   3.505   4.384  0.3263 -0.3642  0.2154
13137TIP3    H160826   4.897   3.550   4.466 -0.3305 -1.8665  0.9201
13137TIP3    H260827   4.870   3.557   4.317  0.1514  0.3809  0.8993
13138TIP3   OH260828   0.695   5.572   1.306  0.6030  0.6250  0.3851
13138TIP3    H160829   0.620   5.527   1.347  0.4794  1.3704  0.9915
13138TIP3    H260830   0.747   5.604   1.380  0.6086  1.6188 -0.0443
13139TIP3   OH260831   4.305   3.948   6.461  0.1586 -0.3722  0.4127
13139TIP3    H160832   4.322   3.989   6.546 -1.3223 -1.6304  1.3670
13139TIP3    H260833   4.295   3.855   6.481 -2.1245 -0.4603 -0.8083
13140TIP3   OH260834   2.862   6.444  11.772  0.6748  0.6629  0.0941
13140TIP3    H160835   2.886   6.386  11.845  0.5050  0.2648 -0.1630
13140TIP3    H260836   2.808   6.512  11.813  0.9450  0.6917  0.4121
13141TIP3   OH260837   6.248   5.195   0.707 -0.0345  0.2433  0.1151
13141TIP3    H160838   6.301   5.240   0.773 -1.2508 -1.3848  2.3232
13141TIP3    H260839   6.274   5.104   0.713 -1.9704 -0.3432  0.1802
13142TIP3   OH260840   6.522   5.112   2.143  0.0192  0.7009  0.4831
13142TIP3    H160841   6.470   5.143   2.068 -1.2357  0.1116  1.0816
13142TIP3    H260842   6.479   5.031   2.169  0.7762  0.6203  1.5176
13143TIP3   OH260843   0.187   0.234   0.187 -0.1719  0.6990  0.4330
13143TIP3    H160844   0.169   0.194   0.102 -1.6388  0.7750  0.6723
13143TIP3    H260845   0.208   0.325   0.167 -0.0108  0.5930  0.1148
13144TIP3   OH260846   2.455   6.404   2.768  0.3702  0.4687  0.5294
13144TIP3    H160847   2.423   6.480   2.818 -1.3787 -0.6483  1.1827
13144TIP3    H260848   2.391   6.335   2.785  0.9781 -0.6620 -1.4353
13145TIP3   OH260849   4.658   1.212  12.546 -0.2928 -0.8798  0.3679
13145TIP3    H160850   4.610   1.129  12.545 -2.5526  0.3431  0.8807
13145TIP3    H260851   4.628   1.258  12.469  0.7229 -0.3874  0.2513
13146TIP3   OH260852   2.779   2.735  15.945 -0.1501  0.1198  0.3431
13146TIP3    H160853   2.717   2.704  16.010 -0.2185  0.0136  0.2261
13146TIP3    H260854   2.767   2.677  15.870  0.7015 -0.4663  0.6404
13147TIP3   OH260855   6.790   3.221   5.365  0.0266  0.2877 -0.0922
13147TIP3    H160856   6.864   3.280   5.349 -0.4966  1.0248  0.1218
13147TIP3    H260857   6.792   3.207   5.460 -1.0426  1.6279  0.1714
13148TIP3   OH260858   5.494   2.440  15.585 -0.5698  0.2315 -0.0723
13148TIP3    H160859   5.534   2.519  15.547 -0.7467  0.2760 -0.1653
13148TIP3    H260860   5.566   2.398  15.632  0.2070 -0.9160 -2.1642
13149TIP3   OH260861   2.472   4.332  10.537  0.3444 -0.1917  0.8727
13149TIP3    H160862   2.537   4.270  10.570  0.7248 -0.2872 -0.0116
13149TIP3    H260863   2.388   4.291  10.554  0.5764 -0.7460  0.7161
13150TIP3   OH260864   6.440   5.924  10.740 -0.6244 -0.7950  0.0581
13150TIP3    H160865   6.533   5.936  10.724 -0.3638  0.2087  2.0631
13150TIP3    H260866   6.397   5.972  10.668  0.4041  0.1486  0.0492
13151TIP3   OH260867   1.010   3.268   1.968  0.6348  0.0541  0.2060
13151TIP3    H160868   1.082   3.213   1.995  1.0552  1.3301  1.8795
13151TIP3    H260869   0.948   3.265   2.041 -0.2838  0.1909 -0.5413
13152TIP3   OH260870   2.588   3.042  11.861 -0.2426 -0.3821 -0.7918
13152TIP3    H160871   2.533   3.003  11.793  0.1646 -1.4108 -0.5522
13152TIP3    H260872   2.659   3.085  11.814 -0.5668 -0.1299 -1.0539
13153TIP3   OH260873   5.628   3.199   5.806  0.6596 -0.0749  0.0326
13153TIP3    H160874   5.597   3.282   5.767 -3.2261 -0.3763  2.0013
13153TIP3    H260875   5.651   3.222   5.896  3.9238 -0.4841 -0.5552
13154TIP3   OH260876   5.936   4.691   3.465  0.1311 -0.3947 -0.4684
13154TIP3    H160877   5.922   4.719   3.374 -1.2716  0.6217  0.0267
13154TIP3    H260878   5.856   4.717   3.510  0.6326 -1.2830  0.9797
13155TIP3   OH260879   4.677   0.610  14.991 -0.0261 -0.7495 -0.1198
13155TIP3    H160880   4.655   0.703  14.980  0.1730 -0.6634  0.1935
13155TIP3    H260881   4.755   0.598  14.937 -0.7663 -1.0372 -1.1716
13156TIP3   OH260882   3.286   2.287   0.907 -0.3152  0.3715  0.0965
13156TIP3    H160883   3.244   2.348   0.968 -2.5927 -0.6985 -0.2920
13156TIP3    H260884   3.317   2.342   0.835  0.7375  1.4257  1.2985
13157TIP3   OH260885   5.419   0.433  15.322  0.2332 -0.4833  0.1166
13157TIP3    H160886   5.367   0.512  15.313 -0.1720 -0.7063  0.4600
13157TIP3    H260887   5.461   0.421  15.237 -0.8567 -0.7033 -0.3986
13158TIP3   OH260888   0.422   4.752   4.202 -0.5111 -0.2157 -0.1220
13158TIP3    H160889   0.400   4.692   4.272  1.8302 -0.1859  0.7426
13158TIP3    H260890   0.482   4.815   4.242 -0.8979  1.1849 -1.6123
13159TIP3   OH260891   1.944   5.621  11.225 -0.2029  0.2095  0.4380
13159TIP3    H160892   1.931   5.571  11.305 -0.7933 -2.1150 -1.0176
13159TIP3    H260893   1.875   5.687  11.227  0.5842  1.0360  2.4061
13160TIP3   OH260894   4.844   3.268  12.388  0.5303  0.3458  0.0112
13160TIP3    H160895   4.845   3.286  12.482 -0.2950  0.3533  0.0271
13160TIP3    H260896   4.925   3.308  12.355  1.4720 -0.7377  0.9042
13161TIP3   OH260897   2.754   0.215   2.625 -0.1374 -0.1727 -0.0245
13161TIP3    H160898   2.845   0.190   2.640 -0.4877 -0.5409  1.6813
13161TIP3    H260899   2.706   0.133   2.627 -0.8304  0.2406  1.8584
13162TIP3   OH260900   0.669   4.047   1.238  0.2850 -0.1721  0.1709
13162TIP3    H160901   0.623   4.097   1.170  1.8348  1.2896  0.1079
13162TIP3    H260902   0.641   4.087   1.320 -0.7494 -1.2184  0.3518
13163TIP3   OH260903   2.158   3.059   0.364  0.5960 -0.1459  0.5100
13163TIP3    H160904   2.248   3.092   0.374  0.1384  0.6686  2.3044
13163TIP3    H260905   2.112   3.090   0.442 -1.6743  0.8226 -1.0971
13164TIP3   OH260906   1.590   2.758   1.305  0.0907 -0.1270  1.0607
13164TIP3    H160907   1.653   2.750   1.234 -0.4573  1.3901  0.3661
13164TIP3    H260908   1.610   2.843   1.345 -1.7137  0.5639  0.5867
13165TIP3   OH260909   5.095   6.628   0.308 -0.2009  0.5327 -0.4736
13165TIP3    H160910   5.115   6.641   0.215 -1.1270  2.1268 -0.4859
13165TIP3    H260911   5.153   6.689   0.354  0.5634 -0.5569  0.0563
13166TIP3   OH260912   1.100   5.780   4.549 -0.1709  1.2190 -0.4161
13166TIP3    H160913   1.067   5.850   4.493  0.4115  1.4316 -0.5031
13166TIP3    H260914   1.080   5.808   4.638 -2.6091  0.1088 -0.5381
13167TIP3   OH260915   3.216   4.511  15.140 -0.5656  0.2561  0.2423
13167TIP3    H160916   3.292   4.500  15.083 -0.9450 -0.2306 -0.1777
13167TIP3    H260917   3.213   4.605  15.158  0.0647  0.2941  0.1673
13168TIP3   OH260918   2.368   1.786   0.600  0.4677 -0.5870 -0.0660
13168TIP3    H160919   2.388   1.787   0.694  0.6027 -0.2781 -0.0970
13168TIP3    H260920   2.413   1.863   0.565  0.1847 -0.5444 -0.3371
13169TIP3   OH260921   3.395   3.609  14.160 -0.2353 -0.3250 -0.1143
13169TIP3    H160922   3.434   3.523  14.179  0.9952  0.3536  0.5565
13169TIP3    H260923   3.456   3.672  14.199 -0.7749  0.8890 -1.1828
13170TIP3   OH260924   2.522   3.869  16.396  0.1036  0.0055 -0.1466
13170TIP3    H160925   2.558   3.847  16.310 -0.9882  1.3229 -0.9725
13170TIP3    H260926   2.532   3.964  16.403  0.0465 -0.0670  1.1361
13171TIP3   OH260927   2.623   0.117   4.434  0.1075 -0.1096 -0.1026
13171TIP3    H160928   2.706   0.138   4.392 -0.0707 -0.1253 -0.4744
13171TIP3    H260929   2.644   0.046   4.494  0.5910  0.7015  0.7083
13172TIP3   OH260930   3.750   2.668   0.764  0.3097 -0.4715 -0.1838
13172TIP3    H160931   3.746   2.760   0.790 -1.9374 -0.9553  1.5393
13172TIP3    H260932   3.704   2.621   0.834  0.8982 -2.8651 -1.2701
13173TIP3   OH260933   6.216   5.937  16.073 -0.4932 -0.1871 -0.1801
13173TIP3    H160934   6.161   5.963  15.998 -0.5703  1.8520  0.5136
13173TIP3    H260935   6.305   5.952  16.043 -0.5327  0.8458  0.1756
13174TIP3   OH260936   1.415   2.938   3.867 -0.1476 -0.1836 -0.0171
13174TIP3    H160937   1.408   3.033   3.877  2.9410  0.0451  1.0272
13174TIP3    H260938   1.357   2.917   3.794 -1.8971  2.2824  0.5388
13175TIP3   OH260939   3.258   0.662  11.856  0.0717 -0.3407  0.1907
13175TIP3    H160940   3.319   0.735  11.847  1.0496 -0.9813  1.2971
13175TIP3    H260941   3.182   0.700  11.900  0.4413  0.0879  0.4720
13176TIP3   OH260942   3.643   5.522  13.045 -0.5520  0.1486  0.1774
13176TIP3    H160943   3.709   5.552  13.108 -0.3161 -0.2993  0.1456
13176TIP3    H260944   3.677   5.439  13.012 -2.3637 -1.4542  2.0973
13177TIP3   OH260945   3.113   1.025   4.935  0.4889  0.4464 -0.0311
13177TIP3    H160946   3.200   0.986   4.927  1.0327  1.3650  1.0892
13177TIP3    H260947   3.095   1.061   4.848  0.3894 -1.3942 -0.8065
13178TIP3   OH260948   4.440   0.399   4.116  0.1391  0.7681 -0.3444
13178TIP3    H160949   4.376   0.456   4.074 -0.7633  0.2855  0.3507
13178TIP3    H260950   4.444   0.431   4.206  1.5818  1.3862 -0.5931
13179TIP3   OH260951   1.156   0.304  16.248  0.2590 -0.4926  0.1989
13179TIP3    H160952   1.130   0.212  16.247 -2.0448  0.0150  2.5789
13179TIP3    H260953   1.130   0.337  16.162  1.3163 -2.0545 -0.7729
13180TIP3   OH260954   5.855   3.526   1.648  0.1187  0.2749  0.2733
13180TIP3    H160955   5.810   3.560   1.571  0.2780  1.2007  0.5734
13180TIP3    H260956   5.787   3.481   1.698 -0.2216  0.6322  0.1362
13181TIP3   OH260957   5.813   2.469   4.068 -0.1076 -0.3834 -0.3807
13181TIP3    H160958   5.768   2.448   3.986  0.1980  0.8526 -0.8948
13181TIP3    H260959   5.775   2.553   4.095  1.6913  0.5995 -0.7358
13182TIP3   OH260960   3.781   4.548  12.698  0.4188  0.3471 -0.1024
13182TIP3    H160961   3.780   4.458  12.665  1.4837  0.5626 -0.7656
13182TIP3    H260962   3.867   4.582  12.672  1.6766  0.3248  3.5143
13183TIP3   OH260963   3.555   3.942   6.298 -0.3484  0.3847  0.0187
13183TIP3    H160964   3.532   3.850   6.316 -0.4826  0.7969  2.1653
13183TIP3    H260965   3.474   3.980   6.264 -0.6738  0.0016  0.3457
13184TIP3   OH260966   5.125   3.324   1.489 -0.3413  0.0677  0.1062
13184TIP3    H160967   5.070   3.386   1.442 -0.4751  0.1467  0.3613
13184TIP3    H260968   5.189   3.295   1.425  1.3744  2.4234  0.6109
13185TIP3   OH260969   3.585   4.134  16.960  0.4832 -0.7285 -0.1072
13185TIP3    H160970   3.636   4.111  16.882 -1.1522  1.0707 -1.8156
13185TIP3    H260971   3.510   4.075  16.958 -0.8058  0.8539 -1.3388
13186TIP3   OH260972   2.706   1.508  13.192 -0.4410 -0.1168  0.3381
13186TIP3    H160973   2.617   1.517  13.159 -0.7235 -1.8052  0.5944
13186TIP3    H260974   2.743   1.596  13.184 -2.2584  0.7168  0.6327
13187TIP3   OH260975   5.013   4.381  12.372  0.2047 -0.0800 -0.3519
13187TIP3    H160976   5.033   4.457  12.317  0.3251  0.3207  0.2345
13187TIP3    H260977   5.049   4.306  12.324  2.1754  0.4874  0.1317
13188TIP3   OH260978   6.346   1.010   2.954 -0.2516 -0.3394  0.3357
13188TIP3    H160979   6.387   1.056   3.028  0.4417 -0.3498 -0.0304
13188TIP3    H260980   6.349   0.918   2.979 -0.8458 -0.2655  0.6882
13189TIP3   OH260981   0.496   4.244   3.750 -0.4403 -0.3560 -0.1306
13189TIP3    H160982   0.451   4.316   3.794  0.7040 -0.8502  1.9896
13189TIP3    H260983   0.581   4.281   3.724  0.9846 -1.3392  2.7528
13190TIP3   OH260984   1.622   6.651  10.420  0.0925 -0.0849 -0.1037
13190TIP3    H160985   1.693   6.601  10.380  0.7551  0.7278  0.0155
13190TIP3    H260986   1.651   6.664  10.511  0.9410  2.2026 -0.6057
13191TIP3   OH260987   1.818   1.033   3.631 -0.0913 -0.6898  0.1686
13191TIP3    H160988   1.814   1.009   3.723 -1.4064  1.5220  0.7433
13191TIP3    H260989   1.814   0.949   3.584 -1.9096 -1.7346  2.0562
13192TIP3   OH260990   4.619   1.098  16.449 -0.2242 -0.0261  0.4649
13192TIP3    H160991   4.543   1.063  16.495  0.0317 -1.4449 -0.1711
13192TIP3    H260992   4.620   1.054  16.365  1.1280  0.2014  0.3350
13193TIP3   OH260993   1.611   2.208   5.489  0.3816 -0.1700 -0.6189
13193TIP3    H160994   1.663   2.130   5.469  1.2957  0.3854 -0.4529
13193TIP3    H260995   1.615   2.260   5.409 -0.5970 -0.4735 -0.8869
13194TIP3   OH260996   2.343   5.658   3.518  0.2540  0.0115  0.1910
13194TIP3    H160997   2.409   5.656   3.449  0.7125  2.2920  0.4728
13194TIP3    H260998   2.259   5.654   3.472  0.4761 -2.7964 -0.1722
13195TIP3   OH260999   2.637   4.806  15.898 -0.2152 -0.2441 -0.1656
13195TIP3    H161000   2.701   4.832  15.832  0.9846 -0.9605  0.6745
13195TIP3    H261001   2.573   4.877  15.900  1.4914  1.3465  0.1859
13196TIP3   OH261002   3.629   6.474  12.627  0.3879  0.6700 -0.2822
13196TIP3    H161003   3.696   6.406  12.615 -0.2581 -0.1762  0.6788
13196TIP3    H261004   3.644   6.508  12.715  0.7569  1.8694 -0.7869
13197TIP3   OH261005   1.906   0.483   0.578  0.6067  0.7707  0.6296
13197TIP3    H161006   1.950   0.554   0.531  1.1973 -0.2550 -0.4135
13197TIP3    H261007   1.829   0.524   0.617  1.4749  2.2079  0.9281
13198TIP3   OH261008   3.366   3.948  17.062 -0.5145  0.5761  0.6020
13198TIP3    H161009   3.382   3.989  17.148 -0.6720  0.3570  0.7369
13198TIP3    H261010   3.367   3.854  17.080 -0.0104  0.5178  0.2627
13199TIP3   OH261011   0.201   5.642   4.105  0.1002  0.2658  0.2011
13199TIP3    H161012   0.126   5.674   4.154 -0.9276  0.2071 -1.2667
13199TIP3    H261013   0.234   5.568   4.155  0.7361  1.7873  2.1490
13200TIP3   OH261014   0.645   2.648  15.989 -0.1373 -0.0744 -0.8210
13200TIP3    H161015   0.614   2.565  15.954 -0.1805 -0.5222  0.2293
13200TIP3    H261016   0.724   2.625  16.039 -0.6520  0.3520  0.2306
13201TIP3   OH261017   0.343   2.266   1.660 -0.2292  0.5730  0.0770
13201TIP3    H161018   0.255   2.303   1.657 -1.1890 -1.6153 -1.0390
13201TIP3    H261019   0.330   2.176   1.689  1.3759 -0.4375 -2.1144
13202TIP3   OH261020   1.924   6.127  12.578  0.4651  0.4018 -0.3406
13202TIP3    H161021   1.889   6.075  12.506 -0.3548  0.9290 -0.3345
13202TIP3    H261022   1.922   6.068  12.654 -1.5719  0.7540 -0.0594
13203TIP3   OH261023   4.877   4.872  11.855 -0.3758  0.2093 -0.2918
13203TIP3    H161024   4.790   4.903  11.831  0.1864  2.2009  0.0138
13203TIP3    H261025   4.936   4.917  11.793  0.4373 -1.1252 -0.5221
13204TIP3   OH261026   0.451   4.579  11.811  0.1350  0.2520 -0.1421
13204TIP3    H161027   0.365   4.622  11.808 -0.4250 -0.8619 -0.9397
13204TIP3    H261028   0.463   4.554  11.902 -0.5012  0.2249 -0.0613
13205TIP3   OH261029   5.559   5.490  12.071 -0.4302 -0.1021  0.0114
13205TIP3    H161030   5.637   5.434  12.078 -1.8334 -2.0678  0.5032
13205TIP3    H261031   5.533   5.483  11.980 -1.2630 -1.1960  0.3229
13206TIP3   OH261032   2.857   2.399  11.899 -0.0576 -0.1497 -0.0538
13206TIP3    H161033   2.907   2.339  11.844 -0.9531 -1.2083  0.2359
13206TIP3    H261034   2.922   2.438  11.957  0.7334  0.1595 -1.1233
13207TIP3   OH261035   6.188   1.246  16.846  0.1555  0.0315  0.3524
13207TIP3    H161036   6.257   1.302  16.883  1.2464 -0.7647 -0.3988
13207TIP3    H261037   6.137   1.218  16.922  0.0607  1.3989  0.8239
13208TIP3   OH261038   5.826   4.915   2.629 -0.0485 -0.1500  1.3387
13208TIP3    H161039   5.844   4.934   2.537  0.3178 -0.1582  1.4058
13208TIP3    H261040   5.732   4.898   2.633 -0.1636  0.4102  1.0611
13209TIP3   OH261041   2.631   3.044   0.665  0.0810  0.1081 -0.3892
13209TIP3    H161042   2.635   3.040   0.761 -0.1676  0.2969 -0.3701
13209TIP3    H261043   2.666   3.130   0.643  0.8150 -0.2155 -0.5121
13210TIP3   OH261044   5.266   2.581   4.888 -0.3530 -0.1194  0.6335
13210TIP3    H161045   5.264   2.576   4.984 -1.6046  1.4137  0.7226
13210TIP3    H261046   5.176   2.603   4.863  0.0385 -0.1178 -0.8845
13211TIP3   OH261047   6.686   5.593  16.210 -0.1856 -0.2923  0.9161
13211TIP3    H161048   6.695   5.570  16.302 -0.8076 -0.8833  0.8325
13211TIP3    H261049   6.611   5.651  16.206 -0.7883 -1.0756  0.6541
13212TIP3   OH261050   1.381   5.714  12.844  0.5036 -0.1463 -0.4063
13212TIP3    H161051   1.426   5.666  12.775  1.8732  1.3693 -0.6221
13212TIP3    H261052   1.317   5.768  12.798  1.2959  0.7324 -0.5038
13213TIP3   OH261053   0.043   4.054   4.750  0.2194  0.0992  0.5002
13213TIP3    H161054  -0.006   3.974   4.730 -0.4278  0.9776 -1.7534
13213TIP3    H261055  -0.020   4.109   4.797  0.5559 -0.5400  1.7389
13214TIP3   OH261056   6.226   2.582  15.103  0.1861  0.4480 -0.2897
13214TIP3    H161057   6.165   2.570  15.030 -0.2520 -1.4685  0.3376
13214TIP3    H261058   6.218   2.675  15.126 -1.3163  0.5919 -1.2487
13215TIP3   OH261059   4.474   6.725   0.019  0.2692 -0.2268 -0.3071
13215TIP3    H161060   4.431   6.648   0.055 -2.6550  0.2936 -2.2812
13215TIP3    H261061   4.426   6.799   0.058 -1.0040  0.3766 -2.8153
13216TIP3   OH261062   1.308   6.553  10.520 -0.3025 -0.0228  0.2504
13216TIP3    H161063   1.327   6.640  10.486  0.1645  0.1611  0.9620
13216TIP3    H261064   1.217   6.536  10.494 -1.1201  1.5499  1.9254
13217TIP3   OH261065   5.216   2.251   6.465 -0.6516  0.0418  0.3982
13217TIP3    H161066   5.163   2.330   6.467 -0.9122 -0.1213  0.0765
13217TIP3    H261067   5.164   2.186   6.513  0.4271  0.5758  2.4181
13218TIP3   OH261068   1.402   1.910   1.349  0.3383 -0.0882 -0.3435
13218TIP3    H161069   1.320   1.959   1.358  0.6386  0.6537 -1.4570
13218TIP3    H261070   1.423   1.882   1.438 -0.8722  0.1118  0.0271
13219TIP3   OH261071   5.730   5.661  13.037  0.0773 -0.1279 -0.4699
13219TIP3    H161072   5.726   5.588  12.975 -0.5262  0.1238 -0.7410
13219TIP3    H261073   5.666   5.639  13.104 -0.9863  0.6962 -1.1809
13220TIP3   OH261074   4.367   2.160  15.403 -0.3604  0.7968  0.4170
13220TIP3    H161075   4.311   2.131  15.475  0.4678  0.1911  0.8254
13220TIP3    H261076   4.406   2.241  15.435  0.4443  0.2353  0.8915
13221TIP3   OH261077   4.455   0.924   4.078 -0.1823  0.1655  0.1521
13221TIP3    H161078   4.390   0.985   4.043 -1.7679 -1.8714 -0.6042
13221TIP3    H261079   4.539   0.968   4.061 -1.2706  2.8267  1.0715
13222TIP3   OH261080   4.903   3.564   5.022  0.2130 -0.1247  0.2313
13222TIP3    H161081   4.899   3.469   5.017 -0.2758 -0.1175  0.4305
13222TIP3    H261082   4.986   3.582   5.067  0.6174 -0.4290 -0.3763
13223TIP3   OH261083   2.668   2.033  16.959 -0.1305  0.1582  0.0478
13223TIP3    H161084   2.582   2.075  16.955 -0.9131 -1.4618 -2.0342
13223TIP3    H261085   2.722   2.083  16.898 -0.0283  0.2905  0.2477
13224TIP3   OH261086   5.321   4.169   2.143  0.1989 -0.4067 -0.1315
13224TIP3    H161087   5.359   4.217   2.070 -0.2816 -0.7849 -0.6378
13224TIP3    H261088   5.366   4.084   2.143 -1.5566 -1.4069 -1.6104
13225TIP3   OH261089   0.686   4.247  15.490 -0.5420 -0.0041 -0.6757
13225TIP3    H161090   0.698   4.176  15.552  0.0259 -1.2162 -2.0902
13225TIP3    H261091   0.758   4.307  15.508 -0.9983  0.1972  0.5089
13226TIP3   OH261092   5.124   0.020   4.391  0.3385 -0.3482 -0.1042
13226TIP3    H161093   5.110   0.087   4.324 -2.0303 -0.1827  0.4653
13226TIP3    H261094   5.205   0.047   4.435  1.2040  0.2871 -1.9647
13227TIP3   OH261095   5.071   4.680  13.615 -0.0635  0.4520  0.0392
13227TIP3    H161096   5.049   4.754  13.672 -4.0558  0.6044 -1.4309
13227TIP3    H261097   5.017   4.608  13.648 -0.4363 -0.2031 -1.9099
13228TIP3   OH261098   2.881   1.657  14.712 -0.1879 -0.1797  0.9926
13228TIP3    H161099   2.822   1.730  14.695  1.8785  1.7250  1.5089
13228TIP3    H261100   2.831   1.579  14.689 -2.2870  1.4224 -0.1465
13229TIP3   OH261101   4.150   3.251   3.691  0.2253  0.7792  0.2408
13229TIP3    H161102   4.113   3.202   3.618 -1.0296 -0.3775  1.5828
13229TIP3    H261103   4.180   3.333   3.653 -1.5008  0.7252 -1.3390
13230TIP3   OH261104   5.103   0.318   1.885  0.5100 -0.0868  0.0642
13230TIP3    H161105   5.111   0.414   1.879 -0.4180 -0.0531 -0.8869
13230TIP3    H261106   5.059   0.303   1.969 -2.4615  0.5668 -1.2450
13231TIP3   OH261107   5.059   5.950   6.029 -0.1135 -0.1657 -0.5766
13231TIP3    H161108   5.062   5.854   6.034  0.5555 -0.2864 -2.4919
13231TIP3    H261109   5.062   5.979   6.120  2.0334 -1.9249  0.0101
13232TIP3   OH261110   6.246   4.134   3.150  0.2157 -0.3789  0.1645
13232TIP3    H161111   6.223   4.088   3.230  0.5716 -0.7646  0.0471
13232TIP3    H261112   6.215   4.223   3.164 -0.7215 -0.7201  0.2799
13233TIP3   OH261113   5.289   3.637  11.375 -0.5587  0.0307 -0.3508
13233TIP3    H161114   5.246   3.719  11.399 -1.0387 -0.2526 -0.2362
13233TIP3    H261115   5.382   3.654  11.390 -0.6245  0.6598 -0.6415
13234TIP3   OH261116   6.369   0.554   4.415  0.1265  0.0416  0.0251
13234TIP3    H161117   6.432   0.614   4.375  0.1678 -0.1440 -0.1855
13234TIP3    H261118   6.284   0.584   4.384 -0.0521  1.4165  1.7348
13235TIP3   OH261119   5.184   4.721   2.307  0.0340  0.3616  1.0151
13235TIP3    H161120   5.243   4.785   2.269 -0.7440 -0.4391 -1.7684
13235TIP3    H261121   5.098   4.763   2.307  0.0356  0.4183  2.1896
13236TIP3   OH261122   2.653   5.157  16.537  0.4585  0.4567 -0.2224
13236TIP3    H161123   2.654   5.191  16.626 -0.7704  1.9759 -0.7599
13236TIP3    H261124   2.639   5.063  16.547 -1.5857  0.8654  1.1325
13237TIP3   OH261125   2.708   2.639  14.477 -1.1540  0.5301  0.2028
13237TIP3    H161126   2.777   2.594  14.526 -0.5123  0.5568 -0.6503
13237TIP3    H261127   2.729   2.621  14.385 -2.2092  0.6573 -0.0761
13238TIP3   OH261128   1.160   0.658   6.302  0.0454  0.5077  0.1581
13238TIP3    H161129   1.152   0.566   6.278  1.7325  0.3155  0.2123
13238TIP3    H261130   1.193   0.700   6.223  1.4399  0.6448  0.7806
13239TIP3   OH261131   3.080   2.059  12.797  0.2007 -0.1423  0.1298
13239TIP3    H161132   3.131   1.993  12.845  3.0196  1.9733  0.2730
13239TIP3    H261133   3.145   2.119  12.761 -2.1664  1.9885 -0.9309
13240TIP3   OH261134   3.678   2.888  17.075 -0.3799  0.2486 -0.0368
13240TIP3    H161135   3.749   2.932  17.028 -0.5265 -0.0925 -0.5921
13240TIP3    H261136   3.696   2.794  17.064 -1.1769  0.1535 -0.6023
13241TIP3   OH261137   4.759   1.793  15.769  0.6519 -0.4265 -0.1114
13241TIP3    H161138   4.729   1.707  15.742 -0.0027 -1.3242  3.0277
13241TIP3    H261139   4.854   1.790  15.759  0.6315 -1.5036 -0.1193
13242TIP3   OH261140   0.948   2.987  15.080 -0.0060 -0.3118 -0.1721
13242TIP3    H161141   1.040   2.967  15.101 -0.3151 -0.3217  1.2513
13242TIP3    H261142   0.909   2.902  15.060 -0.3545 -0.6867  1.9523
13243TIP3   OH261143   0.076   2.047   2.964 -0.1168 -0.2079  0.5650
13243TIP3    H161144   0.029   2.060   2.882  0.7628 -0.8190 -0.0469
13243TIP3    H261145   0.008   2.030   3.028 -0.8515  0.7655  0.0713
13244TIP3   OH261146   5.051   5.861  15.619 -0.2068 -1.0790  0.5357
13244TIP3    H161147   4.973   5.914  15.636 -0.0114  0.0027 -1.6077
13244TIP3    H261148   5.110   5.883  15.691 -0.6450  0.6023  0.4213
13245TIP3   OH261149   4.358   5.289   0.966  0.1114  0.3000  0.0813
13245TIP3    H161150   4.306   5.250   0.896  0.7996 -0.5923  0.0547
13245TIP3    H261151   4.320   5.254   1.047  0.0105  0.4789  0.1138
13246TIP3   OH261152   2.624   1.496   0.742 -0.1345  0.3530 -0.3088
13246TIP3    H161153   2.546   1.441   0.739  0.0881 -0.4686  3.5180
13246TIP3    H261154   2.695   1.438   0.712 -0.1848 -1.0254  1.9757
13247TIP3   OH261155   0.415   1.375   4.885 -0.3797 -0.0008  0.4637
13247TIP3    H161156   0.433   1.282   4.866  0.2742  0.4877 -1.4904
13247TIP3    H261157   0.320   1.379   4.896 -0.4510 -0.8509  0.2461
13248TIP3   OH261158   0.777   6.711  16.138  0.2786  0.3204  0.0922
13248TIP3    H161159   0.714   6.702  16.065 -1.8468  2.7246  1.4536
13248TIP3    H261160   0.805   6.803  16.133  1.3293  0.0806  1.3583
13249TIP3   OH261161   0.860   1.206  12.732  0.0163 -0.1158  0.3989
13249TIP3    H161162   0.827   1.265  12.800 -0.1468  0.2888 -0.0275
13249TIP3    H261163   0.875   1.262  12.657  0.5453 -0.5036  0.2115
13250TIP3   OH261164   3.625   3.752  13.354  0.4658  0.3638 -0.7330
13250TIP3    H161165   3.618   3.747  13.259  0.5162  0.4797 -0.7436
13250TIP3    H261166   3.571   3.680  13.387  1.5962 -0.5992 -0.8943
13251TIP3   OH261167   1.751   4.978  17.193  0.2689 -0.3743 -0.1484
13251TIP3    H161168   1.690   5.031  17.142  0.8275 -0.2751 -0.7176
13251TIP3    H261169   1.791   5.039  17.255 -0.9980 -0.6406  1.0058
13252TIP3   OH261170   5.977   5.841  14.718  0.5988  0.6472  0.0884
13252TIP3    H161171   5.922   5.910  14.756  1.5861  0.8918  1.1100
13252TIP3    H261172   6.034   5.887  14.656 -0.4283  0.3690 -1.0996
13253TIP3   OH261173   4.383   5.362  13.684  0.1636 -0.1682 -0.1044
13253TIP3    H161174   4.380   5.368  13.779 -0.0611 -0.0598 -0.1174
13253TIP3    H261175   4.424   5.444  13.656  1.8274 -0.9375 -0.0167
13254TIP3   OH261176   2.747   4.186   2.342  0.8109 -0.4814  0.6867
13254TIP3    H161177   2.694   4.247   2.392  1.0114 -0.6241  1.0836
13254TIP3    H261178   2.742   4.216   2.252  1.1957  0.3253  0.9291
13255TIP3   OH261179   4.460   0.489  14.852  0.1904  0.5011  0.8887
13255TIP3    H161180   4.550   0.517  14.869  0.1995  2.5723 -1.9506
13255TIP3    H261181   4.467   0.420  14.787 -0.2538  2.8147 -1.7835
13256TIP3   OH261182   3.606   4.510  16.833  0.2355  0.2483  0.2293
13256TIP3    H161183   3.565   4.577  16.888 -0.1062 -0.7859  1.2755
13256TIP3    H261184   3.540   4.441  16.826  0.1298  0.4997 -1.8073
13257TIP3   OH261185   1.174   1.471   3.069  0.5767 -0.4101 -0.0128
13257TIP3    H161186   1.210   1.423   3.144 -1.1877 -2.5589 -0.4216
13257TIP3    H261187   1.165   1.561   3.101  3.7967 -0.2944  0.8823
13258TIP3   OH261188   5.874   1.696  15.525 -0.4928 -0.4677  0.5127
13258TIP3    H161189   5.788   1.660  15.548 -0.1519 -1.0648  0.8755
13258TIP3    H261190   5.933   1.664  15.594  0.2043 -0.8440 -0.2387
13259TIP3   OH261191   3.502   0.144  11.539 -0.1908  0.3652 -0.0665
13259TIP3    H161192   3.590   0.123  11.509 -0.5579  0.7067 -1.4884
13259TIP3    H261193   3.513   0.175  11.629  1.2039  0.9079 -0.4074
13260TIP3   OH261194   0.198   4.604   1.867 -0.1144  0.1923  0.3743
13260TIP3    H161195   0.178   4.598   1.960 -3.2593 -0.5388 -0.2118
13260TIP3    H261196   0.184   4.696   1.845 -1.5480 -0.0230  0.2786
13261TIP3   OH261197   1.266   5.675   0.775  0.0654  0.3622 -0.0782
13261TIP3    H161198   1.242   5.613   0.843 -1.8049  0.7871 -0.3071
13261TIP3    H261199   1.345   5.718   0.810  0.3223 -0.8285  0.8898
13262TIP3   OH261200   2.277   6.714   1.009  0.4770 -0.2872  0.0753
13262TIP3    H161201   2.239   6.628   1.022  0.2429 -0.1159  0.5288
13262TIP3    H261202   2.299   6.745   1.097  0.0644  0.3374 -0.0344
13263TIP3   OH261203   0.946   6.174  14.240 -0.0297  0.0209 -0.1480
13263TIP3    H161204   0.977   6.121  14.167 -0.1442 -1.1399  0.6121
13263TIP3    H261205   0.870   6.126  14.274  0.6906 -0.0893  1.4245
13264TIP3   OH261206   6.467   2.886   4.304 -1.1787 -0.5090 -0.3089
13264TIP3    H161207   6.475   2.964   4.250 -1.6389  0.1353  0.5310
13264TIP3    H261208   6.538   2.829   4.275  0.1609  0.8791  0.1288
13265TIP3   OH261209   1.555   3.698  16.452 -0.1679  0.1360 -0.4647
13265TIP3    H161210   1.478   3.750  16.476  0.3326  0.8800 -0.4163
13265TIP3    H261211   1.599   3.681  16.536  0.5044  0.9964 -0.6283
13266TIP3   OH261212   0.305   2.580   1.297  0.0779 -0.3240  0.5972
13266TIP3    H161213   0.224   2.529   1.299  0.0388 -0.2675  0.4679
13266TIP3    H261214   0.278   2.668   1.322 -0.0567 -0.0973 -0.2951
13267TIP3   OH261215   4.033   3.697  13.213  0.5548 -0.2348 -0.5497
13267TIP3    H161216   3.988   3.612  13.206  2.4584 -1.4697  1.2114
13267TIP3    H261217   4.121   3.679  13.181  1.1231  0.9542  0.3062
13268TIP3   OH261218   4.051   3.111   3.430 -0.0371  0.3185 -0.3803
13268TIP3    H161219   4.109   3.035   3.421  0.1144  0.2965  0.6677
13268TIP3    H261220   4.050   3.151   3.343 -1.1516 -1.6114 -1.3060
13269TIP3   OH261221   5.839   6.425  12.249 -0.0757 -0.5227  0.0123
13269TIP3    H161222   5.836   6.519  12.268 -0.4543 -0.3518 -0.8067
13269TIP3    H261223   5.911   6.416  12.186 -1.6640 -0.3485 -1.9432
13270TIP3   OH261224   6.132   3.158   5.279  0.2593  0.3344 -0.0037
13270TIP3    H161225   6.050   3.111   5.295  1.0501 -1.2954 -0.5183
13270TIP3    H261226   6.109   3.251   5.288 -1.5663 -0.0983  0.1375
13271TIP3   OH261227   1.621   1.502  14.964  0.1885  0.8072 -0.1356
13271TIP3    H161228   1.712   1.471  14.963  0.5233  1.4837  2.5163
13271TIP3    H261229   1.600   1.517  14.872  2.3707 -0.4601 -0.9087
13272TIP3   OH261230   0.475   2.075  13.573 -0.0509  0.7002 -0.2358
13272TIP3    H161231   0.550   2.016  13.567 -1.4363 -1.3733  1.5095
13272TIP3    H261232   0.429   2.063  13.490 -0.1199 -0.4186 -0.0420
13273TIP3   OH261233   1.127   5.071  15.022 -0.1253 -0.2130 -0.0623
13273TIP3    H161234   1.057   5.136  15.031  0.3644  0.0870  2.0577
13273TIP3    H261235   1.165   5.089  14.936 -2.4906 -0.2670 -1.1994
13274TIP3   OH261236   6.110   3.796  13.239  0.5316 -0.0103  0.7217
13274TIP3    H161237   6.035   3.739  13.252  1.0061 -0.6221  0.8539
13274TIP3    H261238   6.182   3.752  13.285  0.9893  0.5076  0.5177
13275TIP3   OH261239   0.798   6.761  15.562  0.1489  0.0583  0.0319
13275TIP3    H161240   0.772   6.675  15.594  0.5054  0.1474  0.5569
13275TIP3    H261241   0.868   6.789  15.621  1.1767 -0.0011 -1.1089
13276TIP3   OH261242   2.546   3.827   3.802 -0.3987 -0.0466 -0.0163
13276TIP3    H161243   2.600   3.783   3.736 -0.6079  1.5240 -1.2943
13276TIP3    H261244   2.602   3.897   3.836 -1.1174  0.6720 -0.2933
13277TIP3   OH261245   5.868   0.693   4.957  0.4293  0.1517  0.0286
13277TIP3    H161246   5.915   0.630   5.012 -0.4887 -0.9990 -0.4427
13277TIP3    H261247   5.885   0.778   4.997 -1.7064 -0.7717  3.3353
13278TIP3   OH261248   0.345   2.680   6.372  0.8537 -0.1231  0.6102
13278TIP3    H161249   0.431   2.649   6.402  0.1960 -1.9552  0.7369
13278TIP3    H261250   0.347   2.668   6.277 -0.1288 -2.6754  0.8440
13279TIP3   OH261251   0.416   2.060  11.570  0.9608 -0.1542 -0.2822
13279TIP3    H161252   0.345   2.095  11.624 -0.7432 -0.9314 -1.9036
13279TIP3    H261253   0.408   1.965  11.577  0.5414 -0.2810 -2.0441
13280TIP3   OH261254   3.228   3.108  11.870  0.4635  0.3013  0.0335
13280TIP3    H161255   3.222   3.021  11.909 -0.0097  0.7344  0.9741
13280TIP3    H261256   3.292   3.099  11.799  0.1132 -0.8975 -0.1479
13281TIP3   OH261257   5.080   6.374   5.149 -0.3700  0.7348  0.1680
13281TIP3    H161258   5.106   6.388   5.240 -0.9614 -1.0854  0.6541
13281TIP3    H261259   5.149   6.317   5.113 -0.1131  1.4785 -0.5569
13282TIP3   OH261260   4.926   1.999  12.409 -0.7192 -0.6448 -0.0650
13282TIP3    H161261   4.978   1.996  12.490 -1.3600  0.5219  0.4063
13282TIP3    H261262   4.857   2.063  12.426 -1.7017 -1.3944 -1.0601
13283TIP3   OH261263   2.647   4.164  13.177  0.8611  0.0757  0.0772
13283TIP3    H161264   2.603   4.136  13.097  0.7786  0.0419  0.1341
13283TIP3    H261265   2.735   4.188  13.149  1.2051 -1.0488  0.1681
13284TIP3   OH261266   0.200   2.643  13.757  0.0091  0.4058 -0.0334
13284TIP3    H161267   0.116   2.681  13.783  0.1957  0.6220  0.2570
13284TIP3    H261268   0.254   2.646  13.836 -0.1991 -1.1100  0.1947
13285TIP3   OH261269   0.406   6.790  17.078 -0.4935  0.2586  0.1984
13285TIP3    H161270   0.374   6.713  17.125 -0.6233  0.1059 -0.1403
13285TIP3    H261271   0.350   6.861  17.110  0.6566  0.5419  1.7251
13286TIP3   OH261272   4.525   1.522   2.123 -0.8085  0.4093 -0.5427
13286TIP3    H161273   4.467   1.571   2.181 -3.0663 -0.5559 -1.8489
13286TIP3    H261274   4.522   1.432   2.155 -0.7979  0.1704 -1.1923
13287TIP3   OH261275   4.568   6.697  16.608 -0.4457  0.3273 -0.0085
13287TIP3    H161276   4.491   6.743  16.641 -0.6517 -0.5312  0.7450
13287TIP3    H261277   4.638   6.720  16.668  0.0146  1.4430 -0.9333
13288TIP3   OH261278   1.144   3.644  14.639 -0.5000 -0.0195 -0.2218
13288TIP3    H161279   1.083   3.639  14.713 -0.1612  1.3915  0.1803
13288TIP3    H261280   1.202   3.569  14.651  1.0053  1.3937  2.3054
13289TIP3   OH261281   1.084   4.014  13.184  0.8387  0.6575  0.4612
13289TIP3    H161282   1.140   3.977  13.116  1.7190 -0.4003  1.7224
13289TIP3    H261283   1.042   4.089  13.142 -0.1928 -1.0892 -1.8798
13290TIP3   OH261284   1.745   1.170   2.132 -0.3813  0.1142  0.1825
13290TIP3    H161285   1.705   1.149   2.216 -1.1719  0.3421 -0.1268
13290TIP3    H261286   1.713   1.103   2.072 -0.0311  0.1044  0.0013
13291TIP3   OH261287   5.975   0.800   6.442  0.1720  0.5462 -0.2517
13291TIP3    H161288   5.911   0.865   6.472  0.0770  0.2477  0.1966
13291TIP3    H261289   6.007   0.758   6.522  1.2301  0.9680 -0.4324
13292TIP3   OH261290   2.835   2.714   4.934 -0.9670 -0.2166  0.0079
13292TIP3    H161291   2.924   2.693   4.907 -0.8054  0.2157  0.1970
13292TIP3    H261292   2.844   2.794   4.986 -1.0742 -1.7512  2.5770
13293TIP3   OH261293   1.436   4.153  13.030  0.2478  0.1296 -0.3466
13293TIP3    H161294   1.510   4.161  12.970  0.2663  0.3956 -0.2870
13293TIP3    H261295   1.450   4.070  13.075  0.0126 -0.2809 -1.0146
13294TIP3   OH261296   5.782   3.122  11.287 -0.1214  0.2362 -0.0832
13294TIP3    H161297   5.743   3.131  11.201  1.7386 -0.7357 -1.0891
13294TIP3    H261298   5.802   3.029  11.295 -1.1285  0.1318  1.8302
13295TIP3   OH261299   1.941   4.522   1.322  0.8163  0.3130  0.3303
13295TIP3    H161300   1.971   4.472   1.246  1.2408  0.5467  0.3386
13295TIP3    H261301   1.986   4.482   1.396  0.3897  0.0746  0.4628
13296TIP3   OH261302   4.065   4.611  11.627 -0.2190  0.0776  0.4565
13296TIP3    H161303   4.056   4.551  11.552 -3.7270  1.3401 -0.3727
13296TIP3    H261304   4.067   4.554  11.703  0.0608 -1.1720 -0.4480
13297TIP3   OH261305   1.264   5.956   2.504  0.1978  0.0427 -0.7737
13297TIP3    H161306   1.184   6.008   2.506  0.4461  0.4366  0.6922
13297TIP3    H261307   1.236   5.868   2.479 -1.3266 -0.7000  2.8281
13298TIP3   OH261308   6.094   5.819   6.070 -0.3995 -0.6265  0.0602
13298TIP3    H161309   6.079   5.884   6.138  0.0382  0.0010 -0.4306
13298TIP3    H261310   6.107   5.737   6.117 -1.2726 -0.4264  0.6735
13299TIP3   OH261311   5.488   2.597   5.317 -0.4466  0.5522 -0.4122
13299TIP3    H161312   5.420   2.569   5.256  0.3785  0.6788 -1.4172
13299TIP3    H261313   5.528   2.673   5.275 -0.1771  0.9488  0.5277
13300TIP3   OH261314   1.966   1.517   0.727 -0.5883  0.2482  0.1531
13300TIP3    H161315   2.023   1.440   0.723 -2.1084 -0.9343  0.1616
13300TIP3    H261316   1.903   1.504   0.656 -1.2930  1.1366  0.5908
13301TIP3   OH261317   4.129   5.070   0.613 -0.5260  0.3106  0.1370
13301TIP3    H161318   4.157   4.984   0.646  0.0076  0.7445  0.8558
13301TIP3    H261319   4.134   5.128   0.690 -0.0591  1.1735 -0.5257
13302TIP3   OH261320   6.659   3.910   5.542  0.3533 -0.2867 -0.3750
13302TIP3    H161321   6.591   3.879   5.482 -0.6708  1.7458 -0.3699
13302TIP3    H261322   6.668   4.003   5.521  0.5155  0.3230  2.0951
13303TIP3   OH261323   3.378   4.451  14.446 -0.4697 -0.1383 -0.4087
13303TIP3    H161324   3.330   4.515  14.499 -0.7148 -1.6778  1.3385
13303TIP3    H261325   3.309   4.402  14.400 -0.3897 -0.2034 -0.4596
13304TIP3   OH261326   3.911   5.269   5.038  0.4441  0.5810  0.2670
13304TIP3    H161327   3.928   5.348   4.986 -1.5188  1.5551  0.9883
13304TIP3    H261328   3.821   5.245   5.016 -0.3331  0.8196  2.8747
13305TIP3   OH261329   1.163   4.777   2.156  0.1944 -0.5325  0.2543
13305TIP3    H161330   1.108   4.767   2.234 -0.5070  2.5741  0.3127
13305TIP3    H261331   1.116   4.729   2.087 -0.6158 -1.0651  1.1617
13306TIP3   OH261332   3.667   0.301   3.158  0.4829 -0.5945 -0.6883
13306TIP3    H161333   3.713   0.248   3.223 -0.7083  0.3200  0.9854
13306TIP3    H261334   3.645   0.240   3.088  1.3566 -1.7365 -0.0091
13307TIP3   OH261335   0.836   0.774   4.667 -0.3086 -0.5511  0.0080
13307TIP3    H161336   0.770   0.734   4.610 -0.7626  0.3863 -0.1600
13307TIP3    H261337   0.784   0.819   4.734 -0.4073  5.0665 -3.1452
13308TIP3   OH261338   1.639   1.834   3.862  0.3023  0.4589 -0.4443
13308TIP3    H161339   1.552   1.821   3.900  0.4465  0.3278 -0.1554
13308TIP3    H261340   1.626   1.823   3.768 -0.2682  1.8542 -0.5614
13309TIP3   OH261341   0.780   5.550   3.137  0.9228  0.0269  0.1545
13309TIP3    H161342   0.851   5.499   3.099  0.6997  1.1324 -1.8361
13309TIP3    H261343   0.812   5.640   3.139  0.2368  0.2788  0.9326
13310TIP3   OH261344   4.977   3.221   0.127  0.2036  0.0011  0.1419
13310TIP3    H161345   4.956   3.130   0.149 -0.2417 -0.5250 -2.1803
13310TIP3    H261346   4.921   3.273   0.185 -0.2708 -1.2155  0.8120
13311TIP3   OH261347   4.663   2.311  13.894  0.4166 -0.1116 -0.6595
13311TIP3    H161348   4.740   2.255  13.894 -0.0809 -0.8647 -2.2871
13311TIP3    H261349   4.600   2.265  13.950  0.1875 -0.9497 -1.5826
13312TIP3   OH261350   6.766   5.118  11.519 -0.1133 -0.6851 -0.2026
13312TIP3    H161351   6.815   5.114  11.437 -1.0930  0.7012 -0.8895
13312TIP3    H261352   6.676   5.100  11.494 -0.3730 -0.5518  0.6176
13313TIP3   OH261353   6.572   5.956   1.423 -0.1799 -0.2835 -0.1357
13313TIP3    H161354   6.623   6.033   1.398  0.1661 -0.9107 -1.4785
13313TIP3    H261355   6.638   5.890   1.444 -0.4455 -0.7163 -0.6339
13314TIP3   OH261356   5.663   3.620   1.488  0.2762  0.5355 -0.3832
13314TIP3    H161357   5.632   3.709   1.503 -1.0040 -0.0810  0.8175
13314TIP3    H261358   5.591   3.563   1.515  1.2889 -0.8929 -0.5119
13315TIP3   OH261359   0.944   0.071  15.304  0.5242  0.4888 -0.1777
13315TIP3    H161360   0.903   0.005  15.360 -0.2830 -0.3167 -1.6586
13315TIP3    H261361   1.037   0.068  15.328  0.2062  0.1263  1.0584
13316TIP3   OH261362   4.645   1.739  12.523  0.0130 -0.3128  0.3095
13316TIP3    H161363   4.574   1.794  12.490  0.0932 -0.4699 -0.1395
13316TIP3    H261364   4.724   1.789  12.504  0.3282 -1.6794 -2.5836
13317TIP3   OH261365   1.152   2.249   5.552  0.7113  0.3914 -0.1492
13317TIP3    H161366   1.204   2.228   5.475  0.1635  1.7016 -0.9096
13317TIP3    H261367   1.175   2.181   5.616  1.1717 -0.7247 -1.4498
13318TIP3   OH261368   4.533   2.620   2.370  0.1482  0.8039 -0.3367
13318TIP3    H161369   4.533   2.525   2.381  2.9351  0.5638 -1.4557
13318TIP3    H261370   4.605   2.636   2.309  0.1822  3.6914  0.3418
13319TIP3   OH261371   2.226   3.952   3.597  0.2854 -0.1391 -0.7744
13319TIP3    H161372   2.215   4.046   3.585  3.8955  0.4977 -0.3806
13319TIP3    H261373   2.183   3.912   3.522 -2.9889  1.5983  0.0154
13320TIP3   OH261374   6.717   4.004  13.267 -0.2700  0.2090 -0.2385
13320TIP3    H161375   6.773   4.058  13.211 -0.4780  0.3943 -0.2682
13320TIP3    H261376   6.741   3.914  13.244  0.6127  0.2819  0.3484
13321TIP3   OH261377   1.354   1.615  15.840  0.5884  0.3105 -0.0383
13321TIP3    H161378   1.387   1.623  15.750 -0.6198 -0.5820 -0.5884
13321TIP3    H261379   1.359   1.704  15.875 -1.0791  1.1637 -1.7927
13322TIP3   OH261380   2.774   0.027  13.425 -0.5335 -0.2954 -0.5025
13322TIP3    H161381   2.707   0.073  13.475 -0.1095 -0.1181 -0.0883
13322TIP3    H261382   2.857   0.067  13.453 -0.2210 -0.7879 -0.7023
13323TIP3   OH261383   6.215   4.269  11.373  0.3476  0.5711  0.6092
13323TIP3    H161384   6.175   4.312  11.297 -0.3313 -0.5959  0.2826
13323TIP3    H261385   6.197   4.328  11.446  2.5978  2.6571 -0.3591
13324TIP3   OH261386   0.842   4.525  11.524 -0.7199  0.3223 -0.1414
13324TIP3    H161387   0.868   4.611  11.492 -0.2513  0.7608  1.3157
13324TIP3    H261388   0.802   4.542  11.609 -0.0909 -0.9288  0.4384
13325TIP3   OH261389   3.898   4.517  14.761 -0.3439  0.9969 -0.1902
13325TIP3    H161390   3.935   4.496  14.675 -0.7358 -0.0754 -0.1083
13325TIP3    H261391   3.960   4.479  14.823 -2.6772 -3.2075 -0.0291
13326TIP3   OH261392   2.054   2.141  16.232  0.6583 -0.2773 -0.3125
13326TIP3    H161393   2.087   2.064  16.186  0.5654  0.0505 -0.9318
13326TIP3    H261394   1.967   2.156  16.195  0.6585  0.1048 -0.1623
13327TIP3   OH261395   2.472   0.653   2.949  0.0476 -0.2214  0.5402
13327TIP3    H161396   2.560   0.682   2.974  0.5199 -0.4080 -0.8574
13327TIP3    H261397   2.417   0.731   2.960  0.3245 -0.1579  1.6041
13328TIP3   OH261398   2.619   3.391   0.456 -0.2372 -0.1995  0.1626
13328TIP3    H161399   2.590   3.430   0.538  0.0915 -1.0577  0.7034
13328TIP3    H261400   2.670   3.314   0.482 -2.4804 -2.1806 -0.8263
13329TIP3   OH261401   0.921   5.194   0.363  0.0006 -0.0107  0.4356
13329TIP3    H161402   0.855   5.126   0.374 -1.0132  1.0329  0.8945
13329TIP3    H261403   0.887   5.249   0.293 -0.4580  1.5003  1.8040
13330TIP3   OH261404   0.943   0.645   5.054 -0.5676 -0.5242 -0.4398
13330TIP3    H161405   0.852   0.629   5.079 -0.1295 -1.0064  0.8976
13330TIP3    H261406   0.959   0.585   4.981 -1.3695 -0.2845 -0.8289
13331TIP3   OH261407   3.906   4.795  10.577  0.3409 -0.3313 -0.4828
13331TIP3    H161408   3.990   4.756  10.555  1.4385  0.9455  1.1815
13331TIP3    H261409   3.888   4.765  10.666 -0.2606  0.5769 -0.2873
13332TIP3   OH261410   0.775   3.385   6.269 -0.3642 -0.0203  0.1923
13332TIP3    H161411   0.842   3.319   6.251 -0.9273 -0.0692 -2.0358
13332TIP3    H261412   0.819   3.452   6.320  1.1966 -0.3996 -0.6141
13333TIP3   OH261413   4.203   0.604  12.460  0.4616  0.5352  0.3526
13333TIP3    H161414   4.135   0.658  12.501 -0.7000 -1.3426  1.0263
13333TIP3    H261415   4.270   0.595  12.528  0.3461  0.5935  0.4760
13334TIP3   OH261416   2.960   1.913   5.255  0.0061 -0.6825 -0.2796
13334TIP3    H161417   2.879   1.926   5.304 -0.3199 -3.7595  0.1768
13334TIP3    H261418   3.010   1.850   5.306  1.5977 -0.7286 -1.8005
13335TIP3   OH261419   3.077   6.125  12.144 -0.5725 -0.3653 -0.3194
13335TIP3    H161420   3.101   6.037  12.115 -0.6044 -0.4370 -0.1246
13335TIP3    H261421   2.998   6.113  12.197  0.9499 -0.5621  2.0422
13336TIP3   OH261422   3.693   4.033  16.695 -0.0259  0.0558  0.5468
13336TIP3    H161423   3.630   3.989  16.637 -0.0284 -1.5684  1.7127
13336TIP3    H261424   3.738   4.095  16.638 -1.6447  0.2094 -0.6544
13337TIP3   OH261425   3.049   0.682   5.701 -0.0103  0.0984 -0.7171
13337TIP3    H161426   3.087   0.675   5.614  1.1346  0.5428 -0.2671
13337TIP3    H261427   3.083   0.765   5.736 -0.8143  0.1499 -0.0184
13338TIP3   OH261428   1.794   2.328  10.627 -0.5783  0.0755 -0.2946
13338TIP3    H161429   1.854   2.386  10.581 -0.1182 -0.8893 -0.9525
13338TIP3    H261430   1.802   2.244  10.582  0.3687 -1.1224  1.9076
13339TIP3   OH261431   2.983   2.655  15.049 -0.4790  0.4826  0.2562
13339TIP3    H161432   3.018   2.648  14.960 -2.2900 -1.6732 -0.3720
13339TIP3    H261433   3.060   2.657  15.105  0.6893  0.9439 -1.2969
13340TIP3   OH261434   1.643   3.753   4.004 -0.1364 -0.1695 -0.2060
13340TIP3    H161435   1.622   3.791   3.918 -0.3456 -0.0114 -0.0857
13340TIP3    H261436   1.558   3.735   4.043 -0.1022  1.4528  0.7261
13341TIP3   OH261437   2.927   2.421  11.117 -0.2477  0.3193 -0.1690
13341TIP3    H161438   2.881   2.344  11.151 -1.0016  0.9756  0.3678
13341TIP3    H261439   2.933   2.406  11.023  1.2855 -1.2339  0.1333
13342TIP3   OH261440   4.602   5.442  15.116  0.2619 -0.0708 -0.2246
13342TIP3    H161441   4.663   5.465  15.186  1.3311 -2.5286 -0.2522
13342TIP3    H261442   4.604   5.518  15.058  1.5933  0.8352  0.9154
13343TIP3   OH261443   0.860   4.816  11.468  0.3647 -0.0019  0.2636
13343TIP3    H161444   0.803   4.860  11.404 -0.5620  1.0460  1.7363
13343TIP3    H261445   0.936   4.874  11.476  0.1116  0.2844  0.6662
13344TIP3   OH261446   2.109   1.880  16.467 -0.3236  0.0768  0.0430
13344TIP3    H161447   2.040   1.923  16.416 -1.4852 -0.8987  0.7425
13344TIP3    H261448   2.157   1.828  16.403 -2.1575 -1.6349 -0.0272
13345TIP3   OH261449   3.631   6.532   2.355 -0.7905  0.0944  0.4483
13345TIP3    H161450   3.630   6.450   2.305 -0.2798 -0.2352  0.9681
13345TIP3    H261451   3.595   6.508   2.440 -0.1229  0.2909  0.7859
13346TIP3   OH261452   1.686   1.098  15.414  0.0904  0.4109  0.5591
13346TIP3    H161453   1.604   1.096  15.463  0.4011 -0.9734  1.0816
13346TIP3    H261454   1.662   1.069  15.326  0.0582 -0.3364  0.8052
13347TIP3   OH261455   2.764   4.417   4.293  0.3096  0.3109  0.4640
13347TIP3    H161456   2.783   4.502   4.255 -1.2647  0.6357  0.3438
13347TIP3    H261457   2.848   4.388   4.330  0.7233  2.2217  1.1371
13348TIP3   OH261458   1.550   2.418   5.302 -0.1085  0.1769 -0.6310
13348TIP3    H161459   1.629   2.464   5.332  0.5681 -1.8090  0.8692
13348TIP3    H261460   1.481   2.484   5.305  1.2270  1.6326 -0.7049
13349TIP3   OH261461   3.937   6.306   0.270  0.6049 -0.1955 -0.1970
13349TIP3    H161462   3.887   6.342   0.197  0.0951 -0.2561  0.1194
13349TIP3    H261463   3.931   6.373   0.338 -0.3532 -0.8680  0.3960
13350TIP3   OH261464   0.333   2.178  12.460 -0.0463  0.0333 -0.2825
13350TIP3    H161465   0.344   2.158  12.367  1.1444  0.6563 -0.2949
13350TIP3    H261466   0.336   2.273  12.465 -1.7825  0.0890  0.2215
13351TIP3   OH261467   2.421   5.179  16.437 -0.4031  0.0418  0.3777
13351TIP3    H161468   2.399   5.264  16.475 -1.4117 -0.4205  0.8655
13351TIP3    H261469   2.509   5.160  16.468 -0.0530  1.0347  0.0248
13352TIP3   OH261470   0.649   2.002   0.361  0.4133  0.1763  0.1452
13352TIP3    H161471   0.594   2.012   0.439 -0.5325  0.3084 -0.5174
13352TIP3    H261472   0.608   1.931   0.312  1.6005 -0.6077  0.2532
13353TIP3   OH261473   5.862   3.814   4.359  0.2515  0.1398  0.5224
13353TIP3    H161474   5.926   3.789   4.426  0.7172  0.1682  0.0944
13353TIP3    H261475   5.778   3.785   4.395  0.7735 -2.3298 -0.0612
13354TIP3   OH261476   4.544   5.609   2.904  0.1024 -0.4649 -0.3250
13354TIP3    H161477   4.545   5.523   2.947  1.0668 -0.2579  0.1085
13354TIP3    H261478   4.635   5.623   2.878 -0.4525 -0.5834 -2.4903
13355TIP3   OH261479   2.330   5.732   4.911 -0.0316  0.4745  0.5973
13355TIP3    H161480   2.264   5.785   4.866  0.5320  0.5417 -0.1735
13355TIP3    H261481   2.288   5.647   4.925  0.5600 -0.3571 -2.2189
13356TIP3   OH261482   2.457   3.009   2.278  0.5450  0.3872 -0.1867
13356TIP3    H161483   2.464   2.928   2.328 -1.9160  0.5792  0.5967
13356TIP3    H261484   2.484   3.077   2.339 -1.8801  0.5566  0.8439
13357TIP3   OH261485   6.434   5.574   5.799 -0.0526  0.0943 -0.4966
13357TIP3    H161486   6.387   5.653   5.827  1.3587  0.8892 -0.2377
13357TIP3    H261487   6.470   5.597   5.713 -0.6092 -0.7183 -0.9664
13358TIP3   OH261488   4.827   3.409  11.959  0.0087  0.1397  0.1498
13358TIP3    H161489   4.791   3.386  11.873 -0.7415  0.1911  0.4393
13358TIP3    H261490   4.915   3.444  11.940  0.2946 -0.8971 -0.4841
13359TIP3   OH261491   4.811   4.332   1.341  0.1007 -0.5493  0.0690
13359TIP3    H161492   4.726   4.306   1.305  0.1962  1.9834 -2.3045
13359TIP3    H261493   4.796   4.420   1.376  2.0723  0.7121 -2.0463
13360TIP3   OH261494   2.866   0.496  12.224 -0.0278 -0.0360  0.4058
13360TIP3    H161495   2.805   0.423  12.231 -1.6268  1.1141 -0.7447
13360TIP3    H261496   2.810   0.573  12.214  1.5921  1.0384 -1.0345
13361TIP3   OH261497   0.798   5.757   1.803 -0.0106 -0.4007  0.2317
13361TIP3    H161498   0.837   5.833   1.846  0.4913  0.7669 -2.0812
13361TIP3    H261499   0.704   5.770   1.812  0.0626 -0.8760  2.0122
13362TIP3   OH261500   1.120   1.212   0.789  0.2503  0.0415 -0.3192
13362TIP3    H161501   1.046   1.171   0.835  0.4898 -0.2455 -0.1814
13362TIP3    H261502   1.096   1.207   0.697  0.2762 -0.4304 -0.3072
13363TIP3   OH261503   0.147   0.213  14.734 -0.6369 -0.5043 -0.1420
13363TIP3    H161504   0.103   0.130  14.753 -0.2059 -0.7894 -0.3739
13363TIP3    H261505   0.239   0.189  14.723 -0.7096 -0.2113 -1.5911
13364TIP3   OH261506   3.337   1.159   3.839 -0.3661 -0.0511  0.3646
13364TIP3    H161507   3.398   1.105   3.890 -0.5212 -0.0264  0.5793
13364TIP3    H261508   3.381   1.173   3.755  0.5213  1.0872  0.9911
13365TIP3   OH261509   1.674   4.776   5.925  0.0945 -0.8916  0.0136
13365TIP3    H161510   1.595   4.732   5.894 -2.4907  2.8838  0.5049
13365TIP3    H261511   1.733   4.777   5.850 -1.7748 -0.8672 -1.5133
13366TIP3   OH261512   4.873   1.089   3.490 -0.1108 -0.2360 -0.5448
13366TIP3    H161513   4.941   1.047   3.438  1.0512  1.9627 -0.9059
13366TIP3    H261514   4.830   1.150   3.430 -0.0011  0.9844  0.5661
13367TIP3   OH261515   0.463   2.832  11.267 -0.0267  0.5525  0.7188
13367TIP3    H161516   0.545   2.806  11.226 -0.6020 -0.5365  0.2237
13367TIP3    H261517   0.428   2.899  11.208 -0.1751 -0.0086  0.1599
13368TIP3   OH261518   3.039   4.172   1.295  0.1155 -0.3042 -0.0588
13368TIP3    H161519   3.066   4.220   1.217 -1.8396 -0.1503 -0.6757
13368TIP3    H261520   3.119   4.129   1.325  0.9877 -0.0729 -1.9229
13369TIP3   OH261521   5.418   6.180   0.682 -0.0225 -0.1949 -0.2440
13369TIP3    H161522   5.327   6.206   0.694 -0.5703 -2.5230  1.3058
13369TIP3    H261523   5.421   6.141   0.595 -0.8222 -1.1752  0.1491
13370TIP3   OH261524   3.564   3.538  15.985  0.0298 -0.2801 -0.3071
13370TIP3    H161525   3.563   3.604  16.054 -1.5430  1.1570 -1.6267
13370TIP3    H261526   3.505   3.470  16.017 -1.4504  0.8159 -0.5756
13371TIP3   OH261527   4.171   1.625  14.291  0.3317 -0.1606  0.1014
13371TIP3    H161528   4.184   1.702  14.237 -0.6114 -0.4684 -0.5935
13371TIP3    H261529   4.253   1.576  14.282  0.4070  0.0735 -0.6055
13372TIP3   OH261530   4.381   0.995  14.054 -0.2208 -0.1294 -0.3805
13372TIP3    H161531   4.335   0.938  13.992  1.1184 -1.3130 -0.3554
13372TIP3    H261532   4.443   0.937  14.099  0.0396  1.0426  0.8487
13373TIP3   OH261533   2.432   5.710  16.005  0.1427  0.6571 -0.6669
13373TIP3    H161534   2.427   5.772  16.077  0.0089  0.8333 -0.8283
13373TIP3    H261535   2.446   5.764  15.927  0.6540  0.4454 -0.7272
13374TIP3   OH261536   4.681   6.201   2.276  0.2250 -0.4089 -0.3495
13374TIP3    H161537   4.601   6.175   2.230  1.1591  0.7643 -2.8512
13374TIP3    H261538   4.729   6.119   2.288  0.0189 -0.7530 -1.6834
13375TIP3   OH261539   2.777   6.138  13.707  0.2192  0.0198  0.1432
13375TIP3    H161540   2.794   6.092  13.626  0.6500  2.1503 -1.0501
13375TIP3    H261541   2.682   6.152  13.708  0.4015  1.6140 -0.9935
13376TIP3   OH261542   1.676   4.505   2.178 -0.5534  0.3639 -0.4870
13376TIP3    H161543   1.740   4.566   2.215  0.2865 -0.4929 -0.4518
13376TIP3    H261544   1.591   4.540   2.203 -0.0438  0.6225  0.9642
13377TIP3   OH261545   3.817   4.633  16.099 -0.5941  0.3483 -0.2850
13377TIP3    H161546   3.753   4.643  16.028 -0.7406 -0.5619 -0.2916
13377TIP3    H261547   3.766   4.596  16.171 -0.1925  0.1419 -0.1052
13378TIP3   OH261548   1.566   6.001  11.157 -0.2659  1.1259 -0.2870
13378TIP3    H161549   1.544   5.982  11.065  0.6119  0.9928 -0.4782
13378TIP3    H261550   1.495   5.961  11.207 -1.4444  2.2950 -0.9546
13379TIP3   OH261551   5.900   2.787  12.153  0.3991 -0.4216 -0.4374
13379TIP3    H161552   5.828   2.752  12.204  1.6848 -1.4312  0.7777
13379TIP3    H261553   5.955   2.710  12.133  0.5070  0.1119 -2.4237
13380TIP3   OH261554   6.202   1.793  15.461 -0.2134 -0.2225 -0.3318
13380TIP3    H161555   6.137   1.765  15.525 -1.0905  0.8054 -0.7443
13380TIP3    H261556   6.259   1.717  15.450 -1.2306 -1.0872  0.1889
13381TIP3   OH261557   4.727   5.544  15.335  0.7010  0.4022  0.6446
13381TIP3    H161558   4.714   5.614  15.398 -0.7799  0.8195 -0.0757
13381TIP3    H261559   4.804   5.570  15.284 -0.0223  1.6870  0.1706
13382TIP3   OH261560   2.300   4.042   2.972 -0.0769 -0.1687 -0.6521
13382TIP3    H161561   2.246   4.108   3.017  0.2677 -0.2239 -0.1495
13382TIP3    H261562   2.390   4.068   2.991  0.0622 -0.9869 -0.1606
13383TIP3   OH261563   4.683   3.972   2.562 -0.6477 -0.2376  0.3722
13383TIP3    H161564   4.644   3.986   2.648  0.1426 -0.4248  0.7707
13383TIP3    H261565   4.628   3.905   2.521 -1.2876  0.1682  0.5496
13384TIP3   OH261566   2.069   1.611   3.843 -0.1104  0.1908 -0.3032
13384TIP3    H161567   2.117   1.692   3.864 -1.3224  1.6169 -2.6456
13384TIP3    H261568   2.131   1.560   3.790  0.1981  0.1643  0.0748
13385TIP3   OH261569   6.154   5.261  12.921 -0.2612 -0.3566 -0.0416
13385TIP3    H161570   6.104   5.255  13.002 -0.9527 -1.4922 -0.5369
13385TIP3    H261571   6.177   5.354  12.914 -1.1606 -0.0525  0.8691
13386TIP3   OH261572   1.283   1.760   2.801 -0.0409  0.7536  0.4490
13386TIP3    H161573   1.308   1.674   2.835  0.4784  0.3568 -0.8412
13386TIP3    H261574   1.294   1.820   2.874  1.2490 -0.0097  0.9185
13387TIP3   OH261575   6.297   6.446   2.173 -0.2473 -0.3546 -0.3503
13387TIP3    H161576   6.335   6.362   2.201 -0.6496 -0.9154 -1.4353
13387TIP3    H261577   6.298   6.442   2.078  1.2180  1.5741 -0.4798
13388TIP3   OH261578   1.358   2.820   4.315  0.0272  0.1092  0.0315
13388TIP3    H161579   1.412   2.829   4.236  1.2981  0.5276  0.9219
13388TIP3    H261580   1.382   2.896   4.369 -2.5005  1.1250 -0.1222
13389TIP3   OH261581   2.111   3.062  13.680  0.1758  0.2019  0.1321
13389TIP3    H161582   2.177   2.997  13.703  1.3678  1.6341  0.9864
13389TIP3    H261583   2.050   3.061  13.754 -1.0953 -1.4700 -0.8835
13390TIP3   OH261584   4.888   0.051   1.308  0.4656  0.0909 -1.0667
13390TIP3    H161585   4.897   0.010   1.222  0.3392 -1.2696 -0.4646
13390TIP3    H261586   4.800   0.025   1.337  0.6017  0.3304 -0.4286
13391TIP3   OH261587   4.580   3.191   3.459  0.2260 -0.4472 -0.4599
13391TIP3    H161588   4.579   3.103   3.495 -1.0097 -0.4895 -0.5627
13391TIP3    H261589   4.627   3.183   3.376  1.4595 -0.7008  0.2407
13392TIP3   OH261590   0.704   1.690  10.647 -0.5029 -0.7725 -0.4286
13392TIP3    H161591   0.670   1.736  10.570  2.3595 -0.2571 -1.4981
13392TIP3    H261592   0.655   1.608  10.649 -1.4230 -0.3177 -2.1415
13393TIP3   OH261593   2.369   4.326  11.344 -0.2066  0.0326  0.6431
13393TIP3    H161594   2.342   4.396  11.404 -0.8657  0.5102 -0.1811
13393TIP3    H261595   2.341   4.357  11.258 -1.2601 -1.6302  0.3616
13394TIP3   OH261596   4.576   3.862  14.757  0.1014  0.4333  0.0062
13394TIP3    H161597   4.624   3.916  14.821  1.2123  0.0933 -0.5138
13394TIP3    H261598   4.518   3.923  14.713 -2.1282  0.3797  2.5885
13395TIP3   OH261599   4.096   1.984   5.515  0.0380 -0.2562  0.4517
13395TIP3    H161600   4.136   1.979   5.602 -1.0387  0.0197  0.9831
13395TIP3    H261601   4.158   2.036   5.464  0.7564 -0.5449  1.0088
13396TIP3   OH261602   6.519   2.547  15.094  0.4220 -0.1437 -0.0981
13396TIP3    H161603   6.526   2.479  15.162 -0.3083  1.0880  1.2754
13396TIP3    H261604   6.427   2.543  15.066  0.5325 -0.1387 -0.4552
13397TIP3   OH261605   1.707   2.627  16.245  0.0472  0.2496 -0.1576
13397TIP3    H161606   1.697   2.653  16.154 -1.4484 -0.4465 -0.2218
13397TIP3    H261607   1.712   2.531  16.243 -0.0983  0.2211  0.5042
13398TIP3   OH261608   4.635   5.228   5.507 -0.3982  0.2911  0.1104
13398TIP3    H161609   4.551   5.243   5.464 -1.2282 -1.9424  0.7944
13398TIP3    H261610   4.680   5.166   5.450 -0.1751 -0.2492  0.8602
13399TIP3   OH261611   1.971   6.091   4.152  0.0327  0.2273  0.3632
13399TIP3    H161612   2.065   6.080   4.141 -0.0345  0.7118 -0.8114
13399TIP3    H261613   1.938   6.002   4.168  0.6999  0.0772  0.9175
13400TIP3   OH261614   4.017   3.529   2.026 -0.2301  0.6787  0.1150
13400TIP3    H161615   4.052   3.595   1.966 -0.3835  1.1989  0.5862
13400TIP3    H261616   3.984   3.579   2.101 -1.4352  0.1581 -0.0404
13401TIP3   OH261617   0.664   5.143   2.738  0.1716 -0.2404  0.3785
13401TIP3    H161618   0.691   5.151   2.830  1.1647  1.0412 -0.0003
13401TIP3    H261619   0.745   5.154   2.688 -0.3238 -1.1339 -0.6602
13402TIP3   OH261620   2.632   3.916  15.073  0.4792 -0.0637  0.1942
13402TIP3    H161621   2.651   4.000  15.032  1.4906 -1.0561 -1.4655
13402TIP3    H261622   2.709   3.897  15.126  1.3047 -0.9814 -1.2695
13403TIP3   OH261623   5.359   5.026  14.492  0.0049  0.2403 -0.4079
13403TIP3    H161624   5.269   5.026  14.460 -0.1090  1.1142 -0.0981
13403TIP3    H261625   5.376   4.934  14.515 -1.3408  0.2887  0.9852
13404TIP3   OH261626   4.492   3.119   1.262  0.5045 -0.1739 -0.1811
13404TIP3    H161627   4.399   3.101   1.249  0.2214  0.9097  0.1879
13404TIP3    H261628   4.494   3.186   1.331  1.4728  0.9432 -1.2369
13405TIP3   OH261629   6.043   1.848   0.788 -0.0591  0.3006 -0.1710
13405TIP3    H161630   6.044   1.770   0.844 -1.4258 -0.2709 -0.8812
13405TIP3    H261631   5.950   1.864   0.771  0.2350  1.6017 -0.7323
13406TIP3   OH261632   0.397   1.644  11.369  0.1835 -0.0435  0.2317
13406TIP3    H161633   0.448   1.568  11.342 -2.2734 -1.4184 -0.8569
13406TIP3    H261634   0.306   1.617  11.356 -0.7968  3.6574 -1.8331
13407TIP3   OH261635   5.372   6.142   4.610  0.1085 -0.1476 -0.4718
13407TIP3    H161636   5.317   6.070   4.643  2.1451 -1.3422  0.5518
13407TIP3    H261637   5.387   6.121   4.518 -0.6294 -0.1617 -0.5878
13408TIP3   OH261638   5.766   5.132  12.779 -0.0599 -0.0615  0.2889
13408TIP3    H161639   5.699   5.073  12.745 -0.7318  0.1083  1.2705
13408TIP3    H261640   5.717   5.210  12.806  0.6651  0.4589  0.1131
13409TIP3   OH261641   4.470   2.486  13.473 -0.0495  0.1321  0.3568
13409TIP3    H161642   4.475   2.489  13.378 -1.8213 -1.5607  0.1471
13409TIP3    H261643   4.556   2.456  13.502  1.1888  2.5732 -0.5057
13410TIP3   OH261644   3.378   2.231   0.202  0.2050 -0.1673 -0.1948
13410TIP3    H161645   3.313   2.197   0.141  0.3028 -1.4387  0.3894
13410TIP3    H261646   3.367   2.326   0.197 -1.0740 -0.3211 -0.7770
13411TIP3   OH261647   5.621   0.630  16.882 -0.0191  0.4845 -0.2600
13411TIP3    H161648   5.553   0.565  16.902  0.5483  0.0653  0.3589
13411TIP3    H261649   5.689   0.580  16.837  0.3618  0.6776  0.0964
13412TIP3   OH261650   4.116   0.111   4.669  0.0622 -0.3454  0.4993
13412TIP3    H161651   4.067   0.142   4.593  1.4192 -0.3568 -0.4118
13412TIP3    H261652   4.115   0.184   4.731 -0.7678 -0.2173  0.3427
13413TIP3   OH261653   3.085   2.392  11.431 -0.3913 -0.1353 -0.4445
13413TIP3    H161654   3.077   2.449  11.507  0.9230 -1.8768  1.0991
13413TIP3    H261655   2.998   2.353  11.421 -0.1421 -1.2838  1.3931
13414TIP3   OH261656   3.737   3.131  12.020  0.1162  0.4000  0.3929
13414TIP3    H161657   3.812   3.163  12.070  1.0371  2.0324 -1.8543
13414TIP3    H261658   3.682   3.209  12.007  0.1400  0.1679 -1.4428
13415TIP3   OH261659   5.538   0.962  12.414 -0.0235  0.3596  0.6128
13415TIP3    H161660   5.582   1.047  12.419 -0.4721  0.5652  1.0695
13415TIP3    H261661   5.481   0.959  12.490  1.3653 -1.1412  1.6633
13416TIP3   OH261662   1.003   3.878   2.591  0.0298  0.3801  0.4968
13416TIP3    H161663   0.934   3.830   2.636  2.2650 -2.1835  1.5428
13416TIP3    H261664   1.012   3.834   2.506 -0.1260  1.1988  0.0468
13417TIP3   OH261665   3.994   2.865   2.596  0.0121 -0.2739 -0.0000
13417TIP3    H161666   3.964   2.807   2.666  0.1690  0.2365  0.4910
13417TIP3    H261667   3.986   2.812   2.517 -0.8451 -0.6115  0.3070
13418TIP3   OH261668   4.806   5.543  14.074  0.5505 -0.2566 -0.1915
13418TIP3    H161669   4.751   5.537  14.152  0.4349 -0.7560 -0.3079
13418TIP3    H261670   4.810   5.636  14.054  0.9672 -0.0791  0.6811
13419TIP3   OH261671   2.830   0.624   2.674 -0.1626  0.0789 -0.2839
13419TIP3    H161672   2.909   0.575   2.696 -0.0333  0.3922 -0.0424
13419TIP3    H261673   2.777   0.562   2.623 -0.3811 -0.6064  0.7389
13420TIP3   OH261674   0.326   5.087  13.868 -0.0210 -0.8046 -0.1752
13420TIP3    H161675   0.316   5.041  13.951 -1.4204  0.5746  0.4893
13420TIP3    H261676   0.308   5.179  13.890 -1.1389 -0.5098 -2.1214
13421TIP3   OH261677   3.099   5.001  16.493  0.2011 -0.2761 -0.1509
13421TIP3    H161678   3.033   5.046  16.441  0.9553  0.5883 -0.3867
13421TIP3    H261679   3.056   4.920  16.522 -1.0412  0.3868 -0.0723
13422TIP3   OH261680   6.672   4.271  12.305  0.3981  0.1630 -0.5305
13422TIP3    H161681   6.666   4.320  12.387 -0.2606 -0.0980 -0.4125
13422TIP3    H261682   6.630   4.327  12.240 -1.7059 -0.8221 -0.1081
13423TIP3   OH261683   5.929   5.960  15.520  0.1139  0.2965 -0.0372
13423TIP3    H161684   5.861   5.932  15.459 -0.1310  0.5804  0.0993
13423TIP3    H261685   5.909   5.915  15.602 -2.1796  3.1675  1.1686
13424TIP3   OH261686   3.075   2.139  14.944 -0.3515  0.0577 -0.0539
13424TIP3    H161687   3.150   2.127  15.002 -0.7568  1.6049  0.8595
13424TIP3    H261688   3.005   2.170  15.002 -1.1242  0.4828 -1.1812
13425TIP3   OH261689   4.511   5.684   0.937  0.3032  0.1337 -0.4252
13425TIP3    H161690   4.564   5.615   0.898 -0.5885 -0.0560 -1.3492
13425TIP3    H261691   4.515   5.756   0.874 -0.8980 -0.0523 -0.7397
13426TIP3   OH261692   0.133   4.263  14.430  0.0453  0.0658 -0.4639
13426TIP3    H161693   0.149   4.258  14.336  0.0608  3.3374 -0.7586
13426TIP3    H261694   0.040   4.282  14.437  0.3183  1.3073  0.0559
13427TIP3   OH261695   0.661   2.685  14.793 -0.0781  0.0748 -0.0421
13427TIP3    H161696   0.626   2.774  14.801  2.4723  1.3039 -1.4161
13427TIP3    H261697   0.662   2.668  14.699 -1.8825 -2.0819  0.2480
13428TIP3   OH261698   1.821   3.122   0.759 -0.4108 -0.8206 -0.3249
13428TIP3    H161699   1.768   3.050   0.791  0.6984 -0.5264  2.4400
13428TIP3    H261700   1.777   3.151   0.679 -1.6146 -3.6554 -0.7883
13429TIP3   OH261701   3.186   0.901  13.188  0.0745  0.1140 -0.3873
13429TIP3    H161702   3.165   0.933  13.276  0.1142 -0.9628  0.0307
13429TIP3    H261703   3.101   0.889  13.147 -0.1503 -2.4524  0.6539
13430TIP3   OH261704   2.279   3.254  13.168  0.1244  0.2004  0.4126
13430TIP3    H161705   2.323   3.319  13.222 -0.1479  1.0745 -0.3825
13430TIP3    H261706   2.295   3.282  13.078 -0.3022 -0.6311  0.0625
13431TIP3   OH261707   6.496   2.845   0.824 -0.3441 -0.4610 -0.2652
13431TIP3    H161708   6.467   2.936   0.826 -0.9150 -0.6243 -0.7046
13431TIP3    H261709   6.460   2.810   0.743  1.9885 -0.3985 -1.4153
13432TIP3   OH261710   2.487   5.929   0.410  0.2588 -0.2043 -0.3344
13432TIP3    H161711   2.511   5.967   0.326  1.5624  1.9410  0.8882
13432TIP3    H261712   2.393   5.911   0.403  0.6652 -1.7647 -2.7768
13433TIP3   OH261713   3.284   5.409  16.844  0.4561  0.0463 -0.2339
13433TIP3    H161714   3.292   5.415  16.939 -0.2361 -1.4997 -0.0412
13433TIP3    H261715   3.191   5.429  16.827  0.4911 -0.0515 -0.5421
13434TIP3   OH261716   6.609   1.799  16.304  0.5323 -0.4903  0.2147
13434TIP3    H161717   6.580   1.813  16.394  0.9836 -1.3770  0.5078
13434TIP3    H261718   6.629   1.887  16.271 -1.5292  0.0630  0.3106
13435TIP3   OH261719   4.888   4.302  14.761  0.2897  0.4982  0.3000
13435TIP3    H161720   4.854   4.282  14.674 -1.8341  0.9772  0.9693
13435TIP3    H261721   4.918   4.393  14.754  1.3195  0.1426 -0.2312
13436TIP3   OH261722   0.943   6.464  16.877  0.3705 -0.0901  0.1625
13436TIP3    H161723   0.869   6.428  16.828 -1.7038  2.0563  1.4577
13436TIP3    H261724   1.016   6.462  16.816 -1.4500  0.1639 -2.1446
13437TIP3   OH261725   1.743   0.710   0.697  0.1352 -0.7458  0.5089
13437TIP3    H161726   1.656   0.708   0.737 -0.0250 -1.2728  0.1430
13437TIP3    H261727   1.726   0.726   0.604  0.5301  1.0072  0.7136
13438TIP3   OH261728   1.952   5.545   5.062 -0.0378  0.5065  0.0206
13438TIP3    H161729   1.873   5.491   5.051 -0.4182  0.8393  0.9674
13438TIP3    H261730   1.930   5.629   5.021 -0.1310  0.5554  0.1694
13439TIP3   OH261731   6.397   4.765  14.904 -0.0123  0.1591 -0.2149
13439TIP3    H161732   6.452   4.710  14.849 -0.3767 -1.5491  1.0572
13439TIP3    H261733   6.457   4.798  14.971 -0.0479  0.2896 -0.2475
13440TIP3   OH261734   0.661   5.620   4.014 -0.3588  0.4768  0.0379
13440TIP3    H161735   0.631   5.533   4.040 -0.2883  0.8687  1.4947
13440TIP3    H261736   0.582   5.674   4.016 -0.9710 -0.0458 -3.4884
13441TIP3   OH261737   3.409   1.796   4.220 -0.3576  0.1224 -0.0658
13441TIP3    H161738   3.406   1.798   4.124  0.2554 -0.9089 -0.1183
13441TIP3    H261739   3.469   1.724   4.241  0.9177  1.4548  1.0790
13442TIP3   OH261740   4.904   3.906  14.757  0.0991 -0.0847 -0.2873
13442TIP3    H161741   4.971   3.846  14.789  0.5871  0.5151 -0.1827
13442TIP3    H261742   4.837   3.905  14.826  1.3621  1.5707  1.0583
13443TIP3   OH261743   3.705   1.228   4.620 -0.5859  0.0770  0.2353
13443TIP3    H161744   3.667   1.236   4.708 -1.1578 -1.8643  0.2072
13443TIP3    H261745   3.799   1.216   4.636 -0.9408 -2.6735  0.8074
13444TIP3   OH261746   5.798   6.295  16.492 -0.1165 -0.2029 -1.0387
13444TIP3    H161747   5.715   6.306  16.538  0.5181  0.4451 -0.0146
13444TIP3    H261748   5.811   6.378  16.446  0.5253  0.1569 -0.2337
13445TIP3   OH261749   0.531   4.169   4.938 -0.4793  0.0548  0.0212
13445TIP3    H161750   0.445   4.130   4.952 -0.2546  0.1085  1.8243
13445TIP3    H261751   0.513   4.260   4.915 -0.9190  0.1566  0.7411
13446TIP3   OH261752   4.919   1.597  11.429  0.0312  0.4726  0.1092
13446TIP3    H161753   4.837   1.550  11.420 -0.7293  2.1072 -2.9961
13446TIP3    H261754   4.918   1.632  11.518 -1.7089 -1.1190  0.7637
13447TIP3   OH261755   3.127   4.446   0.603  0.0608  0.4195 -0.3227
13447TIP3    H161756   3.088   4.391   0.536 -1.3646  1.8533 -0.7343
13447TIP3    H261757   3.054   4.474   0.658  0.4319  3.0257 -1.0045
13448TIP3   OH261758   4.158   2.209  14.029 -0.0205  0.0928  0.0516
13448TIP3    H161759   4.222   2.233  13.962 -0.5058 -0.6365 -0.6831
13448TIP3    H261760   4.104   2.141  13.989 -1.1446  0.5503  0.7281
13449TIP3   OH261761   0.562   3.954  16.396  0.2054 -0.2117 -0.3043
13449TIP3    H161762   0.618   4.009  16.451  0.8818 -1.8336  0.7073
13449TIP3    H261763   0.601   3.867  16.401 -2.8414 -1.6797  1.2073
13450TIP3   OH261764   3.460   3.283   1.348 -0.4070  0.3042  0.1450
13450TIP3    H161765   3.448   3.340   1.272 -2.6477 -1.0219 -0.6106
13450TIP3    H261766   3.457   3.341   1.423  0.0072  1.4550 -0.7032
13451TIP3   OH261767   4.700   3.522   1.866  0.0131  0.3052 -0.3329
13451TIP3    H161768   4.720   3.594   1.806 -0.4621  0.0651 -0.7806
13451TIP3    H261769   4.606   3.531   1.883  0.1915  0.5581  0.6239
13452TIP3   OH261770   3.455   1.865  15.217  0.0167 -0.6125  0.2626
13452TIP3    H161771   3.516   1.810  15.170  1.5758  0.0091  1.4763
13452TIP3    H261772   3.368   1.836  15.188  0.8618 -1.7335 -1.2416
13453TIP3   OH261773   5.612   6.107  13.895 -0.3335  0.4318 -0.3762
13453TIP3    H161774   5.633   6.169  13.825 -0.9107  1.0633 -0.0053
13453TIP3    H261775   5.697   6.085  13.933 -0.0858  0.6978 -0.7593
13454TIP3   OH261776   2.082   2.318  14.375 -0.1726 -0.0327 -0.5437
13454TIP3    H161777   2.004   2.361  14.339  0.7935  0.4661 -2.1339
13454TIP3    H261778   2.049   2.235  14.411 -1.6574  0.8374  0.2057
13455TIP3   OH261779   1.029   5.832  14.399 -0.0274 -0.2558 -0.2348
13455TIP3    H161780   1.006   5.915  14.441 -0.6963 -0.2332 -0.6320
13455TIP3    H261781   1.093   5.856  14.331  0.8188 -0.2529  0.5470
13456TIP3   OH261782   6.771   0.073   3.985  0.3976 -0.4791  0.4971
13456TIP3    H161783   6.763   0.140   4.053  1.7471  0.6747 -0.4271
13456TIP3    H261784   6.815   0.117   3.913  1.2779 -2.3601 -0.1733
13457TIP3   OH261785   1.030   5.857  10.761  0.0166  0.1281  1.0189
13457TIP3    H161786   0.944   5.876  10.797  0.1766  0.7601  1.0780
13457TIP3    H261787   1.061   5.941  10.726  0.2673 -0.2714  0.2672
13458TIP3   OH261788   5.513   0.156  12.819 -0.0305  0.0241  0.0923
13458TIP3    H161789   5.598   0.135  12.857 -0.2581 -3.1310 -0.8615
13458TIP3    H261790   5.454   0.165  12.894  0.8650  1.0856  0.6990
13459TIP3   OH261791   5.717   0.638  11.291 -0.2181 -0.2755 -0.6656
13459TIP3    H161792   5.675   0.704  11.345 -2.2180 -1.5443 -0.5602
13459TIP3    H261793   5.732   0.564  11.350  0.7209 -0.4335 -1.0840
13460TIP3   OH261794   1.229   5.939   1.666  0.3623  0.5289 -0.8732
13460TIP3    H161795   1.302   5.941   1.605 -0.5980  0.5523 -2.0666
13460TIP3    H261796   1.261   5.889   1.741  1.6501  0.7159 -1.2857
13461TIP3   OH261797   5.798   0.855   0.349 -0.0241  0.0708 -0.0952
13461TIP3    H161798   5.886   0.833   0.318  0.8030  0.0149  2.0985
13461TIP3    H261799   5.752   0.885   0.271  1.3625 -1.6061 -1.6529
13462TIP3   OH261800   0.615   1.717  15.553  0.4549 -0.2427 -0.5138
13462TIP3    H161801   0.631   1.747  15.643  0.6352 -2.7457  0.3656
13462TIP3    H261802   0.525   1.746  15.535  0.1840 -0.2250  0.7193
13463TIP3   OH261803   3.443   1.282  15.887  0.1431  0.5525 -0.5815
13463TIP3    H161804   3.378   1.344  15.920 -0.3371 -0.6135  0.7472
13463TIP3    H261805   3.526   1.329  15.892 -0.3548  1.4570 -0.6326
13464TIP3   OH261806   0.716   4.444   0.594  0.4367 -0.2365 -0.3076
13464TIP3    H161807   0.653   4.500   0.549  0.1046 -0.3260  0.0468
13464TIP3    H261808   0.682   4.436   0.683  1.4469  0.5077  0.1649
13465TIP3   OH261809   0.727   6.613   0.920 -0.0057  0.4423  0.5137
13465TIP3    H161810   0.677   6.538   0.886 -0.7310  0.9923  0.3456
13465TIP3    H261811   0.787   6.574   0.983 -1.8301 -0.0646  2.0410
13466TIP3   OH261812   1.161   5.290  13.996 -0.0285 -0.1471 -0.2694
13466TIP3    H161813   1.071   5.270  13.974 -0.1921 -0.0795  0.3219
13466TIP3    H261814   1.165   5.284  14.091  0.9126 -1.4794 -0.3693
13467TIP3   OH261815   1.843   3.704  16.003 -0.3148 -0.0124 -0.1541
13467TIP3    H161816   1.795   3.629  16.037 -0.2338  1.3178  3.3368
13467TIP3    H261817   1.782   3.777  16.011  0.8829  0.9711  0.3946
13468TIP3   OH261818   4.453   3.239  14.191 -0.1776 -0.6559 -0.7622
13468TIP3    H161819   4.474   3.247  14.098 -0.9989 -0.6432 -0.9510
13468TIP3    H261820   4.485   3.153  14.216  1.9299  0.1234 -0.5396
13469TIP3   OH261821   3.143   4.637   5.202  0.1193 -0.2096  0.4576
13469TIP3    H161822   3.179   4.655   5.289 -0.3117  1.4893  0.3197
13469TIP3    H261823   3.053   4.607   5.220  0.1191 -0.1270  0.5988
13470TIP3   OH261824   1.847   1.292  11.405 -0.0408  0.0532  0.1590
13470TIP3    H161825   1.877   1.381  11.424 -0.0229  0.5596 -1.9303
13470TIP3    H261826   1.814   1.297  11.315 -0.5257 -1.9421  0.1806
13471TIP3   OH261827   4.576   0.985   4.796  0.1220 -0.4635 -0.7253
13471TIP3    H161828   4.521   1.040   4.741 -0.0777 -2.2186 -2.3380
13471TIP3    H261829   4.602   1.043   4.868 -1.3392  1.2692 -1.5129
13472TIP3   OH261830   4.063   2.464  15.562  0.5395  0.5029 -0.5101
13472TIP3    H161831   3.991   2.525  15.544  0.4849  0.5042 -0.2827
13472TIP3    H261832   4.071   2.413  15.481 -0.1003  0.1093 -0.3355
13473TIP3   OH261833   3.951   3.291  12.036 -0.3598 -0.3901 -0.4505
13473TIP3    H161834   3.920   3.292  11.945 -0.5526 -0.9461 -0.3955
13473TIP3    H261835   4.046   3.283  12.028 -0.2780  0.5741 -0.6092
13474TIP3   OH261836   5.788   1.158   1.240  0.0504 -0.0833 -0.3267
13474TIP3    H161837   5.772   1.182   1.149 -1.3630 -0.1588 -0.1184
13474TIP3    H261838   5.784   1.241   1.288 -0.7321 -0.2103 -0.1514
13475TIP3   OH261839   4.003   2.190   5.781  0.5542 -0.0636 -0.7267
13475TIP3    H161840   4.039   2.133   5.713  0.3690 -1.3402  0.2091
13475TIP3    H261841   3.935   2.137   5.823  0.4085  0.8403  0.2089
13476TIP3   OH261842   1.246   3.806   5.267  1.0739  0.1688 -0.0658
13476TIP3    H161843   1.294   3.752   5.329  0.2863  0.0344  0.4512
13476TIP3    H261844   1.242   3.892   5.309  0.4973  0.0656  0.1076
13477TIP3   OH261845   2.005   4.577   3.391  0.3115  0.3168  0.0518
13477TIP3    H161846   2.010   4.659   3.341 -1.9007  0.2922 -0.3154
13477TIP3    H261847   1.989   4.605   3.481  0.6150  0.3047  0.1093
13478TIP3   OH261848   4.322   0.486  10.870 -0.2015 -0.0044 -0.1524
13478TIP3    H161849   4.317   0.522  10.781 -2.7478  0.4124  0.1034
13478TIP3    H261850   4.312   0.561  10.928  1.6534 -0.2444  0.5588
13479TIP3   OH261851   5.396   3.462  16.652  0.2949  0.9035 -0.2109
13479TIP3    H161852   5.491   3.458  16.662  0.1646  1.1399  1.3497
13479TIP3    H261853   5.362   3.400  16.717 -0.6357  1.2627 -0.3348
13480TIP3   OH261854   2.518   3.271   0.867  0.7540  0.2297 -0.5901
13480TIP3    H161855   2.484   3.310   0.787 -0.5971  0.2674 -0.0207
13480TIP3    H261856   2.584   3.334   0.898 -1.9676  2.6502  0.7713
13481TIP3   OH261857   1.932   6.145  14.286  0.4773 -0.4805 -0.3009
13481TIP3    H161858   1.952   6.063  14.331 -1.1767 -0.6871  0.1117
13481TIP3    H261859   1.965   6.133  14.197  1.8870 -0.8706  0.2474
13482TIP3   OH261860   0.209   2.134   1.863  0.6076 -0.6974  0.3310
13482TIP3    H161861   0.172   2.204   1.916  0.6923  0.7672 -1.4411
13482TIP3    H261862   0.138   2.107   1.805  1.1836 -0.5205 -0.4863
13483TIP3   OH261863   1.427   6.606  11.510 -0.3339 -0.0792  0.2467
13483TIP3    H161864   1.464   6.693  11.499  2.3031 -0.9944  1.0103
13483TIP3    H261865   1.473   6.551  11.447 -0.9619 -1.1835  0.6994
13484TIP3   OH261866   2.971   6.084   5.747  0.0828 -0.3661  1.0201
13484TIP3    H161867   2.925   6.165   5.724  2.8488  1.0120 -0.2368
13484TIP3    H261868   3.005   6.051   5.664  0.3622 -1.9408  1.7192
13485TIP3   OH261869   2.273   5.319  11.764 -0.6019 -0.2412  0.2268
13485TIP3    H161870   2.281   5.391  11.701  0.6158  0.7311  1.4332
13485TIP3    H261871   2.283   5.240  11.712  1.5595  0.5584 -0.6988
13486TIP3   OH261872   2.444   2.239  11.336 -0.2069  0.6185 -0.5081
13486TIP3    H161873   2.430   2.150  11.367 -1.0823  0.7742 -0.4370
13486TIP3    H261874   2.375   2.254  11.272  0.5439  0.8999 -1.2708
13487TIP3   OH261875   5.639   4.891  12.641 -0.5124  0.3048 -0.5028
13487TIP3    H161876   5.586   4.930  12.572 -1.7760  1.6221  1.1138
13487TIP3    H261877   5.586   4.818  12.674  0.0589 -0.2851 -0.8605
13488TIP3   OH261878   2.907   4.150  13.063 -0.4590  0.4144  0.0069
13488TIP3    H161879   2.979   4.109  13.015 -0.8490 -0.9375  0.5377
13488TIP3    H261880   2.951   4.202  13.131  0.0598 -1.7512  1.4217
13489TIP3   OH261881   3.556   1.886   6.629  0.6041 -0.6133 -0.3947
13489TIP3    H161882   3.627   1.902   6.691  1.5410 -1.8769 -1.0771
13489TIP3    H261883   3.567   1.953   6.562 -0.9602  1.3343  1.1727
13490TIP3   OH261884   0.754   5.031  12.629 -0.0399  0.0142  0.0151
13490TIP3    H161885   0.759   4.936  12.621 -0.7754  0.0075 -0.4382
13490TIP3    H261886   0.844   5.058  12.648  0.1450 -0.7819  0.3157
13491TIP3   OH261887   6.720   6.238  12.084 -0.4494  0.3192 -0.4314
13491TIP3    H161888   6.704   6.252  12.178 -1.5613 -0.3254 -0.5064
13491TIP3    H261889   6.786   6.303  12.062 -1.4331  1.6900  0.4314
13492TIP3   OH261890   4.633   5.156  13.613 -0.0329  0.5512 -0.0792
13492TIP3    H161891   4.596   5.146  13.701  0.2417 -0.0786 -0.0275
13492TIP3    H261892   4.714   5.206  13.627 -0.3763  1.1175 -0.0768
13493TIP3   OH261893   3.109   6.243  14.647  0.0325  0.1110  0.2448
13493TIP3    H161894   3.150   6.160  14.622 -0.5359  0.5862 -2.5504
13493TIP3    H261895   3.178   6.289  14.696  1.4290 -0.7959 -0.7739
13494TIP3   OH261896   5.945   3.741  14.660 -0.0203  0.3748 -0.0352
13494TIP3    H161897   5.907   3.669  14.711 -0.4957  0.5182 -0.1781
13494TIP3    H261898   6.039   3.726  14.664 -0.0160  0.6201  1.2330
13495TIP3   OH261899   3.769   0.319   2.295  0.1399 -0.4186 -0.3808
13495TIP3    H161900   3.680   0.348   2.272 -0.3026 -2.8333 -2.1088
13495TIP3    H261901   3.777   0.232   2.255  2.2586 -1.5758  2.2127
13496TIP3   OH261902   6.557   3.154   5.706  0.4579  0.3293  0.4610
13496TIP3    H161903   6.518   3.071   5.679  0.4614 -0.0394  1.5458
13496TIP3    H261904   6.652   3.139   5.699  0.4596  0.2255  0.7166
13497TIP3   OH261905   3.450   2.141  17.095  0.4401 -0.5521  0.1864
13497TIP3    H161906   3.453   2.120  17.001  0.2316  2.1384 -0.5171
13497TIP3    H261907   3.365   2.183  17.108  2.0901  3.1299  0.4839
13498TIP3   OH261908   1.209   5.828   5.768 -0.0489  0.0492  0.1410
13498TIP3    H161909   1.214   5.874   5.852  1.5135 -0.4631  0.3549
13498TIP3    H261910   1.234   5.738   5.788  0.8476  0.0276 -0.9467
13499TIP3   OH261911   2.768   6.201  12.593  0.4028  1.0734 -0.1350
13499TIP3    H161912   2.837   6.145  12.628 -0.0686  0.3519 -0.3537
13499TIP3    H261913   2.755   6.268  12.661  1.5571  1.4371 -0.2470
13500TIP3   OH261914   6.256   2.961   2.921 -0.2654 -0.0742  0.3153
13500TIP3    H161915   6.174   3.007   2.938 -0.6869 -0.5884 -0.2874
13500TIP3    H261916   6.239   2.870   2.947 -0.1900 -0.3804 -0.6421
13501TIP3   OH261917   1.616   5.717   0.181 -0.1277  0.3814 -0.6784
13501TIP3    H161918   1.688   5.754   0.129  0.6264 -0.4530 -0.2649
13501TIP3    H261919   1.539   5.766   0.153  0.3546  0.3619 -2.1453
13502TIP3   OH261920   1.630   5.963   4.654 -0.3236  0.8174 -0.2767
13502TIP3    H161921   1.558   5.944   4.714  0.0687 -2.1037 -0.5753
13502TIP3    H261922   1.586   5.998   4.576 -1.4484 -0.5135 -0.2986
13503TIP3   OH261923   3.442   2.648  14.541 -0.2841 -0.4387 -0.2520
13503TIP3    H161924   3.447   2.687  14.628  1.1773 -0.9117 -0.0925
13503TIP3    H261925   3.383   2.705  14.492 -0.2969  0.4265  0.7424
13504TIP3   OH261926   3.746   1.364   0.745  0.1268  0.1075 -0.3025
13504TIP3    H161927   3.672   1.370   0.685 -0.9952  0.1183  1.0416
13504TIP3    H261928   3.808   1.429   0.712 -0.3197 -0.0884 -1.6121
13505TIP3   OH261929   2.268   6.028   1.723  0.9971 -0.5680  0.5980
13505TIP3    H161930   2.175   6.030   1.743  1.2409  0.9600  1.8055
13505TIP3    H261931   2.306   5.974   1.792  1.2410  0.5906  1.3955
13506TIP3   OH261932   2.270   2.306   2.006  0.5083  0.0240  0.4663
13506TIP3    H161933   2.188   2.348   1.981 -0.0451  0.0077  2.1606
13506TIP3    H261934   2.296   2.256   1.928 -0.3246  1.1662 -0.5815
13507TIP3   OH261935   5.987   4.730   3.983 -0.2189 -0.1069 -0.2395
13507TIP3    H161936   5.983   4.825   3.969 -1.0332  0.0572  0.9022
13507TIP3    H261937   5.991   4.692   3.895  2.2340  1.0370 -0.7055
13508TIP3   OH261938   3.673   0.502  17.177  0.5013  0.3687  0.5131
13508TIP3    H161939   3.719   0.480  17.259 -0.9047  2.3954  1.9480
13508TIP3    H261940   3.641   0.592  17.191  1.0308  1.1739 -2.6760
13509TIP3   OH261941   4.156   1.680  16.134 -0.4830  0.3522 -0.4412
13509TIP3    H161942   4.154   1.588  16.160 -0.7470  0.4464 -0.1308
13509TIP3    H261943   4.247   1.694  16.106 -0.2734  0.1658  0.1260
13510TIP3   OH261944   5.336   4.147   4.660 -0.0069 -0.4689  0.8772
13510TIP3    H161945   5.351   4.084   4.589 -0.5921 -0.7452  0.9900
13510TIP3    H261946   5.370   4.103   4.738  0.3174 -0.3100  0.8258
13511TIP3   OH261947   4.581   2.126  13.620  0.3289  0.1544 -0.4280
13511TIP3    H161948   4.499   2.078  13.611 -0.3142  1.2409 -0.5815
13511TIP3    H261949   4.621   2.092  13.700 -0.5413 -0.0037 -0.0524
13512TIP3   OH261950   4.183   1.366  11.978  0.5694  0.0399 -0.1295
13512TIP3    H161951   4.111   1.305  11.957  0.8753  0.2478 -1.9881
13512TIP3    H261952   4.193   1.418  11.898  1.5786  1.2555  0.7658
13513TIP3   OH261953   4.100   2.075  16.716 -0.2011  0.1859 -0.1458
13513TIP3    H161954   4.144   1.992  16.696 -3.4591 -1.6533 -0.4123
13513TIP3    H261955   4.168   2.128  16.759  1.4174 -3.6165  2.5923
13514TIP3   OH261956   2.427   4.618   3.378 -0.6496  0.1580  0.6427
13514TIP3    H161957   2.377   4.696   3.352 -0.8639 -0.1783  0.0245
13514TIP3    H261958   2.512   4.653   3.406 -0.4618  0.5511 -0.3857
13515TIP3   OH261959   3.783   4.065   2.195 -0.4622  0.1171 -0.0409
13515TIP3    H161960   3.736   4.087   2.114  1.9576 -3.1776 -2.6288
13515TIP3    H261961   3.744   3.983   2.224  0.1260  0.1467  0.8561
13516TIP3   OH261962   0.769   0.653   4.070  0.1656  0.4203 -0.0656
13516TIP3    H161963   0.808   0.582   4.018 -1.4637 -1.2380  0.8592
13516TIP3    H261964   0.838   0.678   4.131  0.6209 -0.7428 -0.0735
13517TIP3   OH261965   1.078   4.665   6.133  0.0595  0.9303 -0.3348
13517TIP3    H161966   1.079   4.601   6.204 -0.5906  0.2970 -0.8754
13517TIP3    H261967   1.166   4.703   6.134  0.5498 -0.1561 -0.1531
13518TIP3   OH261968   3.646   1.287  11.845 -0.5119 -0.3763  0.3042
13518TIP3    H161969   3.707   1.361  11.853  0.3242 -0.8848 -0.9692
13518TIP3    H261970   3.703   1.210  11.843 -1.2254 -0.8955 -0.4573
13519TIP3   OH261971   5.928   2.643  14.917  0.3232  0.2989 -0.9111
13519TIP3    H161972   5.970   2.561  14.942 -2.8139 -0.6373  1.9807
13519TIP3    H261973   5.892   2.625  14.830 -2.3118 -2.4290  0.5603
13520TIP3   OH261974   5.849   5.363   5.348 -0.2791  0.2414  0.1043
13520TIP3    H161975   5.845   5.421   5.424  0.3889 -0.1997  0.4841
13520TIP3    H261976   5.939   5.332   5.345 -0.5109 -0.4277 -0.3607
13521TIP3   OH261977   6.358   0.665  15.935 -0.0934 -0.4252 -0.8166
13521TIP3    H161978   6.375   0.639  16.025  0.1541 -1.1711 -1.0661
13521TIP3    H261979   6.265   0.684  15.932 -0.0925 -0.3410 -0.3941
13522TIP3   OH261980   0.857   1.321  12.494  0.3105 -0.7044 -0.1623
13522TIP3    H161981   0.803   1.398  12.475  0.5082 -0.1601  1.3211
13522TIP3    H261982   0.870   1.279  12.409 -0.0602  0.7249 -0.9585
13523TIP3   OH261983   4.956   2.208  13.952  0.0718 -0.6794  0.2471
13523TIP3    H161984   5.048   2.231  13.963  0.8467 -3.2592 -0.0187
13523TIP3    H261985   4.923   2.195  14.041  0.2468 -0.6616  0.3152
13524TIP3   OH261986   1.769   2.124   0.724 -0.3248 -0.3494  0.4174
13524TIP3    H161987   1.810   2.101   0.808  1.7707  0.5831 -0.2716
13524TIP3    H261988   1.803   2.211   0.704 -2.8566  0.5737 -0.1902
13525TIP3   OH261989   4.435   6.375  14.195 -0.4084 -0.3195 -0.9076
13525TIP3    H161990   4.497   6.432  14.240 -1.0423 -0.5744  0.3253
13525TIP3    H261991   4.485   6.297  14.174  0.4500  0.6084 -2.5521
13526TIP3   OH261992   5.523   3.999  13.784  0.1152  0.2166 -0.2928
13526TIP3    H161993   5.516   3.967  13.874  1.6289 -0.0060 -0.2435
13526TIP3    H261994   5.440   3.974  13.744 -0.9000  0.9484  1.2273
13527TIP3   OH261995   5.817   5.073   1.801  0.3079 -0.0187 -0.9380
13527TIP3    H161996   5.878   5.004   1.774  0.3599  0.3359 -1.7591
13527TIP3    H261997   5.757   5.082   1.727 -0.7692 -0.3642 -0.1443
13528TIP3   OH261998   3.823   3.700  10.854  0.4248 -0.2312 -0.6557
13528TIP3    H161999   3.790   3.713  10.943  0.5719  0.8307 -0.7451
13528TIP3    H262000   3.744   3.686  10.801  0.2969 -0.2557 -0.4593
13529TIP3   OH262001   6.213   3.944   1.594 -0.8805  0.7440 -0.0757
13529TIP3    H162002   6.299   3.907   1.615 -0.2755  2.1825  0.1110
13529TIP3    H262003   6.192   3.999   1.669 -1.9793  0.4050 -0.1219
13530TIP3   OH262004   6.103   5.704   4.396 -0.2485  0.0628 -0.3803
13530TIP3    H162005   6.033   5.729   4.335 -0.4613 -0.5778 -0.4047
13530TIP3    H262006   6.139   5.623   4.360  0.7499  0.5700 -0.5560
13531TIP3   OH262007   1.166   5.411   4.040  0.2169  0.2984  0.1454
13531TIP3    H162008   1.120   5.338   4.080  1.4430  0.8506  2.8197
13531TIP3    H262009   1.114   5.488   4.065 -0.7173  0.4627 -2.1054
13532TIP3   OH262010   5.961   2.249   4.156  0.5831  0.0511 -0.3572
13532TIP3    H162011   5.922   2.328   4.119  0.2033 -0.8259 -1.9509
13532TIP3    H262012   5.968   2.266   4.249  0.3283  1.8772 -0.6478
13533TIP3   OH262013   4.513   2.181  17.091 -0.3786 -0.0692 -1.1356
13533TIP3    H162014   4.566   2.121  17.144 -0.7526  0.1190 -0.5415
13533TIP3    H262015   4.576   2.220  17.030  0.7589  1.9784  1.1202
13534TIP3   OH262016   2.896   4.662   5.654  0.0416  0.0938 -0.0185
13534TIP3    H162017   2.894   4.754   5.630 -2.8608 -0.2786 -1.6034
13534TIP3    H262018   2.970   4.626   5.604  0.2270  1.2610 -0.6160
13535TIP3   OH262019   4.174   5.372   1.342 -0.4892  0.1202 -0.5525
13535TIP3    H162020   4.112   5.313   1.299  0.3252 -0.6834 -0.6720
13535TIP3    H262021   4.258   5.352   1.301 -0.0119  0.6203  0.1544
13536TIP3   OH262022   3.652   3.281   3.431 -0.1251 -0.2218 -0.4908
13536TIP3    H162023   3.636   3.364   3.476 -4.7888 -0.4825 -1.1457
13536TIP3    H262024   3.610   3.292   3.346 -1.0564 -3.2551 -0.5366
13537TIP3   OH262025   6.385   1.053   6.259 -0.0430  0.1176  0.6595
13537TIP3    H162026   6.322   1.104   6.311 -0.0576  1.7008 -0.8102
13537TIP3    H262027   6.447   1.119   6.226 -1.2909 -0.3563 -3.1168
13538TIP3   OH262028   3.891   2.895  15.665  0.0712  0.3046  0.2330
13538TIP3    H162029   3.982   2.871  15.683 -0.0647 -0.2581  0.1684
13538TIP3    H262030   3.847   2.888  15.749  0.4847  2.4793  0.7029
13539TIP3   OH262031   4.162   2.277   3.131  0.8475 -0.3343  0.1992
13539TIP3    H162032   4.233   2.216   3.109  1.4768 -0.2380  1.8023
13539TIP3    H262033   4.182   2.305   3.221  0.4270  2.0147 -0.3643
13540TIP3   OH262034   0.152   5.833  12.472 -0.1526  0.1643 -0.3099
13540TIP3    H162035   0.239   5.826  12.513 -1.4382  2.5679  3.4136
13540TIP3    H262036   0.131   5.926  12.478 -2.1872 -0.0012 -3.1704
13541TIP3   OH262037   2.482   5.135  13.140  0.5122  0.7113  0.3344
13541TIP3    H162038   2.409   5.105  13.087 -1.1950  1.2285  2.2816
13541TIP3    H262039   2.487   5.072  13.212  3.2487 -0.4097 -0.7098
13542TIP3   OH262040   0.848   3.444   0.825 -0.8172  0.4723 -0.0946
13542TIP3    H162041   0.867   3.526   0.780 -2.2744  1.3843  0.8357
13542TIP3    H262042   0.781   3.468   0.890 -0.8651 -1.3446  0.5830
13543TIP3   OH262043   2.914   1.312   2.917 -0.0146  0.2988  0.5399
13543TIP3    H162044   2.848   1.381   2.908  0.4624  0.5150 -2.1450
13543TIP3    H262045   2.900   1.255   2.842  1.5038 -0.8875  1.0964
13544TIP3   OH262046   5.106   2.921   3.093  0.3121 -0.2179  0.7992
13544TIP3    H162047   5.165   2.846   3.098  2.4093  1.1745 -0.9002
13544TIP3    H262048   5.036   2.894   3.035  0.9896 -0.8993  0.2872
13545TIP3   OH262049   0.561   1.511  14.180 -0.0251  0.0672 -0.2320
13545TIP3    H162050   0.524   1.459  14.109  1.5225  0.2728 -1.2410
13545TIP3    H262051   0.529   1.600  14.165 -1.0133 -0.1959  0.2895
13546TIP3   OH262052   1.433   4.253   5.454 -0.1047  0.2529  0.2999
13546TIP3    H162053   1.340   4.267   5.436 -0.0503 -0.1048 -0.2904
13546TIP3    H262054   1.465   4.204   5.378 -0.2746 -3.0247  2.1354
13547TIP3   OH262055   6.548   5.810  15.287  0.0038  0.4449 -0.1657
13547TIP3    H162056   6.455   5.831  15.287 -0.4055 -1.1619  1.0729
13547TIP3    H262057   6.565   5.778  15.376  1.3300 -0.9314 -0.8672
13548TIP3   OH262058   4.517   1.299   5.593 -0.0628  0.6809  0.4803
13548TIP3    H162059   4.554   1.366   5.536  1.7146 -0.8181 -0.2437
13548TIP3    H262060   4.559   1.313   5.678 -0.2680  0.9405  0.5393
13549TIP3   OH262061   6.694   2.052   6.136  0.3402  0.3977  0.1655
13549TIP3    H162062   6.776   2.100   6.124 -0.3302  1.0761 -2.3079
13549TIP3    H262063   6.637   2.113   6.183  0.7064  0.5550  0.4116
13550TIP3   OH262064   0.684   2.384   4.396  0.4487 -0.2020  0.3369
13550TIP3    H162065   0.774   2.391   4.365  1.2336  3.6341  2.8622
13550TIP3    H262066   0.685   2.309   4.455  1.3201 -1.5606 -1.3013
13551TIP3   OH262067   6.748   4.100  12.006  0.3082  0.2146 -0.2460
13551TIP3    H162068   6.838   4.090  11.974  0.7956  1.1860  0.7101
13551TIP3    H262069   6.753   4.078  12.099 -0.0614  1.8701  0.2113
13552TIP3   OH262070   2.271   0.670  12.937 -0.0219  0.4922 -0.1551
13552TIP3    H162071   2.365   0.687  12.929  0.3554 -1.7801 -1.5218
13552TIP3    H262072   2.266   0.581  12.973 -1.6968  1.1509  1.3742
13553TIP3   OH262073   2.713   4.264  12.188  0.4031  0.3636 -0.2561
13553TIP3    H162074   2.799   4.222  12.194 -0.8975 -2.3283  1.3097
13553TIP3    H262075   2.664   4.231  12.263 -2.2994  1.0829 -1.5581
13554TIP3   OH262076   3.303   1.681   5.269 -0.3442 -0.1651 -0.3227
13554TIP3    H162077   3.282   1.640   5.352 -1.2058 -1.3341 -1.0796
13554TIP3    H262078   3.398   1.691   5.270 -0.4071  0.5246  1.0840
13555TIP3   OH262079   1.187   1.858   0.158 -0.0923 -0.3529  0.1005
13555TIP3    H162080   1.173   1.883   0.250 -0.2437 -0.1892  0.0338
13555TIP3    H262081   1.210   1.765   0.162 -1.6150 -0.7461  0.1830
13556TIP3   OH262082   3.671   1.923   6.234  0.0864  0.3015  0.8456
13556TIP3    H162083   3.649   1.978   6.309 -0.6207  2.1512 -0.6425
13556TIP3    H262084   3.614   1.954   6.164  1.3965 -0.7216 -0.7348
13557TIP3   OH262085   3.785   4.179   0.312 -0.0385 -0.1842 -0.0619
13557TIP3    H162086   3.727   4.125   0.258  1.5818 -2.8890  0.6999
13557TIP3    H262087   3.751   4.169   0.401  0.5401 -0.3005  0.1480
13558TIP3   OH262088   2.387   5.066   1.025  0.0808  0.1377 -0.2689
13558TIP3    H162089   2.372   5.065   1.120 -0.1454  0.1808 -0.3060
13558TIP3    H262090   2.478   5.096   1.017 -0.0051  0.4568 -0.0802
13559TIP3   OH262091   5.038   3.446  11.429 -0.4858  0.0377 -0.4360
13559TIP3    H162092   5.089   3.418  11.353 -3.0612 -0.7040 -2.0458
13559TIP3    H262093   5.025   3.366  11.480 -1.1486 -0.0869 -0.7812
13560TIP3   OH262094   3.522   3.943   5.504  0.1221  0.5034 -0.1195
13560TIP3    H162095   3.469   3.899   5.437 -0.9831  0.8922  0.4617
13560TIP3    H262096   3.466   3.941   5.582  1.8753 -1.0969  1.1924
13561TIP3   OH262097   3.754   5.006  11.258  0.2191  0.3178  0.5453
13561TIP3    H162098   3.842   5.022  11.290  0.6717  1.3349 -1.0851
13561TIP3    H262099   3.707   4.971  11.334  1.2769  2.2876  2.2223
13562TIP3   OH262100   3.469   2.935  10.961  0.7077 -0.0250 -0.2912
13562TIP3    H162101   3.459   2.940  10.866 -0.7395  1.0534 -0.1044
13562TIP3    H262102   3.564   2.930  10.974  0.9595  0.4205 -1.7566
13563TIP3   OH262103   3.889   4.955  14.987  0.4192 -0.2217  0.2420
13563TIP3    H162104   3.961   4.956  14.924  0.0019 -0.2484 -0.2482
13563TIP3    H262105   3.928   4.982  15.070  0.9449 -0.0168 -0.0689
13564TIP3   OH262106   0.173   3.200   1.749 -0.2682 -1.0720 -0.2334
13564TIP3    H162107   0.094   3.187   1.697 -0.4267  1.5021 -0.7759
13564TIP3    H262108   0.241   3.221   1.685  0.0653 -0.0899  0.4118
13565TIP3   OH262109   0.934   6.399  14.022 -0.0285 -0.3533  0.2394
13565TIP3    H162110   0.897   6.460  13.958 -1.4886 -1.0523  0.3776
13565TIP3    H262111   0.886   6.317  14.007  1.1152 -1.1560  0.8000
13566TIP3   OH262112   6.727   4.996  12.964 -0.4574  0.3617 -0.6164
13566TIP3    H162113   6.758   4.908  12.982 -0.2127  0.5898  0.1204
13566TIP3    H262114   6.800   5.038  12.920 -0.0951  0.5727  0.1649
13567TIP3   OH262115   6.073   5.431  16.590  0.3084 -0.5073  0.2598
13567TIP3    H162116   6.107   5.511  16.629  0.0980  0.1589 -0.8784
13567TIP3    H262117   6.119   5.360  16.636  1.7459  0.3070  0.1443
13568TIP3   OH262118   3.325   6.458   6.588  0.2252  0.2066 -0.0916
13568TIP3    H162119   3.368   6.485   6.507  0.3099 -1.6273 -0.7062
13568TIP3    H262120   3.253   6.402   6.559  0.3360 -0.5921  1.1021
13569TIP3   OH262121   4.292   0.792   2.144  0.7454 -0.0836 -0.0945
13569TIP3    H162122   4.209   0.799   2.096  0.1724  0.4037  0.9385
13569TIP3    H262123   4.356   0.768   2.077 -0.4327 -1.6704 -0.7304
13570TIP3   OH262124   5.399   1.064   4.633  0.7334 -0.9932 -0.7669
13570TIP3    H162125   5.371   1.010   4.559 -1.6643 -0.8799 -0.0128
13570TIP3    H262126   5.343   1.037   4.705  1.3824  0.5819  0.3906
13571TIP3   OH262127   0.093   0.729  15.148 -0.0549 -0.3915  0.6395
13571TIP3    H162128   0.083   0.798  15.083 -0.2443  0.8329  1.9313
13571TIP3    H262129   0.161   0.672  15.112  2.5907  2.2821  1.0330
13572TIP3   OH262130   5.781   3.924  16.768 -0.0381  0.2989 -0.5767
13572TIP3    H162131   5.815   3.899  16.682 -0.4354 -0.6586 -0.4747
13572TIP3    H262132   5.686   3.915  16.759 -0.1953  1.6242 -0.4595
13573TIP3   OH262133   4.182   4.492   5.325 -0.4175  0.3905 -0.2213
13573TIP3    H162134   4.157   4.546   5.250 -0.9600  0.2614 -0.1406
13573TIP3    H262135   4.113   4.427   5.331 -2.0699  2.1835  2.1974
13574TIP3   OH262136   5.030   3.866  15.081 -0.0933 -0.5119 -0.2742
13574TIP3    H162137   5.102   3.818  15.039 -1.0211 -2.1475 -0.0597
13574TIP3    H262138   5.073   3.940  15.124  1.0904  0.4159 -2.8063
13575TIP3   OH262139   2.868   5.968   2.616  0.0210  0.0526  0.1758
13575TIP3    H162140   2.945   6.018   2.590  0.4992 -0.4841  0.5364
13575TIP3    H262141   2.826   5.944   2.534  1.9995 -2.4021 -0.2521
13576TIP3   OH262142   5.509   3.539   6.582  0.7321 -0.1024  0.0747
13576TIP3    H162143   5.597   3.533   6.544  1.3348  0.6461  1.2883
13576TIP3    H262144   5.503   3.464   6.642  0.5869 -0.0868  0.0801
13577TIP3   OH262145   0.216   0.843  15.992 -0.2060  0.3703 -0.0582
13577TIP3    H162146   0.274   0.815  16.062 -1.0733 -1.0315  0.1296
13577TIP3    H262147   0.224   0.939  15.991  1.3109  0.2811  0.6172
13578TIP3   OH262148   4.403   2.517  14.531 -0.1538  0.4347  0.5634
13578TIP3    H162149   4.379   2.469  14.610 -0.7983  0.3348  0.3094
13578TIP3    H262150   4.328   2.573  14.512 -0.4333 -0.2519 -0.5216
13579TIP3   OH262151   3.764   3.586  12.591 -0.3003 -0.5519 -0.3281
13579TIP3    H162152   3.678   3.570  12.628 -1.4188  0.3487 -2.3885
13579TIP3    H262153   3.766   3.680  12.576  0.2097 -0.8352 -2.2144
13580TIP3   OH262154   4.196   6.561  13.391 -0.6356 -0.3543  0.1905
13580TIP3    H162155   4.190   6.612  13.472 -0.1195 -1.3934  0.8995
13580TIP3    H262156   4.118   6.587  13.342 -0.3391  1.2001  0.4599
13581TIP3   OH262157   0.659   4.657   2.231  0.0470 -0.0140 -0.1729
13581TIP3    H162158   0.718   4.713   2.181 -1.3732  0.3410 -1.5102
13581TIP3    H262159   0.616   4.717   2.292 -0.4212  0.0932 -0.6085
13582TIP3   OH262160   3.304   1.027   6.237  0.2201 -0.3543  0.0130
13582TIP3    H162161   3.235   1.047   6.299 -0.1363 -0.3243 -0.3857
13582TIP3    H262162   3.331   1.112   6.202  0.9279 -0.3107  0.6633
13583TIP3   OH262163   5.330   4.897   5.384  0.0852  0.0985  0.5720
13583TIP3    H162164   5.293   4.940   5.461  0.8444  1.4830  0.1863
13583TIP3    H262165   5.418   4.933   5.375  0.2330 -0.4816 -0.5996
13584TIP3   OH262166   3.122   2.720  16.402 -0.2793 -0.2781  0.2250
13584TIP3    H162167   3.215   2.703  16.416 -0.4074 -2.6047 -1.2417
13584TIP3    H262168   3.086   2.726  16.490  1.6908  4.4850  1.0363
13585TIP3   OH262169   6.277   0.125   2.105  0.0937  0.4562  0.6001
13585TIP3    H162170   6.246   0.094   2.020 -1.5001  0.2424  1.2150
13585TIP3    H262171   6.233   0.209   2.118 -0.3951  0.0759  1.5701
13586TIP3   OH262172   3.584   6.202   1.529 -0.0243  0.1938 -0.2548
13586TIP3    H162173   3.600   6.286   1.485 -0.5045  0.3051 -0.2293
13586TIP3    H262174   3.609   6.218   1.620 -0.9646  0.6004 -0.0472
13587TIP3   OH262175   1.200   0.813   0.776 -0.1229  0.3369  0.0229
13587TIP3    H162176   1.229   0.889   0.725  1.0049  0.4099  0.7339
13587TIP3    H262177   1.248   0.740   0.739 -0.7997  0.0599 -0.3073
13588TIP3   OH262178   0.313   3.037  11.002 -0.6109  0.0093  0.7809
13588TIP3    H162179   0.244   3.067  10.943  0.5842  1.1181 -0.1116
13588TIP3    H262180   0.297   2.943  11.011 -1.1657 -0.0926 -0.8831
13589TIP3   OH262181   6.224   5.981  14.644  0.4434 -0.3310  0.2148
13589TIP3    H162182   6.233   5.993  14.550 -1.5659 -0.8584 -0.0891
13589TIP3    H262183   6.260   5.894  14.661 -0.8243 -0.9871 -0.3734
13590TIP3   OH262184   4.283   5.229   5.475 -0.0166  0.1864  0.3152
13590TIP3    H162185   4.235   5.159   5.431  0.9336 -0.0034 -0.4530
13590TIP3    H262186   4.218   5.269   5.533 -0.8600 -0.6282 -0.0290
13591TIP3   OH262187   4.502   2.812  16.201 -0.2514  0.0199 -0.1052
13591TIP3    H162188   4.460   2.876  16.144 -0.0414  0.0213 -0.2619
13591TIP3    H262189   4.465   2.829  16.287 -0.4385  0.1366 -0.2072
13592TIP3   OH262190   2.262   3.343   6.045 -0.2754  0.4954  0.2018
13592TIP3    H162191   2.183   3.318   6.092 -0.5907  1.1721  0.0324
13592TIP3    H262192   2.334   3.318   6.104 -0.5998 -0.2470  0.2937
13593TIP3   OH262193   0.398   0.222  16.196  0.2447  0.3203 -0.3221
13593TIP3    H162194   0.398   0.162  16.122  1.2734 -0.6124  0.3942
13593TIP3    H262195   0.462   0.185  16.257  0.4932  1.8467  0.3968
13594TIP3   OH262196   0.494   6.088   4.997  0.0275 -0.2385  0.5744
13594TIP3    H162197   0.453   6.007   5.028 -0.5036  0.5701  2.0849
13594TIP3    H262198   0.539   6.062   4.916 -1.1193 -1.7727  0.3656
13595TIP3   OH262199   3.271   4.602  13.126 -0.4360 -0.1206 -0.4921
13595TIP3    H162200   3.297   4.526  13.178  1.3908  0.5823 -0.3280
13595TIP3    H262201   3.197   4.640  13.174 -0.1178 -0.6859  0.4614
13596TIP3   OH262202   0.151   0.068  15.941  0.1176  0.1397 -0.3119
13596TIP3    H162203   0.163   0.105  16.029  2.8125  1.6310 -1.1704
13596TIP3    H262204   0.072   0.110  15.908 -0.9749 -0.4760  1.3552
13597TIP3   OH262205   1.808   0.894   3.861  0.6213 -0.4913  0.1919
13597TIP3    H162206   1.810   0.799   3.851 -0.1016 -0.6524  1.3161
13597TIP3    H262207   1.753   0.909   3.939 -0.1739  0.8886 -0.5846
13598TIP3   OH262208   3.047   2.334  14.045 -0.2090 -0.2244  0.3972
13598TIP3    H162209   3.003   2.349  13.961 -0.3536  3.8147  0.9669
13598TIP3    H262210   3.046   2.239  14.057 -0.1382 -1.0202 -4.1441
13599TIP3   OH262211   2.694   1.458  14.542 -0.0052 -0.2734 -0.3478
13599TIP3    H162212   2.610   1.456  14.496 -0.0184  0.9799 -0.4177
13599TIP3    H262213   2.753   1.410  14.485 -0.6204 -0.9906 -0.3982
13600TIP3   OH262214   0.576   0.954   4.428 -1.2601 -0.0726  0.4962
13600TIP3    H162215   0.623   1.024   4.473  0.3113  0.1736 -1.4220
13600TIP3    H262216   0.618   0.874   4.457 -1.3198 -0.0400  0.6760
13601TIP3   OH262217   5.413   1.040  11.126  0.4072  0.1946 -0.6329
13601TIP3    H162218   5.413   0.964  11.184  3.5205  0.2750 -0.3412
13601TIP3    H262219   5.328   1.038  11.083 -1.4379 -0.7905  2.6958
13602TIP3   OH262220   3.079   0.137   0.041  0.5593 -0.7565 -0.4646
13602TIP3    H162221   3.013   0.115  -0.025  0.6270 -1.0890 -0.4208
13602TIP3    H262222   3.154   0.168  -0.009  0.9488 -1.8718 -0.6023
13603TIP3   OH262223   4.725   6.622  14.564  0.0384  0.4511 -0.1266
13603TIP3    H162224   4.653   6.559  14.558  0.0644  0.2964  0.9873
13603TIP3    H262225   4.721   6.671  14.482 -0.5990 -0.3400 -0.5815
13604TIP3   OH262226   5.979   4.947   3.350  0.1240 -0.5148 -0.0146
13604TIP3    H162227   5.986   5.028   3.299 -1.5231 -0.7966 -0.7426
13604TIP3    H262228   6.031   4.883   3.301  1.9266  0.1974  0.8726
13605TIP3   OH262229   3.089   6.090   2.545 -0.2654  0.1094 -0.2231
13605TIP3    H162230   3.097   6.127   2.457  0.6842 -2.8839 -1.5037
13605TIP3    H262231   3.179   6.070   2.571 -0.7897 -3.0777 -0.5228
13606TIP3   OH262232   6.032   4.057  13.534  0.3000  0.0948 -0.5279
13606TIP3    H162233   6.047   3.990  13.466 -0.2897  0.4900 -1.0568
13606TIP3    H262234   5.993   4.130  13.487  0.2764  0.5379  0.1761
13607TIP3   OH262235   2.704   6.367   3.053 -0.6405 -0.0827  0.3000
13607TIP3    H162236   2.701   6.437   2.988 -3.5504 -0.7204 -0.3866
13607TIP3    H262237   2.795   6.365   3.082 -0.2710  3.5361 -0.1066
13608TIP3   OH262238   4.164   0.406  13.008 -0.1136 -0.2288 -0.3214
13608TIP3    H162239   4.124   0.324  12.981  0.4090 -1.4204  2.2091
13608TIP3    H262240   4.152   0.465  12.933 -3.7437 -1.4457 -0.8720
13609TIP3   OH262241   5.126   5.896  11.313 -0.4296  0.0007  0.6870
13609TIP3    H162242   5.041   5.863  11.339 -0.3479 -1.1997 -0.4586
13609TIP3    H262243   5.108   5.951  11.237 -0.1390 -0.8774 -0.0433
13610TIP3   OH262244   2.365   3.833  11.420  0.3189  0.2781 -0.4238
13610TIP3    H162245   2.423   3.909  11.415  1.6844 -0.8025 -2.3272
13610TIP3    H262246   2.292   3.855  11.362  0.1765  0.5528 -0.1438
13611TIP3   OH262247   1.494   2.315  16.477  0.8233 -0.8626  0.6030
13611TIP3    H162248   1.583   2.342  16.456  1.0711 -1.4876  0.8444
13611TIP3    H262249   1.452   2.303  16.392  1.7344 -3.0901  0.4081
13612TIP3   OH262250   6.460   1.378  11.721  0.6759 -0.4298  0.9462
13612TIP3    H162251   6.429   1.363  11.632 -1.5946  0.1201  1.5735
13612TIP3    H262252   6.468   1.291  11.759 -1.1777 -0.5924  1.0521
13613TIP3   OH262253   4.381   1.419  14.306 -0.0656  0.4243  0.3491
13613TIP3    H162254   4.461   1.450  14.263  0.2024 -0.1590  0.4150
13613TIP3    H262255   4.358   1.339  14.260 -0.0502  0.0525  0.9688
13614TIP3   OH262256   6.723   2.935   3.932  0.2926 -0.0216 -0.2999
13614TIP3    H162257   6.816   2.954   3.922  0.0418  0.9064 -1.0801
13614TIP3    H262258   6.685   2.959   3.847 -1.0634  2.2766  0.8725
13615TIP3   OH262259   3.409   5.650   2.847 -0.0201 -0.1026 -0.0103
13615TIP3    H162260   3.440   5.666   2.936 -0.9826  1.5622  0.0674
13615TIP3    H262261   3.478   5.598   2.807  0.5975 -0.6026  1.5924
13616TIP3   OH262262   1.665   5.488  14.771 -0.3218  0.1575 -0.4937
13616TIP3    H162263   1.643   5.467  14.680  0.5704  2.5030 -1.3303
13616TIP3    H262264   1.753   5.454  14.783 -1.4360 -2.7243  0.5235
13617TIP3   OH262265   5.852   4.205   0.134  0.1499  0.2077 -0.3222
13617TIP3    H162266   5.793   4.275   0.106  0.9783  0.5649 -1.2203
13617TIP3    H262267   5.922   4.251   0.180  0.4276 -0.0821 -0.4589
13618TIP3   OH262268   3.634   0.733   0.989 -0.4594  0.2059  0.7626
13618TIP3    H162269   3.606   0.824   1.002 -3.1204 -0.1699 -1.3828
13618TIP3    H262270   3.573   0.682   1.042  0.5216 -0.4276  1.3221
13619TIP3   OH262271   2.014   1.784   4.151 -0.4869  0.0609 -0.0567
13619TIP3    H162272   1.957   1.755   4.222 -0.3608 -0.2150 -0.0659
13619TIP3    H262273   1.957   1.835   4.094 -0.1511  2.1588  1.3502
13620TIP3   OH262274   5.111   0.907  14.766  0.6541 -0.0244  1.1609
13620TIP3    H162275   5.083   0.843  14.830  1.7395 -0.3874  1.2959
13620TIP3    H262276   5.178   0.862  14.714 -0.2305  0.2339 -0.2760
13621TIP3   OH262277   5.769   0.857  16.312 -0.5374 -0.0455  0.6243
13621TIP3    H162278   5.719   0.810  16.245  0.5938 -0.3790 -0.0252
13621TIP3    H262279   5.858   0.860  16.277 -0.4098  1.9055  1.0330
13622TIP3   OH262280   3.661   4.813  15.109  0.3211  0.4596  0.3853
13622TIP3    H162281   3.644   4.736  15.055 -0.9738  1.5065 -0.7657
13622TIP3    H262282   3.748   4.843  15.081  0.2425  0.2060 -0.1428
13623TIP3   OH262283   6.097   6.763  13.719 -0.1796  0.8914 -0.4427
13623TIP3    H162284   6.188   6.743  13.699  0.0489 -0.5480  1.6810
13623TIP3    H262285   6.047   6.692  13.679 -0.2500  0.9682 -0.4937
13624TIP3   OH262286   1.545   2.378   5.036  0.0321 -0.0692 -0.4488
13624TIP3    H162287   1.567   2.385   5.129  0.5180  1.9015 -0.6660
13624TIP3    H262288   1.484   2.305   5.031 -0.1486 -0.0933  1.4366
13625TIP3   OH262289   3.308   1.815   0.061 -0.5313  0.1296 -0.1947
13625TIP3    H162290   3.298   1.908   0.081  2.6710  0.6310 -0.3362
13625TIP3    H262291   3.366   1.782   0.129 -1.0652 -1.6291 -0.5416
13626TIP3   OH262292   4.948   1.122  15.374  0.3894  0.0703  0.2654
13626TIP3    H162293   4.972   1.031  15.395  1.4607  0.2967  0.0862
13626TIP3    H262294   4.854   1.119  15.359  0.3715 -0.9721  0.4933
13627TIP3   OH262295   0.922   0.250   6.395  0.3632 -0.9055  0.4087
13627TIP3    H162296   0.833   0.251   6.360  0.3156  0.4413  0.5034
13627TIP3    H262297   0.923   0.319   6.461  1.0459 -1.9848  1.5746
13628TIP3   OH262298   4.146   2.471   2.949 -0.2421 -0.5712 -0.1185
13628TIP3    H162299   4.160   2.421   3.030 -0.9547  0.8630  0.9432
13628TIP3    H262300   4.079   2.422   2.902  0.8510 -1.9285 -0.3220
13629TIP3   OH262301   6.094   5.653   2.970 -0.0437 -0.5039 -0.0225
13629TIP3    H162302   6.150   5.689   2.901 -0.1132  0.5499  0.4655
13629TIP3    H262303   6.040   5.588   2.925  0.8294 -0.7862 -0.7033
13630TIP3   OH262304   4.981   0.530   1.063 -0.4880 -0.0797 -0.1735
13630TIP3    H162305   4.980   0.538   1.158 -0.4870 -0.8731 -0.0993
13630TIP3    H262306   4.949   0.615   1.032  1.1223  0.8133  0.4695
13631TIP3   OH262307   3.752   3.113   1.223  0.7545 -0.1798  0.2830
13631TIP3    H162308   3.665   3.106   1.182  1.1989  0.0196 -0.7348
13631TIP3    H262309   3.805   3.157   1.157  1.8463 -1.0471  0.5601
13632TIP3   OH262310   1.907   0.932   9.920 -0.2971 -0.4075  0.6282
13632TIP3    H162311   1.978   0.902   9.976  0.1408  0.0281  0.3155
13632TIP3    H262312   1.947   0.999   9.864 -0.7175 -0.8373 -0.2099
13633TIP3   OH262313   0.098   1.073   3.256 -0.5834 -0.0914  0.0749
13633TIP3    H162314   0.153   1.030   3.321  1.2476  3.0555  0.8221
13633TIP3    H262315   0.107   1.019   3.177  0.3098 -1.8321  1.3127
13634TIP3   OH262316   5.242   2.956  14.074 -0.2570  0.1500 -0.0335
13634TIP3    H162317   5.211   2.960  14.164 -1.1325 -0.4920 -0.2985
13634TIP3    H262318   5.219   2.869  14.044 -0.0118  0.3712 -0.9031
13635TIP3   OH262319   4.005   4.053  10.563 -0.1295  0.0608 -0.5976
13635TIP3    H162320   4.067   4.010  10.505  1.5435 -0.2771  1.3509
13635TIP3    H262321   4.006   4.002  10.643 -1.0940  1.4583  0.3635
13636TIP3   OH262322   4.156   1.004  14.718 -0.8201  0.2409  0.0962
13636TIP3    H162323   4.160   1.059  14.640 -0.9786 -0.7401 -0.6336
13636TIP3    H262324   4.081   0.947  14.702  0.0910 -1.0383  0.2285
13637TIP3   OH262325   6.273   5.846  11.730 -0.3386  0.1707  0.8650
13637TIP3    H162326   6.232   5.932  11.727 -1.2425 -0.2491  0.5017
13637TIP3    H262327   6.210   5.791  11.776 -0.4661 -0.6248 -0.2010
13638TIP3   OH262328   2.641   4.098  14.840  0.2006  0.1378  0.0896
13638TIP3    H162329   2.594   4.055  14.769  0.9753 -0.3238 -0.1533
13638TIP3    H262330   2.573   4.144  14.889 -0.4878 -0.4302 -0.3146
13639TIP3   OH262331   5.598   5.708  15.656 -0.5684 -0.0127  0.0134
13639TIP3    H162332   5.514   5.736  15.618 -1.1719 -2.1694 -0.3913
13639TIP3    H262333   5.625   5.634  15.601  1.3216  0.2638  0.5108
13640TIP3   OH262334   6.096   4.382  11.094 -0.6441  0.1416  0.3033
13640TIP3    H162335   6.076   4.408  11.005  0.9525  1.2654  0.2246
13640TIP3    H262336   6.055   4.450  11.149 -0.2758  0.3536  0.3240
13641TIP3   OH262337   0.538   4.476  14.039  0.2223  0.3559  0.1997
13641TIP3    H162338   0.580   4.421  13.973  0.8512 -0.0187  0.8955
13641TIP3    H262339   0.466   4.422  14.073  0.8187 -0.0324  0.8589
13642TIP3   OH262340   1.755   0.392  12.643  0.2257 -0.1609  0.4419
13642TIP3    H162341   1.725   0.304  12.664 -1.6344  0.3475  0.0911
13642TIP3    H262342   1.788   0.385  12.554  2.2054 -0.9527  1.1900
13643TIP3   OH262343   4.155   5.545  13.067  0.0675 -0.5863 -0.4871
13643TIP3    H162344   4.203   5.463  13.056  1.0151  0.2425 -3.7716
13643TIP3    H262345   4.153   5.584  12.980  0.5479  3.4017  1.0498
13644TIP3   OH262346   5.872   5.097  14.006 -0.6866  0.4187 -0.0029
13644TIP3    H162347   5.880   5.167  13.942 -1.3847 -0.5605 -1.1920
13644TIP3    H262348   5.831   5.025  13.959  1.4755 -1.4197  0.7157
13645TIP3   OH262349   2.046   1.281  12.036  0.0428 -0.0426  0.3534
13645TIP3    H162350   2.032   1.250  11.947 -2.1313  0.6083  0.4220
13645TIP3    H262351   2.100   1.213  12.077 -0.4344 -1.2279 -0.9193
13646TIP3   OH262352   2.017   3.056  12.764 -0.1688  0.6985 -0.2517
13646TIP3    H162353   2.093   3.110  12.784  1.3912 -0.6653 -2.1060
13646TIP3    H262354   2.053   2.974  12.731 -2.4615 -0.6509  0.3495
13647TIP3   OH262355   2.435   6.569   5.310 -0.5325  0.2865 -0.3673
13647TIP3    H162356   2.410   6.661   5.308  0.0573  0.4549 -0.2978
13647TIP3    H262357   2.485   6.556   5.230  0.2008  0.2759  0.0792
13648TIP3   OH262358   2.460   3.105   0.185  0.2914  0.3115  0.1092
13648TIP3    H162359   2.401   3.031   0.174  1.2677 -0.3254 -1.2012
13648TIP3    H262360   2.524   3.076   0.250 -0.9444  1.1031  1.7338
13649TIP3   OH262361   5.699   0.263   2.475  0.0899  0.2789 -0.4341
13649TIP3    H162362   5.737   0.348   2.451  0.4757  0.2153 -0.0535
13649TIP3    H262363   5.741   0.201   2.416  0.6826  0.1919  0.0617
13650TIP3   OH262364   5.964   3.026   3.794  0.1384 -0.4518 -0.5341
13650TIP3    H162365   5.968   3.108   3.745  1.3393 -0.1580  0.0229
13650TIP3    H262366   5.981   2.958   3.729 -1.0218 -0.3052 -1.0318
13651TIP3   OH262367   4.222   4.240  14.069 -0.4378 -0.2106 -0.3597
13651TIP3    H162368   4.147   4.259  14.013  0.3066  0.7418 -1.0674
13651TIP3    H262369   4.282   4.190  14.014 -0.0018  0.1384 -0.2189
13652TIP3   OH262370   1.771   1.802   0.739  0.4120 -0.5777 -0.9486
13652TIP3    H162371   1.737   1.852   0.665  0.8819 -1.5533 -1.8416
13652TIP3    H262372   1.709   1.730   0.750  1.8436 -2.0901 -2.2785
13653TIP3   OH262373   4.428   2.572  12.309  0.1824 -0.5613  0.0796
13653TIP3    H162374   4.418   2.565  12.404  1.3512  0.9193  0.3535
13653TIP3    H262375   4.380   2.652  12.286 -0.6429 -1.2596 -0.6878
13654TIP3   OH262376   0.909   3.596  15.368 -0.3353 -0.1757 -0.2904
13654TIP3    H162377   0.891   3.525  15.307  0.2277 -0.9826  0.4583
13654TIP3    H262378   0.848   3.582  15.441  0.3074 -0.3560  0.2217
13655TIP3   OH262379   1.539   3.406  15.125  0.0072 -0.5632  0.4225
13655TIP3    H162380   1.597   3.412  15.050 -0.7003 -0.5371 -0.1334
13655TIP3    H262381   1.585   3.451  15.196 -0.3980  1.6772 -0.6577
13656TIP3   OH262382   2.652   2.534  15.458  0.1998 -0.0667  0.3840
13656TIP3    H162383   2.592   2.595  15.502  0.5833 -0.9486  2.1941
13656TIP3    H262384   2.696   2.588  15.392 -1.7093  0.8768 -0.2142
13657TIP3   OH262385   4.874   4.899   4.214 -0.2746  0.6175 -0.0535
13657TIP3    H162386   4.874   4.848   4.133 -3.1899 -0.4116  0.4796
13657TIP3    H262387   4.966   4.899   4.242  0.3708 -1.3927 -1.8975
13658TIP3   OH262388   6.055   4.060  14.596 -0.5717  0.0288  0.8941
13658TIP3    H162389   5.983   3.999  14.580  0.2143 -0.9104  0.8539
13658TIP3    H262390   6.127   4.026  14.544 -0.3690  1.5255  0.1373
13659TIP3   OH262391   1.634   4.126  15.091 -0.2601  0.2064  0.0627
13659TIP3    H162392   1.549   4.124  15.045 -0.4228 -0.4188  0.3719
13659TIP3    H262393   1.618   4.076  15.171  0.8584 -1.5141 -0.7122
13660TIP3   OH262394   5.531   5.918   1.888 -0.7532 -0.1364 -0.2606
13660TIP3    H162395   5.484   5.834   1.883 -1.6610  0.2162  1.3927
13660TIP3    H262396   5.606   5.899   1.945 -1.3022  0.2794  0.6299
13661TIP3   OH262397   5.196   0.549   3.953 -0.1660 -0.4519  0.1451
13661TIP3    H162398   5.265   0.602   3.914  0.7621 -0.3837  1.7929
13661TIP3    H262399   5.120   0.563   3.896  1.1562 -0.5425 -1.7157
13662TIP3   OH262400   0.383   5.761  15.280  0.4132 -0.0425 -0.4777
13662TIP3    H162401   0.399   5.749  15.186 -0.9189 -0.4499 -0.6702
13662TIP3    H262402   0.288   5.767  15.288  0.3862 -1.7333  1.0457
13663TIP3   OH262403   2.843   3.736  11.575  0.5273 -0.0737  0.1986
13663TIP3    H162404   2.839   3.721  11.670  0.5837 -1.2309  0.0296
13663TIP3    H262405   2.751   3.739  11.548  0.5056 -1.2343  0.0855
13664TIP3   OH262406   1.940   6.297   1.634  0.1145  0.6260 -0.0418
13664TIP3    H162407   1.871   6.340   1.684  1.5046  0.6039  2.0192
13664TIP3    H262408   1.898   6.220   1.597 -0.9760  0.5672  1.2203
13665TIP3   OH262409   1.386   5.289   2.883 -0.0993  0.4445  0.3774
13665TIP3    H162410   1.407   5.247   2.967 -2.8528 -0.5082  0.7024
13665TIP3    H262411   1.367   5.380   2.906  2.5543  1.1402  0.1735
13666TIP3   OH262412   0.480   4.010  14.791 -0.0908 -0.0596 -0.0608
13666TIP3    H162413   0.446   4.072  14.726  2.7939  1.4954 -0.2736
13666TIP3    H262414   0.477   4.058  14.874 -0.8066 -0.8621  0.3873
13667TIP3   OH262415   4.322   4.540  16.364 -0.4422 -0.3208  0.1415
13667TIP3    H162416   4.396   4.500  16.318 -0.6295 -0.6151  0.1009
13667TIP3    H262417   4.250   4.537  16.302 -0.1367  1.2202 -0.3334
13668TIP3   OH262418   6.442   0.012  13.781 -0.3557 -0.3593 -0.0286
13668TIP3    H162419   6.400  -0.072  13.800 -0.5582  0.1060  1.7830
13668TIP3    H262420   6.481   0.000  13.695 -1.0188 -2.0576 -0.1410
13669TIP3   OH262421   6.712   4.053  12.865 -0.6252 -0.5243 -0.1269
13669TIP3    H162422   6.671   3.986  12.809  1.1435 -1.1771 -0.7028
13669TIP3    H262423   6.793   4.012  12.895  0.7754  1.5189 -0.9018
13670TIP3   OH262424   1.018   1.618   4.028  0.0756  0.2311 -0.2090
13670TIP3    H162425   0.942   1.657   4.071  0.0500 -0.2287  0.1763
13670TIP3    H262426   1.092   1.642   4.084  0.5026  2.1937 -1.5187
13671TIP3   OH262427   0.601   1.147  16.103  0.1925 -0.3473  0.1901
13671TIP3    H162428   0.592   1.134  16.198 -1.5069  1.5272  0.3552
13671TIP3    H262429   0.511   1.158  16.072  0.6943 -1.3064 -1.7344
13672TIP3   OH262430   5.559   4.638  16.674 -0.2304 -0.2047 -0.3042
13672TIP3    H162431   5.519   4.637  16.587 -1.5595 -1.6627  0.2848
13672TIP3    H262432   5.633   4.577  16.667 -0.2237 -0.1778 -0.4647
13673TIP3   OH262433   0.243   2.757  14.348 -1.2453 -0.2789 -0.2067
13673TIP3    H162434   0.198   2.745  14.432 -2.5022 -1.2693 -0.9941
13673TIP3    H262435   0.229   2.675  14.301 -0.4369  0.2088 -1.3313
13674TIP3   OH262436   2.746   4.341  13.551  0.0442 -0.2464  0.1347
13674TIP3    H162437   2.715   4.408  13.613 -0.1292 -0.6563  0.4971
13674TIP3    H262438   2.667   4.293  13.527  0.4272 -1.5707  1.3932
13675TIP3   OH262439   2.692   3.359  13.926 -0.0207  0.4809  0.3324
13675TIP3    H162440   2.666   3.316  13.845  0.5359  1.4554 -0.3843
13675TIP3    H262441   2.691   3.452  13.905  1.4434  0.6882  1.0385
13676TIP3   OH262442   6.198   2.415   2.251  0.2182 -0.1343  0.3509
13676TIP3    H162443   6.114   2.429   2.294 -0.7478 -0.0285 -1.4801
13676TIP3    H262444   6.208   2.491   2.193  2.0037  0.2873  1.1394
13677TIP3   OH262445   0.341   5.773  17.216  0.1646 -0.4911  0.1233
13677TIP3    H162446   0.393   5.696  17.192  2.7560  1.4424 -0.8683
13677TIP3    H262447   0.320   5.760  17.309  1.6036 -1.8065  0.2947
13678TIP3   OH262448   0.042   2.210  14.610 -0.6132  0.1522 -0.2146
13678TIP3    H162449   0.064   2.182  14.698  0.0527  1.4580  0.0633
13678TIP3    H262450  -0.040   2.259  14.620  0.8063  2.5977  0.1687
13679TIP3   OH262451   4.846   6.470  15.666  0.3007 -0.5912  0.2509
13679TIP3    H162452   4.877   6.550  15.707 -1.1632  0.9715 -1.4700
13679TIP3    H262453   4.896   6.464  15.584 -0.9383 -0.3291 -0.5510
13680TIP3   OH262454   2.310   6.198  17.201  0.9614  0.1151  0.0487
13680TIP3    H162455   2.389   6.210  17.148  1.4277  0.7808  0.8680
13680TIP3    H262456   2.341   6.151  17.279  0.8274  1.5153  0.9805
13681TIP3   OH262457   1.979   0.232  10.615 -0.1012 -0.1062  0.5159
13681TIP3    H162458   1.984   0.216  10.521 -0.6537 -1.0735  0.6285
13681TIP3    H262459   2.050   0.178  10.652 -1.1002 -1.2848  0.7914
13682TIP3   OH262460   5.639   4.835  16.398 -0.3523  0.3269 -0.1250
13682TIP3    H162461   5.584   4.861  16.325 -3.0037  0.2893  1.7404
13682TIP3    H262462   5.621   4.742  16.410  1.0809  0.0050 -0.1872
13683TIP3   OH262463   6.179   3.116  13.584  0.0447 -0.2664 -0.3771
13683TIP3    H162464   6.218   3.182  13.642  0.2516  0.4368 -1.2958
13683TIP3    H262465   6.199   3.147  13.496 -1.4398 -0.5891 -0.8589
13684TIP3   OH262466   4.965   1.194  11.819 -0.3871 -0.3610 -0.9180
13684TIP3    H162467   4.968   1.280  11.860  0.0428 -1.1387  0.7688
13684TIP3    H262468   4.999   1.208  11.731 -0.3129  1.1776 -0.6714
13685TIP3   OH262469   3.198   1.621   4.848  0.3446  0.9623  0.4597
13685TIP3    H162470   3.105   1.605   4.830  1.0530 -3.0998 -0.6948
13685TIP3    H262471   3.228   1.676   4.776 -0.2113 -2.1260 -2.3964
13686TIP3   OH262472   1.440   4.217   6.343 -0.0535 -0.3693 -0.0817
13686TIP3    H162473   1.414   4.294   6.293  0.3716 -1.3567 -1.8802
13686TIP3    H262474   1.489   4.253   6.417 -1.7518  1.1852  0.3626
13687TIP3   OH262475   4.086   4.963   5.585 -0.2210 -0.2848  0.1813
13687TIP3    H162476   4.129   4.878   5.596  0.4218  0.0433  0.2717
13687TIP3    H262477   4.097   5.006   5.670 -1.1640 -0.3798  0.3629
13688TIP3   OH262478   5.439   0.323  11.793 -0.0297  0.7556  0.3874
13688TIP3    H162479   5.392   0.335  11.875 -1.0527  1.5917 -0.3089
13688TIP3    H262480   5.454   0.411  11.760  3.4220  0.6650  1.3106
13689TIP3   OH262481   6.621   1.350   1.693 -0.0019 -0.0875 -0.0531
13689TIP3    H162482   6.553   1.283   1.695 -0.6606  0.5913  1.3321
13689TIP3    H262483   6.572   1.432   1.684  0.5793  0.4343  1.3039
13690TIP3   OH262484   2.897   2.861   6.892  0.2039  0.6577  0.2948
13690TIP3    H162485   2.955   2.796   6.853 -0.7955  0.1983 -0.4416
13690TIP3    H262486   2.833   2.810   6.941  1.2915  1.2001  2.4431
13691TIP3   OH262487   6.672   0.622  15.573 -0.0062 -0.3168 -0.3837
13691TIP3    H162488   6.663   0.714  15.600  2.4421 -0.4947  1.3789
13691TIP3    H262489   6.582   0.590  15.566 -0.9126  2.0545 -0.5116
13692TIP3   OH262490   6.548   1.348  16.567 -0.0175  0.2215  0.6239
13692TIP3    H162491   6.505   1.425  16.605  0.6501  1.1839 -0.5162
13692TIP3    H262492   6.518   1.275  16.621 -1.1279  1.1971  1.3705
13693TIP3   OH262493   1.373   6.330  13.776  0.3421  0.4301  0.6340
13693TIP3    H162494   1.384   6.362  13.686 -0.0078 -0.7315  0.1625
13693TIP3    H262495   1.428   6.388  13.829  1.9394  0.0732 -0.5537
13694TIP3   OH262496   2.751   5.757  12.140  0.3169 -0.1949 -0.1530
13694TIP3    H162497   2.769   5.716  12.055  0.2451  0.7476 -0.6307
13694TIP3    H262498   2.666   5.799  12.129 -0.6844 -1.7782  1.0407
13695TIP3   OH262499   4.054   1.144   5.952  0.0472  0.2675 -0.1568
13695TIP3    H162500   4.044   1.236   5.928  1.3772  1.0394  1.9547
13695TIP3    H262501   3.984   1.128   6.016  0.0827 -0.0815 -0.1998
13696TIP3   OH262502   0.645   6.251   5.142  0.1528  0.3679 -0.2069
13696TIP3    H162503   0.628   6.345   5.137  0.8435  0.4999 -0.0946
13696TIP3    H262504   0.574   6.212   5.091 -0.7768  0.8764  0.6686
13697TIP3   OH262505   2.047   2.017  13.400 -0.1202 -0.1450 -0.7714
13697TIP3    H162506   2.075   1.935  13.440  1.0257 -0.4675 -2.1703
13697TIP3    H262507   2.118   2.040  13.340 -0.1475  2.1734  0.0033
13698TIP3   OH262508   5.533   4.647  12.425  0.0662 -0.0574 -0.0493
13698TIP3    H162509   5.455   4.690  12.461 -0.1808 -0.4229 -0.1492
13698TIP3    H262510   5.499   4.581  12.365  0.4402 -0.6270  0.3571
13699TIP3   OH262511   6.419   1.987  12.553  0.3081  0.1819  0.4768
13699TIP3    H162512   6.508   1.996  12.519  0.1879  1.5623  0.4622
13699TIP3    H262513   6.371   2.061  12.516 -1.0352 -0.8930 -0.0229
13700TIP3   OH262514   5.903   1.295   3.176 -0.0057  0.0630  0.3031
13700TIP3    H162515   5.846   1.365   3.208 -1.1463 -0.2928 -0.8712
13700TIP3    H262516   5.944   1.331   3.097 -0.4985 -0.5232 -0.2317
13701TIP3   OH262517   1.562   0.353   2.746 -0.4692  0.7234  0.0495
13701TIP3    H162518   1.560   0.438   2.790  2.1664  0.5326  0.7362
13701TIP3    H262519   1.641   0.356   2.692 -1.5033 -0.5294 -1.6013
13702TIP3   OH262520   2.186   2.281   3.026  0.2634  0.1857  0.2977
13702TIP3    H162521   2.179   2.189   2.999  0.2828  0.6022 -1.1915
13702TIP3    H262522   2.116   2.292   3.090 -0.1441 -0.7043  0.0291
13703TIP3   OH262523   5.943   0.114   0.921 -0.0688 -0.1103  0.1801
13703TIP3    H162524   5.910   0.081   1.004 -0.8859  2.5304  1.0251
13703TIP3    H262525   5.867   0.113   0.863 -0.5287  1.5673  0.6879
13704TIP3   OH262526   0.068   5.999  16.072  0.6247  0.1521  0.0721
13704TIP3    H162527   0.140   5.937  16.065  2.2199  2.0844 -1.5863
13704TIP3    H262528   0.005   5.970  16.006  1.4782  0.4330 -0.8746
13705TIP3   OH262529   5.088   5.004   4.527 -0.0716 -0.1188 -0.0777
13705TIP3    H162530   5.125   4.972   4.609  0.2883 -1.4479 -0.7395
13705TIP3    H262531   5.131   5.089   4.513  0.0230  0.0218  0.9783
13706TIP3   OH262532   5.111   5.193  16.561  0.7425  0.2762  0.4845
13706TIP3    H162533   5.202   5.216  16.543  0.1833  1.4593 -1.0726
13706TIP3    H262534   5.082   5.146  16.482 -0.4803  1.4554  0.1953
13707TIP3   OH262535   2.716   5.226   2.752 -0.1638 -0.0429  0.0853
13707TIP3    H162536   2.739   5.137   2.779  1.9015 -0.0617 -1.4915
13707TIP3    H262537   2.796   5.277   2.768  0.3007  0.4773 -3.2411
13708TIP3   OH262538   3.289   3.381  14.535  0.3147 -0.7927  0.2653
13708TIP3    H162539   3.208   3.432  14.530  1.7707  1.7801  1.2088
13708TIP3    H262540   3.318   3.391  14.625  2.1668 -0.8632 -0.2900
13709TIP3   OH262541   5.580   0.671   4.976  0.2859  0.1971 -0.4937
13709TIP3    H162542   5.593   0.581   4.948  0.1529  0.2550 -0.7471
13709TIP3    H262543   5.668   0.709   4.980  0.7966 -0.9713  3.2238
13710TIP3   OH262544   4.116   0.287   3.235  0.8293 -0.3016 -0.0667
13710TIP3    H162545   4.202   0.318   3.208 -0.3528  3.1439 -0.3149
13710TIP3    H262546   4.063   0.290   3.156 -0.1473  0.1758  0.5828
13711TIP3   OH262547   6.148   0.026   4.857 -0.2777  0.1754 -0.3725
13711TIP3    H162548   6.233   0.054   4.825 -0.4398 -0.9812 -1.9059
13711TIP3    H262549   6.168  -0.031   4.931  0.2941 -0.2848 -0.8749
13712TIP3   OH262550   2.412   6.256   5.145 -0.2453  0.6181  0.5307
13712TIP3    H162551   2.377   6.171   5.172 -1.7382  0.4091 -1.7695
13712TIP3    H262552   2.355   6.284   5.074  1.5167  2.5389 -0.2386
13713TIP3   OH262553   4.547   2.973  13.378  0.4921 -0.4705 -0.5609
13713TIP3    H162554   4.457   2.952  13.403  0.0858  0.8058 -0.8647
13713TIP3    H262555   4.579   2.895  13.333 -0.6131 -0.7848 -0.8282
13714TIP3   OH262556   3.728   6.784  16.279  0.5693  0.2370 -0.6018
13714TIP3    H162557   3.648   6.783  16.227  0.8652 -0.2694 -1.0527
13714TIP3    H262558   3.798   6.804  16.216  1.0038 -0.9364 -0.5149
13715TIP3   OH262559   6.602   1.725   1.054 -0.1752 -0.2815  0.2445
13715TIP3    H162560   6.532   1.789   1.063  0.2144  0.4114 -1.3243
13715TIP3    H262561   6.639   1.717   1.142 -2.3903 -0.9167  1.1896
13716TIP3   OH262562   5.501   5.169   2.655 -0.1250  0.2821 -0.3954
13716TIP3    H162563   5.588   5.208   2.652  0.2787 -0.4436  0.9605
13716TIP3    H262564   5.516   5.077   2.673 -1.1863  0.2737  0.5707
13717TIP3   OH262565   3.658   2.237  13.966  0.7472 -0.3077  0.4685
13717TIP3    H162566   3.597   2.236  14.040  0.6837 -1.7163  0.4188
13717TIP3    H262567   3.628   2.310  13.912  1.5896  1.6337  2.4512
13718TIP3   OH262568   0.420   3.836   5.489 -0.7214  0.1650  0.0022
13718TIP3    H162569   0.413   3.930   5.505 -0.8733  0.6154 -2.3014
13718TIP3    H262570   0.336   3.812   5.449  0.0868 -0.4657 -1.3876
13719TIP3   OH262571   6.102   5.561  15.283  0.0339  0.0983 -0.4913
13719TIP3    H162572   6.103   5.655  15.265  0.5788  0.1184 -0.3818
13719TIP3    H262573   6.061   5.554  15.369 -0.3210  0.2083 -0.6511
13720TIP3   OH262574   3.031   5.046   1.491  0.2924  0.7157  0.2688
13720TIP3    H162575   3.051   5.068   1.400 -1.3054 -1.5803 -0.7373
13720TIP3    H262576   3.076   4.962   1.505 -1.3451 -0.0967  0.8070
13721TIP3   OH262577   0.865   1.376   5.414  0.2698  0.3273 -0.1017
13721TIP3    H162578   0.814   1.456   5.422  0.0677  0.3656 -1.5266
13721TIP3    H262579   0.863   1.337   5.502 -2.6060  0.0961 -0.1868
13722TIP3   OH262580   2.055   2.241   4.223  0.5000 -0.2677 -0.3887
13722TIP3    H162581   1.962   2.235   4.201  0.1362 -0.9341  1.1475
13722TIP3    H262582   2.089   2.311   4.168 -0.9526  0.0957 -0.8607
13723TIP3   OH262583   4.604   2.253   5.687 -0.2009 -0.3110  0.4070
13723TIP3    H162584   4.692   2.219   5.671  0.2221  1.1318 -0.4765
13723TIP3    H262585   4.601   2.336   5.639 -0.6726  1.7377  3.6880
13724TIP3   OH262586   5.876   0.111  16.154 -0.3928  0.0790 -0.6067
13724TIP3    H162587   5.940   0.050  16.190 -0.1971  0.2147 -0.7308
13724TIP3    H262588   5.840   0.066  16.078 -1.6088 -0.6889  0.3809
13725TIP3   OH262589   6.089   2.335  12.257  0.2879  0.0663  0.2965
13725TIP3    H162590   6.013   2.279  12.270  0.3363 -0.1747 -0.4410
13725TIP3    H262591   6.099   2.381  12.341  1.4600 -2.4696  1.6686
13726TIP3   OH262592   0.741   4.323   3.617 -0.4008  0.4542 -0.0103
13726TIP3    H162593   0.789   4.393   3.663  0.1007  0.4101 -0.4546
13726TIP3    H262594   0.810   4.268   3.579 -0.8035  0.1900 -0.3680
13727TIP3   OH262595   2.416   5.394   6.135 -0.3992  0.2254  0.6686
13727TIP3    H162596   2.390   5.323   6.194  0.1225 -0.5844 -0.0552
13727TIP3    H262597   2.507   5.413   6.161  0.0242 -0.5213 -0.2315
13728TIP3   OH262598   6.066   6.007   6.257 -0.1074 -0.1504  0.0627
13728TIP3    H162599   5.996   6.010   6.322 -0.5460  0.3573 -0.4171
13728TIP3    H262600   6.065   6.095   6.217  0.4248 -0.3212 -0.3362
13729TIP3   OH262601   1.128   1.978  15.134 -0.4914  0.0988 -0.3506
13729TIP3    H162602   1.079   1.921  15.194 -0.6303  1.5777  1.0265
13729TIP3    H262603   1.139   2.059  15.183  0.2634  1.0376 -1.9999
13730TIP3   OH262604   2.362   0.728  14.382 -0.2916 -0.6754  0.1823
13730TIP3    H162605   2.316   0.646  14.365 -0.9508  0.0473 -1.7621
13730TIP3    H262606   2.309   0.795  14.338  1.7654  0.3927 -0.7797
13731TIP3   OH262607   5.795   4.252   4.950 -0.0085 -0.0869  0.3155
13731TIP3    H162608   5.844   4.174   4.925  1.3442  1.1247 -1.0848
13731TIP3    H262609   5.736   4.223   5.019  1.1147 -2.1200  0.4935
13732TIP3   OH262610   3.554   5.878   5.699  0.0409 -0.4072 -0.4100
13732TIP3    H162611   3.462   5.899   5.682  0.1445  2.2676  1.6407
13732TIP3    H262612   3.552   5.799   5.753 -1.1108 -0.2028 -0.1330
13733TIP3   OH262613   6.528   3.134   6.282 -0.2172 -0.1678  0.1710
13733TIP3    H162614   6.527   3.130   6.377  0.6772 -0.5647  0.1786
13733TIP3    H262615   6.606   3.085   6.257  1.1831  2.2479 -0.6331
13734TIP3   OH262616   5.513   5.808   4.364  0.2997  0.7089  0.2328
13734TIP3    H162617   5.546   5.731   4.411 -0.9529 -0.3988 -0.6531
13734TIP3    H262618   5.419   5.795   4.360  0.2469  1.4077 -1.4862
13735TIP3   OH262619   0.325   6.703   0.959  0.4666 -0.3713  0.0344
13735TIP3    H162620   0.388   6.719   0.889 -0.6967 -0.2594 -1.0331
13735TIP3    H262621   0.372   6.650   1.022  1.4264 -0.8711 -1.0601
13736TIP3   OH262622   4.261   6.768   3.134  0.3509  0.0681  0.3297
13736TIP3    H162623   4.348   6.805   3.142  1.4603 -2.0639 -0.9355
13736TIP3    H262624   4.233   6.791   3.045 -1.2005  2.2296  1.2817
13737TIP3   OH262625   0.863   4.776  15.180  0.3508 -0.1505 -0.7383
13737TIP3    H162626   0.786   4.828  15.157 -0.2482 -0.6729  0.0493
13737TIP3    H262627   0.916   4.834  15.235 -0.0359 -0.1753 -0.3368
13738TIP3   OH262628   4.325   3.980   1.093 -0.0756  0.2499 -0.1162
13738TIP3    H162629   4.245   3.966   1.043  0.2607  1.0621 -0.9236
13738TIP3    H262630   4.387   4.017   1.030  0.5603  0.7403  0.7595
13739TIP3   OH262631   5.727   3.016   1.525 -0.1130 -0.2250 -0.1435
13739TIP3    H162632   5.754   2.924   1.530  0.2114 -0.0832  2.5431
13739TIP3    H262633   5.800   3.064   1.564 -0.3491  1.1737 -1.3673
13740TIP3   OH262634   0.677   4.386  15.962  0.3769 -0.6355 -0.2958
13740TIP3    H162635   0.627   4.448  16.015 -0.7504 -2.9211  1.4969
13740TIP3    H262636   0.626   4.376  15.881 -0.8030 -1.0987  0.4842
13741TIP3   OH262637   0.323   1.741  17.080  0.1899  0.5192  0.4869
13741TIP3    H162638   0.358   1.830  17.081  0.8109  0.3142 -0.4292
13741TIP3    H262639   0.284   1.728  17.166  0.6179  1.4726  0.8328
13742TIP3   OH262640   0.882   5.601  16.786 -0.5310  0.7334 -0.3110
13742TIP3    H162641   0.942   5.592  16.712 -1.8372 -0.6970 -1.2586
13742TIP3    H262642   0.892   5.692  16.814  1.6717  0.6778 -0.7461
13743TIP3   OH262643   5.161   2.055   6.850  0.1071 -0.7658  0.7491
13743TIP3    H162644   5.153   2.144   6.882 -2.0849 -1.1147  1.3688
13743TIP3    H262645   5.238   2.019   6.894  1.8963  1.1883 -0.5888
13744TIP3   OH262646   3.789   3.300   6.154  0.0813 -0.3745 -0.4407
13744TIP3    H162647   3.813   3.210   6.134 -1.2834 -0.5699 -1.2726
13744TIP3    H262648   3.785   3.343   6.069  2.9835  1.1264  0.0428
13745TIP3   OH262649   3.402   6.455   3.919 -0.4523 -0.2010 -0.5889
13745TIP3    H162650   3.320   6.462   3.869 -0.0056  0.0290 -1.3147
13745TIP3    H262651   3.420   6.544   3.949 -0.3214 -0.1937 -0.6848
13746TIP3   OH262652   4.870   4.601  15.782  0.2976 -0.0703  0.4860
13746TIP3    H162653   4.916   4.520  15.761  0.5322  0.2108 -0.0964
13746TIP3    H262654   4.867   4.602  15.878  1.7335  0.0285  0.5595
13747TIP3   OH262655   3.186   6.702   0.863 -0.3007  0.2288  0.3695
13747TIP3    H162656   3.180   6.691   0.958 -0.1718  0.3009  0.3858
13747TIP3    H262657   3.120   6.643   0.828 -1.0792  0.9819  0.5444
13748TIP3   OH262658   5.635   1.463   2.865  0.1587  0.3997  0.1184
13748TIP3    H162659   5.719   1.509   2.856  0.4920 -0.1659  0.2802
13748TIP3    H262660   5.589   1.483   2.783  0.9553 -0.2713 -0.5221
13749TIP3   OH262661   2.694   3.280  13.639  0.1876 -0.2804 -0.1189
13749TIP3    H162662   2.770   3.300  13.584 -0.4651  0.3272 -0.8310
13749TIP3    H262663   2.660   3.366  13.663 -2.4469 -0.3789 -2.8812
13750TIP3   OH262664   2.578   0.785  11.993 -0.6380  0.9730  0.5800
13750TIP3    H162665   2.610   0.695  11.989 -1.4191  0.6475  1.4309
13750TIP3    H262666   2.644   0.835  11.945 -0.7787 -0.1949 -0.9290
13751TIP3   OH262667   3.662   4.578   3.785  0.1107  0.4816  0.1215
13751TIP3    H162668   3.650   4.650   3.724 -0.1423  1.3179  1.1212
13751TIP3    H262669   3.746   4.539   3.762 -0.1345  0.5731 -0.9510
13752TIP3   OH262670   2.752   5.013  15.091 -0.1690  0.6463  0.3961
13752TIP3    H162671   2.700   4.981  15.017  0.8655 -3.0825  1.0660
13752TIP3    H262672   2.841   5.017  15.058 -0.0167  1.1246  0.8631
13753TIP3   OH262673   4.454   5.209  11.440 -0.0241 -0.2100  0.1842
13753TIP3    H162674   4.509   5.131  11.433  1.3274  0.5249  1.7520
13753TIP3    H262675   4.510   5.280  11.408 -0.7580  0.2924  0.0051
13754TIP3   OH262676   6.745   0.760  11.614  0.0938  0.0412  0.0715
13754TIP3    H162677   6.720   0.808  11.535 -0.0637 -1.4096 -0.8051
13754TIP3    H262678   6.827   0.717  11.590  0.0540 -0.3867  0.7001
13755TIP3   OH262679   2.294   0.394   1.332 -0.3095 -0.4868  0.1048
13755TIP3    H162680   2.216   0.443   1.356  0.5174  0.9611 -0.0759
13755TIP3    H262681   2.305   0.329   1.402 -1.2792 -0.2474  0.4830
13756TIP3   OH262682   1.112   5.165   6.041 -0.1455  0.4354  0.3717
13756TIP3    H162683   1.059   5.166   6.121  0.7597 -0.0530  0.9967
13756TIP3    H262684   1.099   5.252   6.003 -1.8342  0.1379  0.1958
13757TIP3   OH262685   0.671   4.746   2.655  0.3530 -0.2713 -0.2662
13757TIP3    H162686   0.654   4.822   2.599  1.2803 -1.0252 -1.6646
13757TIP3    H262687   0.762   4.756   2.682  0.5408 -0.9400 -0.6030
13758TIP3   OH262688   3.078   6.012  15.982  0.7719 -0.1579 -0.1765
13758TIP3    H162689   3.172   5.991  15.978  0.8917  0.5812 -1.7081
13758TIP3    H262690   3.071   6.097  15.939 -0.3930  0.6093  1.4332
13759TIP3   OH262691   4.772   5.630  11.728 -0.1461 -0.3751  0.5358
13759TIP3    H162692   4.832   5.585  11.668 -1.7355  0.7973 -2.1092
13759TIP3    H262693   4.685   5.616  11.690 -1.1360  1.2132  2.0831
13760TIP3   OH262694   5.358   4.593  13.439  0.1708  0.0490 -0.3567
13760TIP3    H162695   5.401   4.531  13.498  0.4108  0.8570  0.3488
13760TIP3    H262696   5.301   4.645  13.496  1.1949  1.5445 -0.6288
13761TIP3   OH262697   4.284   0.740  13.224  0.7160 -0.1751 -0.0277
13761TIP3    H162698   4.261   0.648  13.237  0.3679 -0.2075 -0.8317
13761TIP3    H262699   4.209   0.789  13.259  1.2381 -0.1584  1.1253
13762TIP3   OH262700   3.866   5.961  13.414 -0.0212 -0.0122 -0.2504
13762TIP3    H162701   3.941   5.918  13.456 -1.3497 -2.2941 -0.0570
13762TIP3    H262702   3.806   5.981  13.485 -0.0667  0.8098 -0.5178
13763TIP3   OH262703   5.577   0.404   1.378  0.3598  0.3465 -0.0085
13763TIP3    H162704   5.494   0.447   1.397  0.2503 -0.1187  0.5776
13763TIP3    H262705   5.633   0.474   1.345  1.0168  1.5190  3.2335
13764TIP3   OH262706   3.232   6.597  14.606 -0.0120  0.4986 -0.0357
13764TIP3    H162707   3.323   6.569  14.602 -0.3043 -0.3035 -3.0289
13764TIP3    H262708   3.236   6.684  14.647  2.3931  1.4788 -2.0860
13765TIP3   OH262709   4.960   4.908   2.434  0.2468 -0.8177  0.1852
13765TIP3    H162710   4.954   4.969   2.361 -0.6824 -0.5218  0.4990
13765TIP3    H262711   5.049   4.921   2.468 -0.7720  2.4836  2.0218
13766TIP3   OH262712   4.282   5.447   3.527 -0.0958  1.2022  0.1629
13766TIP3    H162713   4.372   5.433   3.496 -0.0321 -0.2969  0.9399
13766TIP3    H262714   4.241   5.360   3.521 -0.8715  1.4302  1.7598
13767TIP3   OH262715   3.252   4.277   1.729  0.0085 -0.2822 -0.1790
13767TIP3    H162716   3.309   4.354   1.730  0.8989 -0.9341  0.6828
13767TIP3    H262717   3.188   4.293   1.798 -0.1127 -0.0966 -0.3334
13768TIP3   OH262718   0.284   2.693   0.370  0.4693 -0.5141  0.4077
13768TIP3    H162719   0.373   2.659   0.371  0.4415 -0.7524 -1.5623
13768TIP3    H262720   0.258   2.692   0.278 -0.8453  1.4516  0.6807
13769TIP3   OH262721   0.580   4.816   0.536  0.5941 -0.0254 -0.4600
13769TIP3    H162722   0.637   4.806   0.612 -0.2629 -1.0028  0.0772
13769TIP3    H262723   0.512   4.878   0.565  0.2837 -0.3754 -0.4400
13770TIP3   OH262724   0.512   2.515  10.923  0.2118 -0.1523 -0.0807
13770TIP3    H162725   0.559   2.517  10.840 -1.9225  1.3401 -1.3555
13770TIP3    H262726   0.424   2.547  10.902 -0.7726 -0.8290  2.5464
13771TIP3   OH262727   5.769   3.942   3.160 -1.0988  0.1311 -0.3018
13771TIP3    H162728   5.740   3.965   3.248 -1.4231 -0.5871 -0.2128
13771TIP3    H262729   5.728   4.007   3.103 -3.1589 -0.9886 -0.2067
13772TIP3   OH262730   5.531   5.984  15.812  0.2453  0.0270 -0.4305
13772TIP3    H162731   5.503   5.981  15.721 -1.1807 -2.1131 -0.0035
13772TIP3    H262732   5.532   6.077  15.834 -1.0143  0.4964 -2.1465
13773TIP3   OH262733   4.402   4.104  13.915  0.6458 -0.6163  0.1488
13773TIP3    H162734   4.483   4.156  13.913 -0.0799  0.5398 -0.0014
13773TIP3    H262735   4.404   4.055  13.832  1.5371 -1.1773  0.4787
13774TIP3   OH262736   6.208   3.710  14.975  0.7933  0.3137 -0.2318
13774TIP3    H162737   6.213   3.805  14.974 -0.3802  0.4826 -3.7068
13774TIP3    H262738   6.218   3.684  14.883  3.3354 -3.1267  0.7728
13775TIP3   OH262739   4.868   1.732  16.294 -0.3628 -0.3031  0.4567
13775TIP3    H162740   4.893   1.660  16.237 -0.3369 -0.2281  0.3724
13775TIP3    H262741   4.775   1.719  16.311 -1.1097  1.2163 -1.8767
13776TIP3   OH262742   5.593   1.255   5.666  0.1757  0.3200  0.5913
13776TIP3    H162743   5.683   1.225   5.671 -0.3159 -1.0386  1.9244
13776TIP3    H262744   5.572   1.285   5.754 -0.3677  1.6453  0.0444
13777TIP3   OH262745   1.320   2.211  14.898 -0.2504 -0.2297  0.1883
13777TIP3    H162746   1.383   2.227  14.968  0.3992  2.6366 -0.9170
13777TIP3    H262747   1.359   2.250  14.820 -1.2839 -2.6700 -1.6728
13778TIP3   OH262748   5.396   3.615   4.596  0.0987 -0.2619  0.6115
13778TIP3    H162749   5.389   3.683   4.663 -1.2074  0.6078 -0.3632
13778TIP3    H262750   5.316   3.624   4.544  1.2981 -0.5581 -1.3755
13779TIP3   OH262751   3.211   1.509  11.099 -0.3850 -0.5524  0.8152
13779TIP3    H162752   3.267   1.587  11.093 -2.8113  1.1970 -2.2532
13779TIP3    H262753   3.131   1.540  11.142 -0.1964 -2.2653  2.5220
13780TIP3   OH262754   6.545   2.585  14.288  0.6057 -0.3816 -0.3780
13780TIP3    H162755   6.634   2.564  14.317  0.2717 -1.9325 -0.3923
13780TIP3    H262756   6.488   2.532  14.345 -0.5055  2.3836  1.3314
13781TIP3   OH262757   3.533   5.027   4.514 -0.3348 -0.1084  0.2394
13781TIP3    H162758   3.620   5.060   4.537  0.1916 -0.3531 -1.3022
13781TIP3    H262759   3.505   5.081   4.441 -1.0635 -0.6715  0.0913
13782TIP3   OH262760   3.067   3.170  14.735 -0.7055 -0.3491 -0.2726
13782TIP3    H162761   3.086   3.084  14.697 -0.0459  0.1988 -1.2374
13782TIP3    H262762   3.055   3.227  14.659  0.8691  0.8327  0.3184
13783TIP3   OH262763   3.115   0.577   2.655 -0.2549  0.2192  0.6236
13783TIP3    H162764   3.141   0.613   2.739 -1.6080 -0.0704  1.1792
13783TIP3    H262765   3.175   0.618   2.592  2.0110 -0.9316  1.9012
13784TIP3   OH262766   2.570   6.181   0.997  0.0330  0.1440 -0.1557
13784TIP3    H162767   2.625   6.245   0.951  1.2183  1.5260  2.9048
13784TIP3    H262768   2.603   6.096   0.969 -0.2405  0.8171 -2.8004
13785TIP3   OH262769   4.294   5.604  12.170  0.2250  0.5935 -0.0395
13785TIP3    H162770   4.318   5.674  12.230  0.0451 -0.4251  1.2753
13785TIP3    H262771   4.378   5.576  12.132  0.0900  2.8635 -2.1981
13786TIP3   OH262772   6.487   5.634   0.714  0.1494 -0.4005 -0.0914
13786TIP3    H162773   6.517   5.724   0.704 -2.6807  0.5704 -0.9286
13786TIP3    H262774   6.525   5.587   0.640 -0.4324  0.7645 -1.1555
13787TIP3   OH262775   0.395   2.638   4.492 -0.4134 -0.2963 -0.6001
13787TIP3    H162776   0.327   2.584   4.452 -0.0405  0.9315 -3.0796
13787TIP3    H262777   0.437   2.684   4.419  4.4761 -2.4070  0.4529
13788TIP3   OH262778   3.505   0.795  14.930  0.3807  0.2419 -0.1163
13788TIP3    H162779   3.555   0.831  15.003 -0.1740  0.8150 -0.0180
13788TIP3    H262780   3.531   0.848  14.854 -0.7048  1.1137  0.0965
13789TIP3   OH262781   5.209   6.529  13.472  0.3286 -0.3183 -0.0457
13789TIP3    H162782   5.216   6.520  13.377 -1.9533 -0.8471 -0.2357
13789TIP3    H262783   5.179   6.619  13.485  2.0591  0.2359  0.3136
13790TIP3   OH262784   3.102   6.508   0.232  0.0295  0.3048 -0.0540
13790TIP3    H162785   3.178   6.557   0.200 -0.3063  0.6038 -0.3983
13790TIP3    H262786   3.035   6.575   0.246  0.8097  0.5396  3.3937
13791TIP3   OH262787   6.532   1.840   6.292 -0.3767  0.2429 -0.3170
13791TIP3    H162788   6.553   1.831   6.385 -1.4420  2.2158  0.1561
13791TIP3    H262789   6.562   1.927   6.268 -0.2742 -0.1608 -1.8099
13792TIP3   OH262790   3.797   2.772  14.831  0.4145 -0.3824 -0.1785
13792TIP3    H162791   3.751   2.832  14.890  0.1241 -0.6044 -0.1792
13792TIP3    H262792   3.766   2.795  14.744 -0.3330 -1.0919 -0.1050
13793TIP3   OH262793   1.058   2.804   5.451  0.2588  0.2318 -0.8096
13793TIP3    H162794   1.102   2.799   5.366 -0.2029 -1.3075 -0.9885
13793TIP3    H262795   1.067   2.716   5.488 -0.9778  0.4182 -0.0058
13794TIP3   OH262796   3.809   2.882  16.224  0.4329 -0.0666  0.2639
13794TIP3    H162797   3.813   2.820  16.151  1.9644 -1.0031  1.0876
13794TIP3    H262798   3.717   2.885  16.249  0.0313 -0.4429 -1.0973
13795TIP3   OH262799   5.247   3.167  16.362 -0.4655  0.0413 -0.4481
13795TIP3    H162800   5.227   3.077  16.389  0.2513 -0.1519 -0.5591
13795TIP3    H262801   5.265   3.161  16.268 -0.4682  0.3096 -0.4659
13796TIP3   OH262802   4.497   4.768   1.880  0.9515 -0.2099  0.0691
13796TIP3    H162803   4.514   4.674   1.875 -0.6100 -0.4590 -1.1242
13796TIP3    H262804   4.403   4.775   1.897  0.3056  1.1178 -3.3497
13797TIP3   OH262805   3.269   2.980  11.173 -0.2877 -0.4058 -0.0293
13797TIP3    H162806   3.215   3.030  11.111 -0.9739 -1.8919 -0.6988
13797TIP3    H262807   3.353   2.971  11.130  0.6337  2.0363  1.0734
13798TIP3   OH262808   4.785   4.132   6.470 -0.4048 -0.0191  0.0193
13798TIP3    H162809   4.713   4.195   6.464  0.3649  0.8777 -0.0513
13798TIP3    H262810   4.785   4.104   6.562  0.0177  1.0277  0.3478
13799TIP3   OH262811   3.499   0.011  16.131  0.2834  0.0255 -0.0402
13799TIP3    H162812   3.524  -0.063  16.076  0.7594  0.2872 -0.1741
13799TIP3    H262813   3.458   0.073  16.071  0.6200  0.2231 -0.0662
13800TIP3   OH262814   2.038   2.796  12.624 -0.5673  0.0783  0.3213
13800TIP3    H162815   1.948   2.778  12.651 -0.2262 -0.2058  1.2838
13800TIP3    H262816   2.091   2.775  12.700  0.3343  0.1329 -0.2777
13801TIP3   OH262817   4.900   0.025   0.185 -0.5794  0.1271  0.6161
13801TIP3    H162818   4.891   0.054   0.095 -0.7202 -0.7676  0.3299
13801TIP3    H262819   4.981  -0.027   0.186 -0.1435  0.7953  1.1888
13802TIP3   OH262820   0.676   0.455   6.209  0.1147 -0.4182  0.3182
13802TIP3    H162821   0.693   0.519   6.278  1.2278  0.1692 -0.4689
13802TIP3    H262822   0.704   0.371   6.247  4.3815  0.3625 -0.5851
13803TIP3   OH262823   4.121   4.320   3.189 -0.3748  0.3243 -0.1283
13803TIP3    H162824   4.149   4.350   3.276 -0.4302 -1.4576  0.5452
13803TIP3    H262825   4.046   4.376   3.168 -1.7063 -0.5614  1.9272
13804TIP3   OH262826   5.516   4.907   1.214 -0.5139  0.0241  0.7170
13804TIP3    H162827   5.437   4.872   1.256 -0.6091  0.5824  1.0060
13804TIP3    H262828   5.533   4.847   1.141 -2.8439  1.4366 -1.1281
13805TIP3   OH262829   5.240   4.288   0.813  0.1589 -0.0104 -0.2881
13805TIP3    H162830   5.255   4.372   0.770  1.1746 -0.5284 -0.9698
13805TIP3    H262831   5.145   4.281   0.820  0.0688  1.2823 -0.0427
13806TIP3   OH262832   5.715   1.397  12.538  0.2436  0.2698 -0.1012
13806TIP3    H162833   5.729   1.491  12.543  0.2584  0.2239  0.8520
13806TIP3    H262834   5.768   1.361  12.608 -0.7568 -0.3351  0.3632
13807TIP3   OH262835   4.268   1.479   2.347 -0.6425 -0.3961  0.2149
13807TIP3    H162836   4.230   1.475   2.435  0.2280  1.2877  0.6997
13807TIP3    H262837   4.325   1.556   2.348  0.5754 -1.2012 -1.3585
13808TIP3   OH262838   5.437   2.419  16.880 -0.3926  0.1586  0.0756
13808TIP3    H162839   5.432   2.423  16.784  1.4186  0.8582 -0.0241
13808TIP3    H262840   5.514   2.471  16.902 -1.6857  1.3779  2.0409
13809TIP3   OH262841   5.631   2.078   1.926  0.2075 -0.1304  0.3718
13809TIP3    H162842   5.656   2.020   1.854 -1.1738 -0.8827  0.4707
13809TIP3    H262843   5.597   2.157   1.882 -0.7760 -0.6494  0.1802
13810TIP3   OH262844   5.893   4.261  16.962 -0.5598 -0.0856 -0.2509
13810TIP3    H162845   5.973   4.254  16.910 -0.1349 -1.1689  0.5213
13810TIP3    H262846   5.911   4.333  17.024 -0.2072 -0.2786 -0.1282
13811TIP3   OH262847   3.306   3.283  12.260 -0.1966 -0.1396  0.2989
13811TIP3    H162848   3.244   3.307  12.192 -1.5247 -0.0144  1.5067
13811TIP3    H262849   3.271   3.202  12.298  1.0356 -0.7440  0.2179
13812TIP3   OH262850   3.725   1.041   0.482  0.0397 -0.0627  0.5927
13812TIP3    H162851   3.693   1.099   0.412 -0.0840  0.1353  0.8100
13812TIP3    H262852   3.800   1.088   0.519  0.7690 -0.6504 -0.0940
13813TIP3   OH262853   6.492   4.200  10.866 -0.0917  0.0349  0.5802
13813TIP3    H162854   6.403   4.234  10.853 -0.0901 -0.4886 -1.1696
13813TIP3    H262855   6.547   4.254  10.809  1.1016  1.6932  3.1661
13814TIP3   OH262856   5.882   3.248   3.256 -0.3395 -0.2417 -0.2764
13814TIP3    H162857   5.901   3.214   3.343  0.5418 -0.5721 -0.5867
13814TIP3    H262858   5.960   3.228   3.205 -0.1987  1.3530 -0.7393
13815TIP3   OH262859   6.605   5.024  16.930 -0.2304  0.2197 -0.0168
13815TIP3    H162860   6.633   5.000  17.018  1.6704 -0.6365 -0.7978
13815TIP3    H262861   6.664   4.975  16.872 -1.9214  0.1744 -1.7786
13816TIP3   OH262862   3.100   0.292   0.800 -0.0326 -0.6495  0.8062
13816TIP3    H162863   3.149   0.219   0.762  0.3207  0.5152 -1.1225
13816TIP3    H262864   3.009   0.261   0.804  0.0281 -1.0598 -0.4780
13817TIP3   OH262865   0.485   1.717   2.626 -0.6376 -0.3378 -0.5090
13817TIP3    H162866   0.509   1.808   2.612  0.8921 -0.5143  0.7509
13817TIP3    H262867   0.389   1.716   2.615 -0.8106  1.6017  0.4425
13818TIP3   OH262868   1.660   4.769  13.905 -0.0631 -0.1139 -0.4456
13818TIP3    H162869   1.721   4.840  13.925 -2.2825  2.1473 -1.2873
13818TIP3    H262870   1.619   4.748  13.989  0.9590 -0.8683 -0.0968
13819TIP3   OH262871   5.327   2.035  12.674 -0.2334  0.2259 -0.5708
13819TIP3    H162872   5.392   2.009  12.739 -0.1289 -0.3067 -0.8822
13819TIP3    H262873   5.331   2.131  12.673  0.1232  0.2171 -0.1596
13820TIP3   OH262874   3.446   4.913   2.608 -0.3740  0.2103 -0.0928
13820TIP3    H162875   3.373   4.925   2.548  0.7176 -1.0125 -1.7396
13820TIP3    H262876   3.518   4.884   2.553  0.1501 -2.9966  2.0066
13821TIP3   OH262877   5.201   1.175  15.239  0.1272  0.5394 -0.2579
13821TIP3    H162878   5.209   1.265  15.206 -0.4669  0.8764  0.4772
13821TIP3    H262879   5.113   1.148  15.214 -0.8200  1.2541  2.0270
13822TIP3   OH262880   2.183   6.500   5.298 -0.1441  0.0538  0.2694
13822TIP3    H162881   2.275   6.523   5.283 -0.4453  1.5967  0.6204
13822TIP3    H262882   2.163   6.436   5.229  1.3861 -0.9015  0.6655
13823TIP3   OH262883   5.364   6.072  12.410 -0.0012 -0.5396 -0.2624
13823TIP3    H162884   5.358   6.012  12.336  2.3617  0.2131 -1.1498
13823TIP3    H262885   5.413   6.023  12.476 -0.2631 -0.4611 -0.0095
13824TIP3   OH262886   5.887   4.216  11.523 -0.0624  0.3686 -0.2446
13824TIP3    H162887   5.799   4.193  11.552 -0.0489 -1.0939 -1.2364
13824TIP3    H262888   5.934   4.132  11.520  1.5818  1.1935  0.9038
13825TIP3   OH262889   0.059   6.672   6.037  0.4332  0.1118  0.1709
13825TIP3    H162890   0.106   6.656   5.955  1.8900  0.5491  0.8850
13825TIP3    H262891   0.106   6.620   6.102  0.2802  0.9965  1.0123
13826TIP3   OH262892   1.836   5.313  16.707 -0.1616  0.0236  0.1398
13826TIP3    H162893   1.797   5.325  16.793  0.0414 -1.0823  0.4003
13826TIP3    H262894   1.812   5.223  16.682  2.1992 -0.7119  0.3107
13827TIP3   OH262895   3.289   2.676  11.232  0.2732 -0.2174 -0.4900
13827TIP3    H162896   3.271   2.744  11.168  0.0426  0.5849  0.3969
13827TIP3    H262897   3.341   2.720  11.300 -0.8722 -0.5919  0.6819
13828TIP3   OH262898   4.134   4.294  11.751  0.3355  0.3126 -0.7497
13828TIP3    H162899   4.130   4.251  11.666 -0.7932 -1.3383  0.0912
13828TIP3    H262900   4.066   4.252  11.803  1.0166  1.2547  0.9910
13829TIP3   OH262901   1.707   3.402   4.279 -0.2272 -0.6192 -0.1403
13829TIP3    H162902   1.643   3.470   4.297 -0.5889 -0.8895 -0.3776
13829TIP3    H262903   1.720   3.406   4.184  3.5779  2.5203  0.2688
13830TIP3   OH262904   6.702   4.161   0.821  0.2775  0.2244 -0.0276
13830TIP3    H162905   6.777   4.137   0.767 -0.2190 -0.5035 -0.4084
13830TIP3    H262906   6.731   4.240   0.868  2.3909 -1.6960  2.1775
13831TIP3   OH262907   4.195   3.525   6.509  0.3081 -0.3501  0.5407
13831TIP3    H162908   4.157   3.612   6.522 -1.1368 -0.3818 -2.5846
13831TIP3    H262909   4.267   3.539   6.447  0.0636 -1.3723  0.0036
13832TIP3   OH262910   4.491   1.119   1.281  0.5199 -0.3763  0.3776
13832TIP3    H162911   4.581   1.146   1.265 -0.0472  0.4314 -1.8129
13832TIP3    H262912   4.497   1.025   1.297  1.6951 -0.5287 -0.7385
13833TIP3   OH262913   3.688   6.695   1.270 -0.2758  0.1000 -0.3120
13833TIP3    H162914   3.745   6.723   1.198 -0.6273  0.0365 -0.6217
13833TIP3    H262915   3.670   6.774   1.319  0.9571 -0.0507  0.4356
13834TIP3   OH262916   3.188   6.106  12.729  0.3441 -0.3431  0.0453
13834TIP3    H162917   3.272   6.137  12.761  0.1068  1.8610 -1.2735
13834TIP3    H262918   3.172   6.156  12.649 -2.0685 -0.9295  0.0638
13835TIP3   OH262919   3.632   1.162  17.128  0.2065 -0.1733  0.0937
13835TIP3    H162920   3.642   1.255  17.106  0.2164 -0.1101  0.3660
13835TIP3    H262921   3.545   1.139  17.096  0.7195 -0.4125 -1.1987
13836TIP3   OH262922   0.272   0.745   4.355 -0.3422  0.2453  0.4868
13836TIP3    H162923   0.307   0.657   4.366 -0.4322  0.3688  2.0030
13836TIP3    H262924   0.262   0.756   4.260 -1.4186 -1.7956  0.3180
13837TIP3   OH262925   4.893   2.020   5.113  0.0394 -0.1188  0.1922
13837TIP3    H162926   4.923   2.059   5.195  1.2618 -0.8838  0.1160
13837TIP3    H262927   4.871   1.930   5.135 -2.3829  0.4006  0.2711
13838TIP3   OH262928   0.220   3.876   4.296 -0.3399  0.4720  0.1297
13838TIP3    H162929   0.130   3.910   4.288 -0.2946  0.3700 -0.9868
13838TIP3    H262930   0.209   3.790   4.336 -0.9618 -0.4305 -1.8755
13839TIP3   OH262931   3.615   3.392  10.517  0.0427 -0.2746 -0.8492
13839TIP3    H162932   3.685   3.421  10.576  1.6759 -0.8107 -2.4546
13839TIP3    H262933   3.645   3.308  10.483 -1.6846 -0.8153 -1.1309
13840TIP3   OH262934   3.302   2.225   4.615  0.2257  0.2005  0.3755
13840TIP3    H162935   3.346   2.189   4.692  0.8428 -0.5423 -0.3116
13840TIP3    H262936   3.340   2.178   4.541 -0.8305  0.4372 -0.3432
13841TIP3   OH262937   5.400   1.275  13.834  0.1280 -0.2767 -0.3067
13841TIP3    H162938   5.465   1.341  13.859  1.0748 -1.9178  1.9549
13841TIP3    H262939   5.321   1.299  13.883  1.2977 -2.1838  2.8919
13842TIP3   OH262940   4.827   4.058  14.030 -0.1480  0.1529  0.4335
13842TIP3    H162941   4.897   4.078  13.967 -0.9236  1.2876 -0.1113
13842TIP3    H262942   4.868   4.068  14.116  0.7482 -0.7406  0.1344
13843TIP3   OH262943   0.926   2.723  16.401 -0.2838 -0.1192  0.6009
13843TIP3    H162944   1.009   2.734  16.446  1.6257 -2.2538 -2.0543
13843TIP3    H262945   0.880   2.656  16.450  1.1986 -1.5219  0.1455
13844TIP3   OH262946   6.163   4.710  12.153  0.2617 -0.1999 -0.5722
13844TIP3    H162947   6.194   4.788  12.107  1.4303 -0.9461 -1.1215
13844TIP3    H262948   6.072   4.728  12.173  0.6240  1.4781 -0.3010
13845TIP3   OH262949   2.723   6.631  11.507 -0.6043 -0.2935  0.0643
13845TIP3    H162950   2.774   6.552  11.525 -0.9071 -0.4367  0.3112
13845TIP3    H262951   2.650   6.628  11.570 -0.2608  0.5119  0.5245
13846TIP3   OH262952   3.814   6.376  12.366 -0.2896  0.5535 -0.5754
13846TIP3    H162953   3.831   6.395  12.274 -3.3802  2.8441 -0.8242
13846TIP3    H262954   3.819   6.461  12.409  1.2431 -0.4855  1.4933
13847TIP3   OH262955   6.481   2.883   5.973 -0.0667 -0.1628 -0.5493
13847TIP3    H162956   6.424   2.815   6.008 -0.7541  0.6613 -0.0168
13847TIP3    H262957   6.442   2.965   6.003  1.7684  0.4263  0.3921
13848TIP3   OH262958   6.078   3.697   0.081  0.2871 -0.1879 -0.2409
13848TIP3    H162959   6.127   3.615   0.077 -1.4384 -1.4869  2.2269
13848TIP3    H262960   6.114   3.743   0.156 -2.2566 -1.3177  1.8300
13849TIP3   OH262961   4.242   1.611   0.116 -0.4539 -0.4445  0.5412
13849TIP3    H162962   4.200   1.555   0.050 -0.5469  1.0582 -0.7389
13849TIP3    H262963   4.271   1.688   0.067  2.4276 -0.6740  1.6407
13850TIP3   OH262964   2.249   2.022  17.160 -0.2633  0.1938  0.1364
13850TIP3    H162965   2.186   1.950  17.166 -0.1674 -0.3366 -3.2445
13850TIP3    H262966   2.332   1.983  17.184 -0.4912 -0.3613  0.0333
13851TIP3   OH262967   5.484   4.029  11.807  0.1735  0.4110  0.1624
13851TIP3    H162968   5.396   3.994  11.788  0.6923  0.4714 -2.7882
13851TIP3    H262969   5.468   4.099  11.870 -1.8360  0.1289  0.0590
13852TIP3   OH262970   6.195   2.785   5.578 -0.2967 -0.1932 -0.1331
13852TIP3    H162971   6.151   2.868   5.596 -0.6339 -0.4834  0.4209
13852TIP3    H262972   6.288   2.806   5.582 -0.3738  0.0399  0.6501
13853TIP3   OH262973   3.578   5.082   2.857 -0.3393 -0.8223 -0.1418
13853TIP3    H162974   3.600   5.128   2.776  0.7964 -0.6106  0.2632
13853TIP3    H262975   3.621   4.996   2.847  0.9455 -0.3130  0.7724
13854TIP3   OH262976   3.946   1.112  11.441 -0.2589 -0.2537  0.3422
13854TIP3    H162977   3.995   1.030  11.442  0.1290 -0.0223  1.4049
13854TIP3    H262978   3.895   1.109  11.360  0.1777 -1.2881  0.0994
13855TIP3   OH262979   6.707   0.653  14.869 -0.4011  0.4577 -0.2544
13855TIP3    H162980   6.714   0.588  14.939  1.1667  1.3620  0.4803
13855TIP3    H262981   6.628   0.627  14.821 -0.7114 -1.0407  0.9564
13856TIP3   OH262982   4.637   6.269  13.333 -0.0212 -0.0908  0.5249
13856TIP3    H162983   4.543   6.284  13.318 -0.0541 -0.3820  0.4417
13856TIP3    H262984   4.640   6.208  13.406  0.1207  0.4990  1.0165
13857TIP3   OH262985   1.287   0.536   2.323  0.7092  0.4307  0.3081
13857TIP3    H162986   1.272   0.452   2.368 -0.9120 -0.3574 -1.5252
13857TIP3    H262987   1.205   0.584   2.337  0.5773  0.5753 -0.9073
13858TIP3   OH262988   3.133   0.074  15.666 -0.0592 -0.4857  0.2146
13858TIP3    H162989   3.160   0.164  15.650  0.3095 -0.8407 -1.3247
13858TIP3    H262990   3.204   0.021  15.630 -0.3089 -1.3930  1.0346
13859TIP3   OH262991   0.009   0.843   4.462  0.1911  0.5887 -0.3353
13859TIP3    H162992   0.063   0.769   4.436 -0.9598 -0.4686  0.1545
13859TIP3    H262993   0.067   0.919   4.458  1.4556 -0.3737 -0.6282
13860TIP3   OH262994   5.976   0.836   2.128 -0.5505  0.3236 -0.7899
13860TIP3    H162995   5.990   0.864   2.038 -3.7065  1.7360 -0.9722
13860TIP3    H262996   5.969   0.917   2.178  1.6584 -0.4287  0.9473
13861TIP3   OH262997   5.166   3.908   5.031 -0.1621  0.1277 -0.0963
13861TIP3    H162998   5.125   3.840   5.084  1.5523 -0.4619  0.5664
13861TIP3    H262999   5.193   3.863   4.950 -1.6004  0.7213 -0.9343
13862TIP3   OH263000   3.175   5.580   3.683 -0.1092 -0.3915 -0.1683
13862TIP3    H163001   3.081   5.579   3.702  0.1193 -1.8147  1.1374
13862TIP3    H263002   3.185   5.525   3.605 -0.4830  0.9655 -1.2084
13863TIP3   OH263003   1.304   1.933  11.636  0.1350  0.2413  0.2923
13863TIP3    H163004   1.228   1.980  11.672 -0.7176 -1.0632  0.2751
13863TIP3    H263005   1.278   1.909  11.548  0.2734 -0.8574  0.5402
13864TIP3   OH263006   4.297   3.152   3.018 -0.2410  0.5234 -0.0933
13864TIP3    H163007   4.253   3.207   2.953 -0.2206  0.6258 -0.0194
13864TIP3    H263008   4.306   3.208   3.095  0.0564  0.5151 -0.1234
13865TIP3   OH263009   1.242   5.393   2.099  0.3357 -0.5488 -0.2530
13865TIP3    H163010   1.178   5.462   2.117 -1.2311 -1.2152 -2.7945
13865TIP3    H263011   1.200   5.313   2.130  1.8029 -0.5653  1.9223
13866TIP3   OH263012   2.165   0.191  11.085  0.5867 -0.8582 -0.0548
13866TIP3    H163013   2.184   0.241  11.006  0.1167 -1.6726 -0.6948
13866TIP3    H263014   2.167   0.256  11.156  0.7820 -0.0830 -0.7560
13867TIP3   OH263015   3.845   4.247  15.596 -0.1159 -0.0610 -0.5639
13867TIP3    H163016   3.765   4.298  15.585 -1.0513 -1.1181  0.9569
13867TIP3    H263017   3.828   4.166  15.548 -1.6600 -1.9746  2.8394
13868TIP3   OH263018   3.699   2.402  16.135  0.2965  0.1345 -0.2624
13868TIP3    H163019   3.687   2.359  16.050 -0.9513 -1.2653  0.5668
13868TIP3    H263020   3.613   2.398  16.176  1.2741 -0.9842  1.8515
13869TIP3   OH263021   4.093   0.508   0.561 -0.0531  0.0139  0.3866
13869TIP3    H163022   4.128   0.530   0.475 -0.7956 -0.2506  0.0057
13869TIP3    H263023   4.019   0.449   0.543 -0.7882  0.6725  1.1455
13870TIP3   OH263024   3.442   0.915   3.148  0.1466 -0.1604 -0.5721
13870TIP3    H163025   3.479   0.976   3.212  0.9595  0.2382 -1.3939
13870TIP3    H263026   3.510   0.907   3.080 -0.9193 -0.1179 -1.6832
13871TIP3   OH263027   6.223   1.008   6.649 -1.0141  0.1959 -0.1522
13871TIP3    H163028   6.219   0.918   6.682 -1.0797 -0.6667 -2.3309
13871TIP3    H263029   6.132   1.033   6.635 -0.9522 -0.3024 -1.6853
13872TIP3   OH263030   4.019   4.777  13.715 -0.1403 -0.3278 -0.0347
13872TIP3    H163031   4.010   4.759  13.622 -1.1701 -1.9637  0.3509
13872TIP3    H263032   3.932   4.802  13.744 -0.4680 -2.4455  0.9787
13873TIP3   OH263033   2.149   2.420   1.064 -0.2065 -0.3869  0.7342
13873TIP3    H163034   2.149   2.355   0.993 -2.0545  1.6627 -1.3270
13873TIP3    H263035   2.069   2.402   1.113 -0.9377  0.4799 -0.0868
13874TIP3   OH263036   2.460   3.242  15.921  0.1743  0.5008 -0.2023
13874TIP3    H163037   2.518   3.169  15.901  1.1189  1.3809 -0.7754
13874TIP3    H263038   2.419   3.218  16.004 -0.0040 -0.9464 -0.6759
13875TIP3   OH263039   3.508   6.021  12.629 -0.4611 -0.4666 -0.0252
13875TIP3    H163040   3.465   5.950  12.583 -0.3323  0.3890 -1.5537
13875TIP3    H263041   3.567   6.059  12.564 -0.2462  0.7856  0.8606
13876TIP3   OH263042   3.630   6.257   5.769  0.0975  0.4612 -0.3421
13876TIP3    H163043   3.649   6.348   5.749  0.9783  1.4884  4.1191
13876TIP3    H263044   3.537   6.246   5.746 -0.1621  2.6118 -0.4632
13877TIP3   OH263045   5.711   6.587  11.759  0.0932  0.3213 -0.1508
13877TIP3    H163046   5.671   6.583  11.672 -0.5478 -0.9397  0.1745
13877TIP3    H263047   5.799   6.623  11.743 -0.0946  0.3250 -1.2830
13878TIP3   OH263048   5.985   4.385  10.828 -0.3019 -0.2750 -0.4346
13878TIP3    H163049   6.002   4.306  10.776  1.6878  0.7253 -1.4335
13878TIP3    H263050   5.951   4.448  10.764 -1.3335 -0.1242  0.2459
13879TIP3   OH263051   3.791   1.106  15.914  0.2385  0.4295 -0.2617
13879TIP3    H163052   3.805   1.136  16.003  0.3268  0.4680 -0.2895
13879TIP3    H263053   3.747   1.179  15.870 -1.2052 -0.1398  0.1615
13880TIP3   OH263054   4.847   6.238  16.313 -0.1037 -0.6665 -0.1846
13880TIP3    H163055   4.860   6.192  16.396 -3.9784 -3.3423 -0.8079
13880TIP3    H263056   4.814   6.171  16.253 -4.7777  2.4507 -1.6445
13881TIP3   OH263057   2.428   2.869  15.843 -0.6312 -0.6066  0.2784
13881TIP3    H163058   2.462   2.847  15.930 -1.2802 -0.0068  0.6907
13881TIP3    H263059   2.333   2.871  15.854 -0.8011 -1.6671 -0.7178
13882TIP3   OH263060   2.586   2.898   5.317  0.3482  0.3423 -0.2881
13882TIP3    H163061   2.565   2.838   5.389 -1.3565  0.2850 -0.8035
13882TIP3    H263062   2.674   2.929   5.337  1.0687 -1.8994  0.2934
13883TIP3   OH263063   0.866   0.934   0.486 -0.0918 -0.1145  0.2733
13883TIP3    H163064   0.806   0.900   0.553  1.7084 -1.7733  1.1348
13883TIP3    H263065   0.905   1.011   0.526 -0.2843 -0.0960  0.4310
13884TIP3   OH263066   3.592   4.373  15.629  0.0148 -0.8518 -0.0014
13884TIP3    H163067   3.556   4.349  15.544  1.8352  0.0820 -1.0980
13884TIP3    H263068   3.530   4.336  15.692 -3.7506  1.9725 -1.6647
13885TIP3   OH263069   6.165   6.765  11.172  0.4609 -0.3582  0.0143
13885TIP3    H163070   6.103   6.693  11.184 -0.5580  0.3887 -0.5570
13885TIP3    H263071   6.173   6.804  11.259  0.6127 -0.8412  0.2193
13886TIP3   OH263072   1.683   6.012  14.280  0.6713  0.4668 -0.5999
13886TIP3    H163073   1.691   5.929  14.327  0.7501 -0.1307 -1.6406
13886TIP3    H263074   1.768   6.054  14.291  1.0133 -0.1012 -0.9792
13887TIP3   OH263075   4.722   2.670   5.690 -0.0881  0.6713 -0.6939
13887TIP3    H163076   4.817   2.663   5.691 -0.1532 -0.4824 -1.4628
13887TIP3    H263077   4.696   2.648   5.601 -1.0539  1.4015 -0.6149
13888TIP3   OH263078   5.989   6.524  13.660  0.0095  0.9024 -0.2118
13888TIP3    H163079   6.037   6.470  13.724 -1.0629 -0.5888 -0.6137
13888TIP3    H263080   6.010   6.485  13.575 -1.0523  0.8903 -0.4823
13889TIP3   OH263081   6.372   5.805  14.329 -0.0427 -0.2251  0.2884
13889TIP3    H163082   6.313   5.870  14.366  0.3532  0.2436  0.1103
13889TIP3    H263083   6.361   5.728  14.385 -0.3062  0.0869  0.6733
13890TIP3   OH263084   4.084   3.052  15.802 -0.3235 -0.4180 -0.3730
13890TIP3    H163085   4.005   3.089  15.763 -1.0645 -1.8290 -0.2684
13890TIP3    H263086   4.153   3.113  15.778 -1.0843 -0.2438 -2.2620
13891TIP3   OH263087   2.070   5.794   4.474 -0.0106  0.3617  0.8829
13891TIP3    H163088   1.987   5.748   4.457 -0.7058  1.9708 -0.2996
13891TIP3    H263089   2.044   5.875   4.516  0.9414  1.0071  0.2562
13892TIP3   OH263090   0.753   2.759   5.510  0.4724  0.0022  0.0594
13892TIP3    H163091   0.663   2.789   5.499 -0.1216 -1.5361  0.4363
13892TIP3    H263092   0.806   2.829   5.473 -0.8843  0.7955 -0.4777
13893TIP3   OH263093   6.491   5.524   4.006  0.0950 -0.1994 -0.0981
13893TIP3    H163094   6.491   5.603   4.060 -0.6915 -0.0461 -0.3015
13893TIP3    H263095   6.457   5.456   4.065  1.2870 -0.5212  0.2439
13894TIP3   OH263096   1.394   4.522   2.538  0.2976 -0.3501  0.2591
13894TIP3    H163097   1.482   4.550   2.561  0.3823 -0.0419 -0.4199
13894TIP3    H263098   1.373   4.571   2.458 -0.2952 -0.7884  0.1378
13895TIP3   OH263099   3.224   3.484   3.064 -0.4978  0.2637  0.3386
13895TIP3    H163100   3.178   3.443   3.137 -0.3130 -1.8540 -0.6360
13895TIP3    H263101   3.155   3.507   3.002 -0.4205 -2.2720 -0.8147
13896TIP3   OH263102   3.460   6.067  15.474 -0.9763  0.3749  0.1480
13896TIP3    H163103   3.413   6.085  15.555 -1.7412 -2.9419  0.5650
13896TIP3    H263104   3.391   6.046  15.411 -0.2275 -0.7704 -0.3055
13897TIP3   OH263105   0.033   1.915  13.979  0.2105 -0.4441 -0.1831
13897TIP3    H163106   0.073   1.952  13.900  0.6558  0.1109  0.2910
13897TIP3    H263107   0.021   1.822  13.958  0.6365 -0.3750 -0.7818
13898TIP3   OH263108   2.423   0.156  10.239  0.5196  0.1151  0.2644
13898TIP3    H163109   2.431   0.077  10.186 -0.2569  0.8405 -1.0045
13898TIP3    H263110   2.354   0.137  10.302 -0.5004  0.1656 -0.8091
13899TIP3   OH263111   4.177   2.645   0.932 -0.1375 -0.1491 -0.5665
13899TIP3    H163112   4.124   2.588   0.876  0.1321 -1.1073  0.1214
13899TIP3    H263113   4.263   2.603   0.934 -0.2531 -0.3928  0.8931
13900TIP3   OH263114   4.754   4.592   6.659  0.3743  0.3968 -0.2126
13900TIP3    H163115   4.769   4.504   6.693  1.8882  1.1462  1.1416
13900TIP3    H263116   4.677   4.624   6.707 -0.1268 -0.1180 -0.6477
13901TIP3   OH263117   0.787   1.713   0.742  0.9144 -0.9245 -0.4751
13901TIP3    H163118   0.807   1.725   0.649  1.5410  1.1189 -0.1412
13901TIP3    H263119   0.816   1.795   0.783 -1.7603 -0.6670  1.1363
13902TIP3   OH263120   1.662   2.642  11.969  0.1852  0.2252 -0.7609
13902TIP3    H163121   1.692   2.593  11.893  0.6772 -0.3895 -0.1817
13902TIP3    H263122   1.732   2.705  11.986  2.0148 -2.1843  1.4916
13903TIP3   OH263123   5.422   3.285  12.714 -0.1843 -0.4664 -0.3760
13903TIP3    H163124   5.426   3.198  12.754  0.1057 -0.9309 -1.3608
13903TIP3    H263125   5.332   3.292  12.680 -1.6820  1.4126  3.4226
13904TIP3   OH263126   3.363   0.327   0.602 -0.2578  0.6554 -0.4800
13904TIP3    H163127   3.332   0.331   0.512 -0.1309 -1.4775 -0.6671
13904TIP3    H263128   3.302   0.267   0.646  2.7460 -2.8280 -0.6002
13905TIP3   OH263129   1.208   4.156   4.003 -0.2862  0.2013  0.1984
13905TIP3    H163130   1.140   4.170   3.937  0.3137 -0.8330 -0.6838
13905TIP3    H263131   1.173   4.088   4.060  0.3179 -0.9559 -0.7676
13906TIP3   OH263132   0.233   2.604  13.485 -0.1064 -0.0345  0.1521
13906TIP3    H163133   0.312   2.656  13.469  1.1430 -1.7998  0.3413
13906TIP3    H263134   0.239   2.579  13.577 -1.2532  0.3464  0.3505
13907TIP3   OH263135   0.007   0.945   6.437  0.5931  0.1506  0.6570
13907TIP3    H163136   0.007   0.966   6.531  1.8076 -1.0870  0.9692
13907TIP3    H263137  -0.074   0.895   6.424 -0.3309  1.5698  0.7041
13908TIP3   OH263138   2.154   2.604   3.782 -0.6844  0.3562  0.3341
13908TIP3    H163139   2.245   2.633   3.775  0.4498 -2.8627 -0.0506
13908TIP3    H263140   2.111   2.642   3.706  0.7692  0.6438 -0.3881
13909TIP3   OH263141   5.852   5.424   4.903 -0.5485  0.2510  0.1021
13909TIP3    H163142   5.848   5.373   4.822 -0.8479  1.6794 -0.8109
13909TIP3    H263143   5.827   5.361   4.972 -1.4664 -0.6896 -1.0389
13910TIP3   OH263144   1.050   3.393  16.077  0.0393 -0.3435 -0.1385
13910TIP3    H163145   1.054   3.477  16.031 -0.9236  0.7904  1.7390
13910TIP3    H263146   1.116   3.400  16.146 -0.5695 -0.8188  0.5039
13911TIP3   OH263147   4.097   5.828   2.047  0.0060  0.0123 -0.0156
13911TIP3    H163148   4.040   5.898   2.079  0.0982 -0.0634  0.3183
13911TIP3    H263149   4.151   5.870   1.979 -0.6966 -0.0052 -0.5933
13912TIP3   OH263150   0.546   3.901  15.104  0.4019 -0.3108 -0.5285
13912TIP3    H163151   0.606   3.927  15.174  1.6247  0.7057 -1.8702
13912TIP3    H263152   0.590   3.829  15.060 -0.2016 -0.7272 -0.4612
13913TIP3   OH263153   3.590   2.182   5.492  0.4520 -0.3497 -0.3007
13913TIP3    H163154   3.646   2.255   5.465  0.9746 -0.4290  0.5353
13913TIP3    H263155   3.613   2.110   5.433  0.7735 -0.1894 -0.3725
13914TIP3   OH263156   3.331   2.819   2.068  0.8720 -0.0200 -0.3180
13914TIP3    H163157   3.236   2.811   2.069  0.6283  2.1176  0.0734
13914TIP3    H263158   3.361   2.756   2.003 -0.9666  0.4836 -1.7341
13915TIP3   OH263159   2.293   0.080   2.778 -0.0240 -0.0165  0.1597
13915TIP3    H163160   2.386   0.089   2.756 -0.5783  1.5790 -1.8763
13915TIP3    H263161   2.292   0.063   2.872  2.3120  0.3640  0.3161
13916TIP3   OH263162   5.418   2.543   1.188  0.6245 -0.4990  0.2450
13916TIP3    H163163   5.407   2.630   1.227  0.0475 -0.0721 -0.8276
13916TIP3    H263164   5.475   2.557   1.113 -0.8866 -0.6855 -1.0014
13917TIP3   OH263165   5.992   3.803  10.686  0.3072 -0.0070  0.4452
13917TIP3    H163166   5.964   3.713  10.702 -0.9676  0.2215 -0.3393
13917TIP3    H263167   6.063   3.795  10.622 -0.1980 -0.4411 -0.0791
13918TIP3   OH263168   3.111   3.872  15.233 -0.2391 -0.1043 -0.3440
13918TIP3    H163169   3.203   3.885  15.208 -0.1412  1.4839  0.7195
13918TIP3    H263170   3.115   3.848  15.326 -0.9046  0.1148 -0.2531
13919TIP3   OH263171   2.571   2.092  14.601 -0.0332  0.1574  0.7870
13919TIP3    H163172   2.556   2.086  14.506  0.4989 -1.2870  0.7680
13919TIP3    H263173   2.485   2.109  14.637  0.0251  2.7149 -0.0619
13920TIP3   OH263174   6.552   4.301   0.091  0.7955  0.1434  0.4397
13920TIP3    H163175   6.584   4.230   0.035  0.3759  2.4172 -2.9141
13920TIP3    H263176   6.630   4.352   0.113  0.7498  0.1070  0.6943
13921TIP3   OH263177   6.396   6.255  16.987 -0.5380 -0.0776  0.2944
13921TIP3    H163178   6.489   6.256  16.966 -0.7410 -0.7457 -0.7341
13921TIP3    H263179   6.365   6.343  16.965 -0.1768  0.1002  0.5010
13922TIP3   OH263180   5.424   0.719  12.535 -0.7446  0.1709 -0.4473
13922TIP3    H163181   5.447   0.651  12.471  0.0551 -1.8700  1.8509
13922TIP3    H263182   5.329   0.716  12.540 -0.7536 -0.3571 -0.8286
13923TIP3   OH263183   2.990   2.586  15.423 -0.2475  0.2188 -0.3842
13923TIP3    H163184   3.033   2.521  15.479 -0.4915 -0.2662 -0.7480
13923TIP3    H263185   2.934   2.534  15.365 -1.9517  0.8798  0.6053
13924TIP3   OH263186   2.181   1.801  16.923 -0.0678 -0.2736  0.2628
13924TIP3    H163187   2.260   1.760  16.960  1.1121 -0.1347 -1.9415
13924TIP3    H263188   2.130   1.827  17.000  1.1746 -1.9534  1.7602
13925TIP3   OH263189   0.328   1.712   3.493  0.3532 -0.3995 -0.2243
13925TIP3    H163190   0.274   1.789   3.511 -0.6392 -0.4377 -2.6351
13925TIP3    H263191   0.265   1.640   3.486  1.1447 -1.2150  0.7338
13926TIP3   OH263192   0.835   4.764   2.036 -0.0075  0.7037  0.0532
13926TIP3    H163193   0.847   4.689   1.977 -2.3969  0.9549 -0.8683
13926TIP3    H263194   0.923   4.801   2.045  0.7327 -0.3647 -2.0085
13927TIP3   OH263195   3.824   5.709  15.854  1.0949 -0.0036  0.6357
13927TIP3    H163196   3.844   5.616  15.862 -3.2993 -1.1630  1.1361
13927TIP3    H263197   3.809   5.722  15.760  1.8644  0.2816  0.5448
13928TIP3   OH263198   3.288   2.053   1.495  0.3395  0.1676 -0.0368
13928TIP3    H163199   3.232   1.984   1.460 -1.7210  0.1573  2.9150
13928TIP3    H263200   3.367   2.008   1.525  0.0125 -0.5414 -0.2328
13929TIP3   OH263201   1.850   5.178   0.100  0.1802  0.0135  0.1885
13929TIP3    H163202   1.866   5.272   0.087 -1.1508  0.3629  0.9484
13929TIP3    H263203   1.849   5.167   0.195 -0.1082 -0.6966  0.1061
13930TIP3   OH263204   5.906   4.999   4.651  0.2514  0.1748 -0.3820
13930TIP3    H163205   5.905   4.955   4.736  1.2042  0.4038 -0.2409
13930TIP3    H263206   5.998   5.000   4.626 -0.0302 -0.0415 -1.5057
13931TIP3   OH263207   1.361   2.933  12.558  0.4577 -0.6351  0.1115
13931TIP3    H163208   1.363   2.837  12.551 -0.1121 -0.5341 -2.4679
13931TIP3    H263209   1.283   2.958  12.509 -0.2319  1.1126  1.9968
13932TIP3   OH263210   6.426   4.971  13.880  0.4602  0.1801  0.3897
13932TIP3    H163211   6.382   5.019  13.950  0.9780  0.3380  0.6137
13932TIP3    H263212   6.356   4.923  13.836 -0.2715  2.0252 -0.5855
13933TIP3   OH263213   2.020   4.734  14.870  0.1270  0.2970 -0.7308
13933TIP3    H163214   1.993   4.672  14.802  0.7832  0.7802 -1.4637
13933TIP3    H263215   2.021   4.819  14.825  0.6315  0.6186 -0.1333
13934TIP3   OH263216   6.416   6.592   3.986 -0.5118 -0.4750  0.0578
13934TIP3    H163217   6.321   6.588   3.977 -0.6326 -0.8901  1.2675
13934TIP3    H263218   6.446   6.504   3.962 -0.5300 -0.6088  0.5059
13935TIP3   OH263219   5.495   4.736  15.755 -0.4436 -0.0565 -0.3365
13935TIP3    H163220   5.479   4.646  15.784 -0.1796  0.2436  0.8119
13935TIP3    H263221   5.575   4.761  15.800  0.3226  0.2593 -1.8294
13936TIP3   OH263222   4.098   4.483  16.209  0.6985 -0.2369  0.4950
13936TIP3    H163223   4.033   4.412  16.207 -0.9600  1.1887 -1.8511
13936TIP3    H263224   4.060   4.551  16.154  2.8714  1.9373  1.5197
13937TIP3   OH263225   2.020   5.856  16.480  0.0019 -0.2863 -0.3413
13937TIP3    H163226   2.069   5.937  16.494 -0.2976 -0.0450 -0.6734
13937TIP3    H263227   2.034   5.835  16.388  1.3914 -1.4889  0.1088
13938TIP3   OH263228   5.205   2.029   5.843 -0.6765 -0.8700 -0.1742
13938TIP3    H163229   5.233   2.070   5.761 -1.1865 -0.1503 -0.0045
13938TIP3    H263230   5.130   1.974   5.818 -0.2511 -1.3784 -0.3367
13939TIP3   OH263231   3.255   3.374  11.670 -0.2832  0.8810  0.2223
13939TIP3    H163232   3.241   3.417  11.755  0.8604 -1.8413  1.9023
13939TIP3    H263233   3.342   3.403  11.643  0.3386 -0.0245  1.1774
13940TIP3   OH263234   0.710   6.261  15.485 -0.0380 -0.0122  0.2383
13940TIP3    H163235   0.680   6.276  15.395 -2.0154  1.4802  1.0717
13940TIP3    H263236   0.782   6.323  15.496 -0.3660  0.4352 -0.0633
13941TIP3   OH263237   0.353   2.139  12.747 -0.7084  0.8811  0.6187
13941TIP3    H163238   0.334   2.153  12.654  0.2645 -0.3299  0.2248
13941TIP3    H263239   0.375   2.226  12.780 -3.2679  1.7418  0.2728
13942TIP3   OH263240   5.187   1.074  14.516  0.1762  0.3573 -0.0074
13942TIP3    H163241   5.187   1.106  14.426  3.6074  1.8876  0.3957
13942TIP3    H263242   5.249   1.001  14.516 -0.1977  0.0132  1.0189
13943TIP3   OH263243   1.457   3.148  12.195  0.8313  0.2181  0.3717
13943TIP3    H163244   1.373   3.188  12.215  0.5461 -0.7613  1.2649
13943TIP3    H263245   1.514   3.221  12.173 -0.2208  0.9086 -0.1695
13944TIP3   OH263246   3.735   1.780  11.725 -0.2101 -0.4885  0.0309
13944TIP3    H163247   3.790   1.721  11.674  1.5712  1.5839 -0.6216
13944TIP3    H263248   3.691   1.834  11.659  0.2759  0.6520  0.6041
13945TIP3   OH263249   6.154   2.185  12.793  0.6133 -0.1837 -0.1942
13945TIP3    H163250   6.239   2.162  12.758  1.3054  2.1892 -0.2723
13945TIP3    H263251   6.144   2.278  12.772 -1.5994 -0.1779  0.6077
13946TIP3   OH263252   2.434   3.958   4.830  0.0782  0.2423  0.7110
13946TIP3    H163253   2.393   3.936   4.914 -1.1621 -3.9119 -0.7666
13946TIP3    H263254   2.362   3.956   4.767  1.3010  1.3152 -0.7987
13947TIP3   OH263255   1.313   6.305  11.539 -0.0747 -0.4436  0.1817
13947TIP3    H163256   1.253   6.379  11.551  2.7045  2.5171 -2.2818
13947TIP3    H263257   1.309   6.285  11.445  1.2730 -1.5675  0.3269
13948TIP3   OH263258   0.158   2.950  15.471  0.4870  0.0365  0.0508
13948TIP3    H163259   0.164   2.999  15.389 -1.1908  1.2947  0.6163
13948TIP3    H263260   0.172   3.015  15.540 -1.7626 -0.2215  0.8286
13949TIP3   OH263261   3.003   5.268   4.347  0.2540 -0.1163  0.4404
13949TIP3    H163262   3.060   5.232   4.415  1.0341  0.2429 -0.0017
13949TIP3    H263263   2.931   5.309   4.395  1.1435  0.7320  1.0808
13950TIP3   OH263264   6.777   1.251   0.966 -0.0044  0.5791  0.4556
13950TIP3    H163265   6.754   1.333   1.011 -1.8131 -0.1407  0.9200
13950TIP3    H263266   6.703   1.233   0.909  0.8535 -0.2113 -0.4414
13951TIP3   OH263267   5.870   4.603   6.496  0.4488 -0.8945  0.4927
13951TIP3    H163268   5.876   4.686   6.448 -0.1639 -0.6030  0.9008
13951TIP3    H263269   5.954   4.560   6.480 -0.1481 -1.3417 -1.7862
13952TIP3   OH263270   6.662   2.940   1.643 -0.2752  0.3179  0.1152
13952TIP3    H163271   6.603   2.997   1.594 -0.8836 -1.6464 -1.5766
13952TIP3    H263272   6.749   2.970   1.619 -0.5773  0.2576 -1.1666
13953TIP3   OH263273   2.970   1.606  11.180 -0.3879  0.1400  0.6901
13953TIP3    H163274   2.954   1.639  11.269  1.1704  1.4815  0.5158
13953TIP3    H263275   2.952   1.680  11.123 -0.9761 -0.5965 -0.0953
13954TIP3   OH263276   5.258   1.516   6.186  0.0701 -0.0359 -0.0564
13954TIP3    H163277   5.337   1.553   6.147  0.7165  0.3535  1.5346
13954TIP3    H263278   5.214   1.591   6.227 -0.3195 -0.4957  0.3765
13955TIP3   OH263279   5.117   3.287  16.656  0.0274  0.8086 -0.3732
13955TIP3    H163280   5.188   3.293  16.592 -1.6162  1.3334 -2.2581
13955TIP3    H263281   5.038   3.282  16.603 -1.3302 -0.3790  1.6377
13956TIP3   OH263282   3.337   2.539  12.582  0.0211 -0.2314 -0.5492
13956TIP3    H163283   3.246   2.538  12.610  0.1453 -0.8999 -0.1526
13956TIP3    H263284   3.333   2.553  12.487 -0.4153  1.5520 -0.2898
13957TIP3   OH263285   5.385   0.156   6.527 -0.0260  0.5507 -0.0479
13957TIP3    H163286   5.326   0.142   6.602  0.6607  2.1645  0.8520
13957TIP3    H263287   5.328   0.147   6.451 -0.7541 -1.1284  0.6225
13958TIP3   OH263288   3.125   1.689  16.932 -0.1480 -0.1112  0.3578
13958TIP3    H163289   3.056   1.727  16.877 -0.0591 -0.0537  0.2862
13958TIP3    H263290   3.176   1.764  16.962  1.0571 -0.2709 -1.1449
13959TIP3   OH263291   2.951   5.241  16.995  0.5062  0.1378 -0.0533
13959TIP3    H163292   2.988   5.313  16.944  3.7234  0.7424  2.7190
13959TIP3    H263293   2.952   5.166  16.936 -0.1245  1.6702 -2.1103
13960TIP3   OH263294   3.860   2.111   4.034  0.3521  0.2252  0.2696
13960TIP3    H163295   3.879   2.190   3.984  0.2154  0.7243  0.9882
13960TIP3    H263296   3.945   2.084   4.069  0.1931  0.8862  1.2082
13961TIP3   OH263297   3.926   0.302   5.635  0.6601  1.0182 -0.5551
13961TIP3    H163298   3.881   0.219   5.620 -1.7297  2.0839  0.2152
13961TIP3    H263299   3.989   0.308   5.563 -0.4910 -0.5450 -1.7761
13962TIP3   OH263300   1.144   6.252  13.188 -0.1325  0.2729 -0.1672
13962TIP3    H163301   1.179   6.248  13.099  0.8657  1.1000  0.1778
13962TIP3    H263302   1.200   6.193  13.238 -0.3416  0.2462  0.0376
13963TIP3   OH263303   6.073   2.493   3.932 -0.1427  0.2581 -0.5264
13963TIP3    H163304   6.113   2.569   3.974  0.4463 -0.1785 -0.2909
13963TIP3    H263305   5.992   2.478   3.982 -0.9087  1.4666 -1.3385
13964TIP3   OH263306   6.400   0.507   4.081 -0.1693  0.6318 -0.3244
13964TIP3    H163307   6.375   0.436   4.140 -1.3053  1.5476  0.3305
13964TIP3    H263308   6.476   0.547   4.123  1.2608 -0.9052 -1.3081
13965TIP3   OH263309   5.922   0.882  13.920  0.0116  0.2088 -0.2366
13965TIP3    H163310   5.981   0.807  13.908 -0.1094  0.1653 -0.5583
13965TIP3    H263311   5.916   0.892  14.015 -1.7788 -1.6208 -0.0766
13966TIP3   OH263312   0.661   6.590  11.283  0.6632 -0.0173  0.1349
13966TIP3    H163313   0.641   6.503  11.320 -0.0453 -0.1783 -0.5962
13966TIP3    H263314   0.647   6.579  11.189  0.0987  1.0155  0.0844
13967TIP3   OH263315   6.269   3.224  14.667 -0.8837  0.0063  0.1217
13967TIP3    H163316   6.363   3.237  14.653 -0.8097 -0.6094  0.0261
13967TIP3    H263317   6.263   3.179  14.751 -1.2000  1.5863  0.9916
13968TIP3   OH263318   5.856   6.537  14.483 -0.6467  0.1253 -0.4520
13968TIP3    H163319   5.863   6.537  14.388 -2.5448  1.0438 -0.6378
13968TIP3    H263320   5.841   6.445  14.506 -0.4502 -0.0662 -1.0729
13969TIP3   OH263321   4.371   2.975   4.367 -0.1064 -0.5418 -0.0976
13969TIP3    H163322   4.313   2.931   4.305 -1.2885 -1.3941  1.5301
13969TIP3    H263323   4.340   3.065   4.369 -1.0209 -0.8480  0.3079
13970TIP3   OH263324   2.576   6.062   0.152  0.3545 -0.3855 -0.1838
13970TIP3    H163325   2.626   6.131   0.196 -1.5476 -0.1384  1.7359
13970TIP3    H263326   2.595   6.076   0.059  0.0811  2.7373  0.1046
13971TIP3   OH263327   4.430   5.946  16.662  0.0359 -0.2847 -0.3479
13971TIP3    H163328   4.381   5.966  16.582  1.8545  0.2768 -1.3791
13971TIP3    H263329   4.463   6.030  16.692 -0.8928 -0.4409  1.2411
13972TIP3   OH263330   5.214   5.964   4.803 -0.1158 -0.2110  0.1455
13972TIP3    H163331   5.135   6.017   4.816 -1.5504 -1.8857 -1.1148
13972TIP3    H263332   5.259   5.966   4.887 -0.9244  1.6862  0.5823
13973TIP3   OH263333   5.128   1.094   6.013  0.2054 -0.1592 -0.0273
13973TIP3    H163334   5.096   1.024   5.958  0.3535 -0.3353  0.1089
13973TIP3    H263335   5.194   1.139   5.960  0.2038 -0.2043 -0.0675
13974TIP3   OH263336   6.361   0.780   0.641 -0.0772  0.0918  0.1758
13974TIP3    H163337   6.439   0.829   0.613 -0.5824 -0.4178 -2.3096
13974TIP3    H263338   6.390   0.689   0.645  0.1527  0.2103  2.1306
13975TIP3   OH263339   6.598   5.222  15.957  0.6533 -0.3930 -0.2838
13975TIP3    H163340   6.613   5.137  15.998 -0.1494 -0.3252  0.1642
13975TIP3    H263341   6.569   5.279  16.028 -0.2880 -0.1447 -0.8390
13976TIP3   OH263342   6.130   5.844  12.892  0.0241 -0.0752  0.4637
13976TIP3    H163343   6.144   5.806  12.805  0.4156  1.2452 -0.0763
13976TIP3    H263344   6.175   5.784  12.951  1.2039 -0.1315 -0.4351
13977TIP3   OH263345   0.331   2.315  15.033 -0.6168 -0.2958 -0.0085
13977TIP3    H163346   0.349   2.226  15.002 -0.1417  0.2879 -1.4949
13977TIP3    H263347   0.379   2.372  14.973 -0.0613  0.9437  1.5392
13978TIP3   OH263348   1.101   1.490   5.643 -0.1668  0.9048  0.2509
13978TIP3    H163349   1.042   1.525   5.710  0.2415  1.0538  0.5383
13978TIP3    H263350   1.186   1.527   5.665  0.3538 -0.5280  0.7703
13979TIP3   OH263351   1.071   2.461  16.805  0.0782 -0.5185 -0.1702
13979TIP3    H163352   1.103   2.479  16.893  0.9942  0.1893 -0.6379
13979TIP3    H263353   1.061   2.365  16.802  3.2759 -0.9376 -0.3631
13980TIP3   OH263354   4.759   5.768   5.278  0.0349 -0.4804  0.1387
13980TIP3    H163355   4.798   5.682   5.262  0.4954 -0.3043  0.3104
13980TIP3    H263356   4.668   5.749   5.301 -0.2586 -0.8473 -1.1878
13981TIP3   OH263357   2.089   3.526  13.928  0.4925 -0.4835  0.2398
13981TIP3    H163358   2.107   3.458  13.993 -1.1576 -0.4733  0.7593
13981TIP3    H263359   2.175   3.553  13.897  1.2567 -1.5137  1.3668
13982TIP3   OH263360   4.363   1.864  11.238 -0.3102  0.7412  0.5254
13982TIP3    H163361   4.340   1.937  11.294  1.4585  1.4111  0.4350
13982TIP3    H263362   4.382   1.903  11.153 -0.0142  0.1093  0.2864
13983TIP3   OH263363   5.599   1.972  16.127  0.2053 -0.1500 -0.1936
13983TIP3    H163364   5.613   1.879  16.147 -0.7555 -0.2409  0.0950
13983TIP3    H263365   5.620   2.017  16.209  0.6266 -0.1118 -0.3202
13984TIP3   OH263366   2.233   1.534   0.597 -0.5305 -0.3152 -0.1748
13984TIP3    H163367   2.290   1.607   0.576 -1.2507  0.0373 -0.9671
13984TIP3    H263368   2.166   1.571   0.654 -1.5074 -0.0780 -1.4253
13985TIP3   OH263369   3.980   6.226  14.467 -0.1092 -0.1101 -0.2289
13985TIP3    H163370   3.997   6.189  14.553 -1.2845 -0.5185 -0.1491
13985TIP3    H263371   4.066   6.251  14.433  0.3532  0.1201  1.0836
13986TIP3   OH263372   5.007   5.752   1.652 -0.3823 -0.4567  0.3700
13986TIP3    H163373   4.960   5.725   1.573 -0.9507 -0.4609  0.6998
13986TIP3    H263374   4.975   5.841   1.670  2.3216  1.0062 -1.3605
13987TIP3   OH263375   1.845   3.858   0.730 -0.4280  0.3474 -0.0850
13987TIP3    H163376   1.804   3.902   0.804 -0.9225 -1.2373  0.6404
13987TIP3    H263377   1.780   3.862   0.659 -0.3109  1.0931 -0.1528
13988TIP3   OH263378   2.431   6.067  12.856  0.3198 -0.2958 -0.5503
13988TIP3    H163379   2.396   6.155  12.868 -1.2747 -0.9931  0.1858
13988TIP3    H263380   2.524   6.074  12.880 -0.0855  0.9160  0.7719
13989TIP3   OH263381   0.199   6.024  13.398 -0.3330 -0.3815  0.0584
13989TIP3    H163382   0.257   5.966  13.348  0.3802 -0.0464  0.4774
13989TIP3    H263383   0.115   6.019  13.353 -0.1205 -1.2733 -0.2655
13990TIP3   OH263384   3.900   5.158   1.845 -0.4449  0.0637  0.9978
13990TIP3    H163385   3.968   5.189   1.785  1.7987 -3.5667  1.4123
13990TIP3    H263386   3.828   5.131   1.788  0.2762 -0.1856  0.1955
13991TIP3   OH263387   3.409   3.147  14.927  0.5271  0.1324 -0.7782
13991TIP3    H163388   3.328   3.184  14.962  0.3783  0.5581 -1.5386
13991TIP3    H263389   3.449   3.220  14.880  0.6347 -0.4550 -1.6205
13992TIP3   OH263390   3.609   5.386   5.665 -0.4817  0.2998 -0.1741
13992TIP3    H163391   3.686   5.388   5.609 -0.6544  0.7962 -0.4091
13992TIP3    H263392   3.641   5.358   5.750 -0.1365 -0.0134 -0.4046
13993TIP3   OH263393   2.181   4.347   0.608  0.1189  0.3981 -0.2623
13993TIP3    H163394   2.227   4.425   0.576  0.6495 -0.2635 -1.1377
13993TIP3    H263395   2.088   4.369   0.599  0.1578  2.0439  2.2133
13994TIP3   OH263396   4.235   4.947  15.111  0.3760 -0.6417  0.4044
13994TIP3    H163397   4.284   4.904  15.181  0.6265 -0.2640  0.4634
13994TIP3    H263398   4.174   5.005  15.156  0.6469 -0.2797  0.3120
13995TIP3   OH263399   3.071   2.749  16.036  0.2985 -1.1017 -0.9504
13995TIP3    H163400   3.065   2.818  15.970 -0.0785  0.9568  1.0815
13995TIP3    H263401   2.980   2.725  16.054  0.2174  0.0066  0.3465
13996TIP3   OH263402   1.753   1.508  13.162 -0.1881  0.2571 -0.1951
13996TIP3    H163403   1.782   1.435  13.107  0.0100  1.8589 -2.3271
13996TIP3    H263404   1.813   1.508  13.236  1.2848 -0.3440 -1.3373
13997TIP3   OH263405   5.572   6.150  16.812  0.0384  0.1365 -0.2426
13997TIP3    H163406   5.594   6.243  16.807 -0.3598  0.2069 -0.7516
13997TIP3    H263407   5.507   6.137  16.744 -0.7729 -0.2739  0.5947
13998TIP3   OH263408   3.078   4.610  10.937  0.3358  0.0613  0.1616
13998TIP3    H163409   3.030   4.527  10.934 -0.8180  0.7384 -1.1103
13998TIP3    H263410   3.012   4.675  10.960  1.4188  0.5354  2.0671
13999TIP3   OH263411   1.848   1.312   5.177  0.0102 -0.4624 -0.0711
13999TIP3    H163412   1.866   1.236   5.121 -2.6178 -0.3118 -1.2781
13999TIP3    H263413   1.784   1.363   5.128 -0.2703  1.1937  1.8767
14000TIP3   OH263414   2.099   6.094   1.326  0.2979  0.1273 -0.0220
14000TIP3    H163415   2.059   6.145   1.256 -0.4948  1.7252  1.4980
14000TIP3    H263416   2.193   6.109   1.317  0.3366 -0.9121 -1.6059
14001TIP3   OH263417   2.046   5.861  10.750  0.0033 -0.0986 -0.6236
14001TIP3    H163418   2.053   5.844  10.845  1.1294  0.8596 -0.5019
14001TIP3    H263419   2.030   5.775  10.712 -1.8705 -0.3302  0.5289
14002TIP3   OH263420   3.781   4.767  13.173  0.3464 -0.0084  0.4283
14002TIP3    H163421   3.699   4.753  13.219 -0.6760  2.2702 -0.5634
14002TIP3    H263422   3.777   4.706  13.099  0.3027 -1.0123  1.2287
14003TIP3   OH263423   1.275   6.449   2.078 -0.1085  0.5467  0.4723
14003TIP3    H163424   1.255   6.436   2.171 -2.4969 -0.6596 -0.1450
14003TIP3    H263425   1.319   6.369   2.051 -0.4887  0.3973  0.2923
14004TIP3   OH263426   6.519   1.192  15.210  0.1238  0.7200  0.5026
14004TIP3    H163427   6.458   1.197  15.283  0.1347  1.4538  0.4701
14004TIP3    H263428   6.511   1.277  15.166 -2.0856 -0.6622 -2.1276
14005TIP3   OH263429   4.217   6.275  14.328  0.7113  0.0440  0.3222
14005TIP3    H163430   4.201   6.218  14.252 -1.3296  0.9873 -0.0382
14005TIP3    H263431   4.291   6.330  14.302  0.6215 -0.2627 -0.6186
14006TIP3   OH263432   2.842   5.401  14.561 -0.3013  0.0726 -0.2974
14006TIP3    H163433   2.873   5.357  14.482  3.1700  2.1479 -0.2914
14006TIP3    H263434   2.785   5.471  14.529  2.7147  2.2582 -1.3783
14007TIP3   OH263435   2.421   2.186  12.182 -0.0214  0.6696 -0.2795
14007TIP3    H163436   2.346   2.135  12.212  0.0215  0.6668 -0.1753
14007TIP3    H263437   2.452   2.231  12.260  0.5236  0.1157 -0.1640
14008TIP3   OH263438   6.219   5.393  14.313  0.0949 -0.1727  0.0032
14008TIP3    H163439   6.274   5.315  14.301 -1.4048 -1.0392 -1.5649
14008TIP3    H263440   6.131   5.364  14.291 -0.8367  1.4973  1.3316
14009TIP3   OH263441   4.928   5.362   3.145 -0.0094 -0.2458 -0.1937
14009TIP3    H163442   4.883   5.365   3.061  0.1009  0.2700 -0.2365
14009TIP3    H263443   4.882   5.426   3.199  0.4121 -0.0160 -0.1037
14010TIP3   OH263444   5.549   6.738   6.542 -0.3626  0.3613  0.7752
14010TIP3    H163445   5.489   6.812   6.554  0.1529  0.6365  1.7558
14010TIP3    H263446   5.593   6.756   6.459 -1.8461 -0.0102 -0.1430
14011TIP3   OH263447   0.774   6.290   5.598  0.5539  0.2757 -0.2213
14011TIP3    H163448   0.839   6.266   5.532 -1.4075 -2.7322 -1.3041
14011TIP3    H263449   0.737   6.372   5.565  1.0363 -0.0841 -1.7779
14012TIP3   OH263450   2.005   0.368  12.784  0.3395 -0.1583 -0.1957
14012TIP3    H163451   1.913   0.395  12.779  0.1271 -0.7907  0.1877
14012TIP3    H263452   2.052   0.433  12.732 -0.4838 -0.5919 -1.5214
14013TIP3   OH263453   1.876   0.355  16.033  0.1510 -0.0795 -0.0835
14013TIP3    H163454   1.969   0.340  16.050  0.2538  1.5799  1.0008
14013TIP3    H263455   1.848   0.277  15.985  1.6396 -1.5317  1.2792
14014TIP3   OH263456   0.427   5.100   4.684  0.0172 -0.0387  0.5210
14014TIP3    H163457   0.334   5.078   4.679  0.1985 -0.6040 -1.1730
14014TIP3    H263458   0.445   5.146   4.602  1.8042 -2.4017 -0.5235
14015TIP3   OH263459   6.741   4.120  16.569  0.6323 -0.2590 -0.1567
14015TIP3    H163460   6.732   4.070  16.488 -0.7038 -1.6514  0.7951
14015TIP3    H263461   6.802   4.070  16.622 -1.8575 -1.8217  1.4053
14016TIP3   OH263462   5.054   4.913  11.147  0.0230 -0.7287  0.0725
14016TIP3    H163463   5.123   4.976  11.169 -0.7576  0.8327 -1.6356
14016TIP3    H263464   5.062   4.845  11.213  2.6902 -0.2272  0.3987
14017TIP3   OH263465   3.039   5.565  17.203 -0.3501 -0.0284  0.3191
14017TIP3    H163466   3.134   5.565  17.194 -0.5307  0.6601 -2.0478
14017TIP3    H263467   3.015   5.472  17.205  0.3142 -0.2022  0.4534
14018TIP3   OH263468   6.517   1.053   6.645 -0.1374 -0.1336  0.1995
14018TIP3    H163469   6.517   1.037   6.550 -1.7662 -0.7166  0.2594
14018TIP3    H263470   6.427   1.035   6.672  0.7616 -2.1501  2.2277
14019TIP3   OH263471   0.464   5.796   1.543 -0.5903 -0.2001  0.6759
14019TIP3    H163472   0.381   5.813   1.588 -2.0843 -1.1957 -1.5287
14019TIP3    H263473   0.490   5.709   1.572  1.1473  1.0956  3.3541
14020TIP3   OH263474   6.596   5.965  14.627  0.7901  0.4765  0.2301
14020TIP3    H163475   6.595   5.881  14.673  1.3138 -0.6841 -1.7443
14020TIP3    H263476   6.510   5.972  14.587  0.8017  0.8171  0.2586
14021TIP3   OH263477   3.106   5.408   3.123  0.1579 -0.0990 -0.3382
14021TIP3    H163478   3.196   5.431   3.146  0.8668 -0.9942 -2.0361
14021TIP3    H263479   3.062   5.397   3.207  1.7157  0.0477  0.5345
14022TIP3   OH263480   1.279   0.300   5.394 -0.4225  0.0928 -0.7077
14022TIP3    H163481   1.221   0.240   5.347 -0.2409 -1.9155  1.4913
14022TIP3    H263482   1.233   0.318   5.476  0.4081  1.4843 -0.5223
14023TIP3   OH263483   3.047   2.631  14.772  0.1309  0.0565  0.0770
14023TIP3    H163484   3.105   2.563  14.806  0.7405  0.6654  0.2553
14023TIP3    H263485   2.972   2.582  14.737 -0.9123 -0.5632  2.9596
14024TIP3   OH263486   4.416   1.701  12.650  1.1058 -0.5547 -0.1289
14024TIP3    H163487   4.342   1.747  12.610 -1.4406 -2.7280  1.7174
14024TIP3    H263488   4.468   1.670  12.576 -0.6965 -0.2709 -1.5883
14025TIP3   OH263489   2.219   1.404  13.892 -0.0758  0.4438 -0.1503
14025TIP3    H163490   2.146   1.459  13.919 -1.9592 -0.8782 -2.2501
14025TIP3    H263491   2.249   1.441  13.809  0.1893 -0.3086 -0.4075
14026TIP3   OH263492   4.990   5.731   2.329 -0.1376 -0.2433  0.1440
14026TIP3    H163493   5.013   5.671   2.401 -1.2641 -1.3171 -0.3483
14026TIP3    H263494   5.073   5.747   2.284  0.4452 -0.1786  1.2212
14027TIP3   OH263495   5.470   5.001   2.059 -0.2809 -0.3980  0.0661
14027TIP3    H163496   5.399   5.056   2.092  0.1227 -0.0052  0.3015
14027TIP3    H263497   5.464   5.009   1.963 -0.5832 -0.4082  0.0839
14028TIP3   OH263498   3.531   2.867  12.343 -0.2614  1.1408  0.4876
14028TIP3    H163499   3.582   2.922  12.284  1.8671  0.9593  1.9973
14028TIP3    H263500   3.526   2.782  12.299 -1.6923  1.9154 -0.8975
14029TIP3   OH263501   0.217   6.329  12.309  0.1608  0.3220  0.3623
14029TIP3    H163502   0.222   6.325  12.213  1.6570  0.2828  0.4118
14029TIP3    H263503   0.238   6.421  12.330 -2.4185  0.9238  0.5853
14030TIP3   OH263504   6.152   5.898  10.426 -0.3344 -0.1522  0.3059
14030TIP3    H163505   6.096   5.962  10.380  0.5338  2.4198  2.5721
14030TIP3    H263506   6.239   5.938  10.425  0.7221 -2.3333  0.0768
14031TIP3   OH263507   4.417   6.399  12.041  0.8596 -0.4474 -0.1083
14031TIP3    H163508   4.447   6.423  11.954 -0.0157 -0.6776 -0.4896
14031TIP3    H263509   4.489   6.422  12.099  0.3623  2.5704 -0.4918
14032TIP3   OH263510   5.398   6.143   4.100 -0.4640 -0.2167  0.2577
14032TIP3    H163511   5.461   6.171   4.034 -0.3662  0.3917  0.6000
14032TIP3    H263512   5.450   6.131   4.179 -0.5775 -0.9674  0.2216
14033TIP3   OH263513   2.231   5.197   2.584 -0.3465 -0.2763  0.5271
14033TIP3    H163514   2.175   5.274   2.585 -1.9594 -1.3460 -1.1770
14033TIP3    H263515   2.320   5.232   2.576 -1.1355  1.4128 -1.7271
14034TIP3   OH263516   0.607   5.571   0.494 -0.6722 -0.1858  0.2928
14034TIP3    H163517   0.653   5.495   0.456 -1.3506 -0.8079  0.6923
14034TIP3    H263518   0.677   5.633   0.515  0.0349 -1.2256  1.1342
14035TIP3   OH263519   5.620   4.521   6.565  0.3514 -0.2600 -0.5467
14035TIP3    H163520   5.708   4.555   6.548  0.8421 -1.4116 -0.3655
14035TIP3    H263521   5.634   4.439   6.611 -0.8401 -0.1956 -0.0244
14036TIP3   OH263522   5.209   1.579  12.429 -0.4456 -0.1719  0.0026
14036TIP3    H163523   5.248   1.662  12.456  2.5332 -1.2208 -0.7110
14036TIP3    H263524   5.165   1.599  12.346  3.6672  0.0676 -2.3668
14037TIP3   OH263525   5.336   6.558   0.607  0.1669  0.6807  0.2528
14037TIP3    H163526   5.294   6.513   0.534  1.6779  0.0570 -0.2925
14037TIP3    H263527   5.282   6.635   0.624 -1.3759 -0.2964 -0.1151
14038TIP3   OH263528   6.404   2.608  17.179  0.1472  0.2574 -0.2320
14038TIP3    H163529   6.446   2.650  17.254 -0.1413 -0.2599  0.2258
14038TIP3    H263530   6.378   2.521  17.211 -2.9124  1.1660  0.0774
14039TIP3   OH263531   3.646   3.769   4.756 -0.4388 -0.7406 -0.2092
14039TIP3    H163532   3.736   3.772   4.788  0.7516 -1.0244 -3.2303
14039TIP3    H263533   3.644   3.830   4.682 -2.5332 -1.2531 -0.6546
14040TIP3   OH263534   5.421   4.946  11.792 -0.3357 -0.0907  0.4845
14040TIP3    H163535   5.491   4.927  11.731  0.7650 -0.2457  1.7453
14040TIP3    H263536   5.411   4.866  11.844 -0.9505  0.1678  0.7772
14041TIP3   OH263537   5.108   5.173  14.975  0.1366  0.9590 -0.0056
14041TIP3    H163538   5.075   5.249  14.926 -0.5865  1.4862  1.2754
14041TIP3    H263539   5.133   5.110  14.906 -1.3764  1.4475 -1.0658
14042TIP3   OH263540   2.013   3.140  13.203  0.3419  0.2072  0.2390
14042TIP3    H163541   1.954   3.194  13.151 -0.5860  0.8549  1.8908
14042TIP3    H263542   2.099   3.180  13.190 -0.1531  1.4165  0.5513
14043TIP3   OH263543   3.143   6.664  13.800  0.0353  0.4562  0.3272
14043TIP3    H163544   3.118   6.623  13.716 -1.0382  3.2727 -0.8634
14043TIP3    H263545   3.193   6.741  13.775 -0.6310  1.5845  2.2697
14044TIP3   OH263546   3.097   3.039  11.389  0.3145  0.6268  0.4587
14044TIP3    H163547   3.154   3.026  11.313 -0.4176  2.0851 -0.3832
14044TIP3    H263548   3.039   2.963  11.389  0.5805  0.4174 -0.2148
14045TIP3   OH263549   4.960   0.783   2.385 -0.1042  0.5476 -0.2321
14045TIP3    H163550   4.917   0.697   2.392 -2.8496  1.8347 -0.0083
14045TIP3    H263551   5.034   0.767   2.327 -0.0739 -2.1220  0.3861
14046TIP3   OH263552   6.751   3.300   4.802 -0.5740  0.0490 -0.4906
14046TIP3    H163553   6.697   3.224   4.778 -0.1280 -1.3141  2.3441
14046TIP3    H263554   6.698   3.348   4.865  1.3192 -1.2668  2.2870
14047TIP3   OH263555   5.926   3.319  11.621 -0.2311 -0.1556  0.1209
14047TIP3    H163556   5.921   3.306  11.715 -2.4072  1.9276  0.4094
14047TIP3    H263557   5.847   3.277  11.587 -0.2287  0.3851 -0.5729
14048TIP3   OH263558   6.270   0.506   0.316 -0.3902 -0.1830  0.1715
14048TIP3    H163559   6.202   0.447   0.350 -1.5187 -1.9120 -4.2979
14048TIP3    H263560   6.221   0.581   0.282  0.5705  1.0514  1.4020
14049TIP3   OH263561   2.124   2.120   1.576 -0.0744  0.2062 -0.0808
14049TIP3    H163562   2.054   2.064   1.544  0.9342 -0.5053 -1.1373
14049TIP3    H263563   2.171   2.148   1.497 -0.4177  2.4021  0.4354
14050TIP3   OH263564   1.428   5.620   2.719  0.2681  0.0501 -0.3238
14050TIP3    H163565   1.412   5.593   2.810 -1.0069 -0.3370 -0.6464
14050TIP3    H263566   1.427   5.716   2.723 -0.2112  0.0360  0.0049
14051TIP3   OH263567   3.523   1.768   2.798 -0.1582 -0.8668  0.2867
14051TIP3    H163568   3.476   1.821   2.733  1.0493  0.0373  0.1082
14051TIP3    H263569   3.474   1.781   2.879 -1.2958 -1.4730 -0.2707
14052TIP3   OH263570   1.181   3.126  13.858 -0.0585  0.5240  0.0922
14052TIP3    H163571   1.249   3.108  13.922  1.0824  1.3260 -0.8440
14052TIP3    H263572   1.154   3.216  13.876  1.1404  1.2034 -1.2551
14053TIP3   OH263573   4.890   6.385   3.676 -0.4018 -0.1014  0.4110
14053TIP3    H163574   4.800   6.407   3.698 -0.6612 -0.5039 -0.2010
14053TIP3    H263575   4.883   6.307   3.621  0.2858  0.1615 -0.0732
14054TIP3   OH263576   5.569   5.246   1.724  0.3526 -0.0080  0.2547
14054TIP3    H163577   5.643   5.285   1.771  1.3594 -1.7699  0.2070
14054TIP3    H263578   5.590   5.259   1.632  2.3455 -3.3350  0.1041
14055TIP3   OH263579   6.368   3.118   5.163  0.3891  0.7371 -0.3726
14055TIP3    H163580   6.283   3.143   5.199 -0.7050 -1.6673 -1.0943
14055TIP3    H263581   6.407   3.063   5.231 -0.3430 -1.2715 -1.5058
14056TIP3   OH263582   4.368   4.647   0.846 -0.5636  0.1804 -0.2117
14056TIP3    H163583   4.449   4.650   0.795  1.7664  0.0344  3.1120
14056TIP3    H263584   4.332   4.560   0.829  1.1629 -0.5719 -0.2056
14057TIP3   OH263585   3.075   2.094  10.983 -0.4468 -0.1275  0.2345
14057TIP3    H163586   3.044   2.105  10.894  2.0256 -0.8064 -0.8068
14057TIP3    H263587   3.075   2.183  11.020  0.4797  0.5088 -1.1957
14058TIP3   OH263588   1.727   4.541  15.202 -0.4914  0.0354 -0.2162
14058TIP3    H163589   1.815   4.557  15.167  0.2450  0.4789  1.6802
14058TIP3    H263590   1.743   4.507  15.290 -2.2308 -0.9501 -0.2479
14059TIP3   OH263591   5.304   6.070  11.507 -0.1099 -0.0569 -0.1706
14059TIP3    H163592   5.389   6.055  11.548  0.6157 -0.7545 -1.8376
14059TIP3    H263593   5.298   6.003  11.439 -1.6345  0.5135 -0.6384
14060TIP3   OH263594   4.494   2.307  16.792 -0.2050  0.8265  0.5018
14060TIP3    H163595   4.427   2.250  16.829 -1.0952  1.4649 -0.0731
14060TIP3    H263596   4.513   2.371  16.861 -0.5579  0.9504  0.4827
14061TIP3   OH263597   1.717   4.332   1.381 -0.3047 -0.0934 -0.0821
14061TIP3    H163598   1.767   4.286   1.313  1.0450  2.3101 -0.8372
14061TIP3    H263599   1.684   4.411   1.337  0.1127  1.2440  1.8727
14062TIP3   OH263600   5.413   3.480   1.550  0.1130 -0.0007  0.2627
14062TIP3    H163601   5.372   3.477   1.637  0.1083 -0.4293  0.2458
14062TIP3    H263602   5.369   3.411   1.501  0.5381 -0.1578  0.1017
14063TIP3   OH263603   4.968   4.670  10.920 -0.1654  1.0858  0.1590
14063TIP3    H163604   4.988   4.626  10.838  1.6281 -0.1652  1.1854
14063TIP3    H263605   4.921   4.750  10.895 -0.2902  0.3781 -1.9974
14064TIP3   OH263606   1.867   1.268  15.509  0.2979 -0.4678 -0.5256
14064TIP3    H163607   1.920   1.268  15.430  0.2723  0.5161 -0.5539
14064TIP3    H263608   1.780   1.240  15.480  0.3598 -0.3763 -0.7956
14065TIP3   OH263609   3.544   6.157  14.597  0.2960  0.1634  0.0705
14065TIP3    H163610   3.607   6.140  14.527  0.1359 -0.9568  0.1767
14065TIP3    H263611   3.598   6.185  14.671  0.5376  0.5831 -0.2619
14066TIP3   OH263612   0.548   6.070   2.706  0.1261 -0.2108  0.2614
14066TIP3    H163613   0.499   6.130   2.762 -0.5869  0.9581 -1.4930
14066TIP3    H263614   0.640   6.088   2.725 -0.0407  1.9774 -0.6350
14067TIP3   OH263615   1.497   4.716   3.913  0.1002  0.4953  0.2231
14067TIP3    H163616   1.544   4.633   3.920  0.2705  0.3444 -2.1620
14067TIP3    H263617   1.405   4.691   3.902  0.1688  0.6133 -0.6303
14068TIP3   OH263618   4.450   0.601   3.082 -0.2126 -0.2680 -0.3686
14068TIP3    H163619   4.438   0.693   3.059 -1.6248 -0.3664 -0.1103
14068TIP3    H263620   4.442   0.599   3.178  1.3389 -0.4683 -0.2100
14069TIP3   OH263621   3.400   6.447  12.234  0.1976 -0.5296  0.4309
14069TIP3    H163622   3.453   6.368  12.238 -0.4400 -1.0044 -0.3061
14069TIP3    H263623   3.310   6.417  12.250 -0.1455 -0.0595 -0.5352
14070TIP3   OH263624   4.170   3.835   2.803 -0.5239 -0.4615  0.7435
14070TIP3    H163625   4.116   3.766   2.765  0.0130 -0.1972 -0.5594
14070TIP3    H263626   4.254   3.826   2.758 -0.0927  0.3360  1.3677
14071TIP3   OH263627   1.681   0.616   1.222 -0.3921 -0.3216 -0.3841
14071TIP3    H163628   1.754   0.673   1.246  0.2681 -1.3658  0.1663
14071TIP3    H263629   1.717   0.527   1.226 -1.5680 -0.8318 -0.5674
14072TIP3   OH263630   5.731   3.915  11.436 -0.6785 -0.2124 -0.0284
14072TIP3    H163631   5.730   3.822  11.411 -0.5431 -0.4561  0.8502
14072TIP3    H263632   5.822   3.934  11.455 -0.6624  0.1854 -0.4834
14073TIP3   OH263633   6.165   3.954  15.991  0.4940 -0.3185 -0.2531
14073TIP3    H163634   6.096   4.016  16.016  2.1626  1.1255  1.0581
14073TIP3    H263635   6.185   3.908  16.073  0.8200 -0.9871 -0.7051
14074TIP3   OH263636   0.396   0.622  14.717 -0.5462  0.1448  0.2256
14074TIP3    H163637   0.458   0.552  14.694 -0.8709 -0.4210  1.0304
14074TIP3    H263638   0.441   0.703  14.690 -0.2761 -0.3710 -0.9606
14075TIP3   OH263639   2.157   3.211  11.466  0.1277 -0.0663 -0.6350
14075TIP3    H163640   2.113   3.126  11.468  0.6249 -0.3227 -0.2060
14075TIP3    H263641   2.191   3.219  11.376 -0.2079 -0.1677 -0.7714
14076TIP3   OH263642   2.360   0.449   3.534 -0.2261  0.3259  0.1299
14076TIP3    H163643   2.319   0.534   3.517 -0.0044  0.5996  0.8796
14076TIP3    H263644   2.439   0.449   3.480 -1.5835 -0.5380 -1.9295
14077TIP3   OH263645   3.611   4.982  16.902 -0.2048  0.5688  0.3522
14077TIP3    H163646   3.571   4.900  16.934  0.0490  0.5081  0.5131
14077TIP3    H263647   3.554   5.009  16.831  0.4784 -0.4913 -0.6368
14078TIP3   OH263648   0.115   0.446   2.469  0.2763 -0.3485  0.4470
14078TIP3    H163649   0.124   0.534   2.432  0.8834 -1.3897 -2.0339
14078TIP3    H263650   0.025   0.443   2.500 -0.1226  0.7495 -0.5167
14079TIP3   OH263651   0.034   2.746  12.362  0.4219 -0.2920  0.2817
14079TIP3    H163652   0.043   2.841  12.373  2.7563 -0.1087 -2.2329
14079TIP3    H263653  -0.059   2.729  12.380 -0.1186  2.4665  0.6190
14080TIP3   OH263654   4.396   2.624  14.874 -0.0696 -0.2466 -0.3197
14080TIP3    H163655   4.477   2.618  14.925  0.7718 -1.9401 -1.7571
14080TIP3    H263656   4.328   2.590  14.933  0.4710  0.0009  0.4618
14081TIP3   OH263657   2.909   4.762   2.262 -0.2889 -0.3917  0.1448
14081TIP3    H163658   2.832   4.724   2.305 -0.4786 -0.6246 -0.3916
14081TIP3    H263659   2.904   4.855   2.282  0.8780 -0.7650  2.5686
14082TIP3   OH263660   2.276   2.571  11.875 -0.1955 -0.3476 -0.4643
14082TIP3    H163661   2.231   2.487  11.878  1.2435 -1.1310  0.2372
14082TIP3    H263662   2.307   2.586  11.965 -0.3995  0.9186 -0.5808
14083TIP3   OH263663   5.436   2.158  14.629  0.6905 -0.3128 -0.2077
14083TIP3    H163664   5.428   2.141  14.723 -1.6848 -0.6048 -0.3900
14083TIP3    H263665   5.436   2.254  14.622  2.2754 -0.2609  0.1285
14084TIP3   OH263666   1.979   0.117  12.510 -0.1814  0.5396 -0.2512
14084TIP3    H163667   1.932   0.189  12.469  0.2802  0.6597 -0.5806
14084TIP3    H263668   2.044   0.090  12.445 -0.8003 -0.6269 -0.4041
14085TIP3   OH263669   0.770   3.587   2.348  0.6455  0.0505  0.5318
14085TIP3    H163670   0.710   3.609   2.419 -2.0568 -2.8913 -0.6158
14085TIP3    H263671   0.731   3.627   2.270  0.1263 -1.8120 -0.2161
14086TIP3   OH263672   1.692   4.662  12.688 -0.0006 -0.2139 -0.1149
14086TIP3    H163673   1.750   4.597  12.728 -0.6258 -0.5447  0.2784
14086TIP3    H263674   1.722   4.669  12.597 -0.9086 -2.2506 -0.6360
14087TIP3   OH263675   0.920   3.788  13.835  0.8214 -0.6911 -0.8610
14087TIP3    H163676   0.835   3.821  13.804  0.8664  0.5332  0.2349
14087TIP3    H263677   0.984   3.830  13.778  0.7550 -0.7153 -0.9550
14088TIP3   OH263678   5.574   1.573  14.520  0.3560 -0.2153  0.9912
14088TIP3    H163679   5.499   1.621  14.553  1.1298  1.8629 -0.0642
14088TIP3    H263680   5.649   1.628  14.540  1.4543 -1.5470  0.7408
14089TIP3   OH263681   1.879   2.808   5.728  0.0086  0.3107 -0.0361
14089TIP3    H163682   1.848   2.721   5.703 -0.6025  0.3576  0.5305
14089TIP3    H263683   1.940   2.833   5.658 -0.5550 -0.1597 -0.7094
14090TIP3   OH263684   4.448   1.281  13.369 -0.1747  0.3555  0.3369
14090TIP3    H163685   4.521   1.219  13.358 -0.4172  0.0596  0.4055
14090TIP3    H263686   4.427   1.279  13.462 -0.4995  0.1829  0.2612
14091TIP3   OH263687   5.062   5.637   3.864  0.0321  0.5778 -0.1995
14091TIP3    H163688   5.019   5.562   3.822  1.5121  0.6411 -1.9697
14091TIP3    H263689   5.012   5.651   3.945 -1.1055 -1.4668 -0.4666
14092TIP3   OH263690   0.803   0.653  12.353 -0.1749  0.0994 -0.1616
14092TIP3    H163691   0.741   0.581  12.344  0.1483 -0.1021 -0.7469
14092TIP3    H263692   0.887   0.618  12.323  0.2102  0.4079  0.5135
14093TIP3   OH263693   4.863   1.485   6.198 -0.5692  1.0279 -0.0389
14093TIP3    H163694   4.845   1.530   6.116 -1.1589  0.0567 -0.4545
14093TIP3    H263695   4.928   1.418   6.176 -2.4950 -0.8597 -0.2770
14094TIP3   OH263696   5.946   1.151  11.316 -0.2071  0.1591  0.2613
14094TIP3    H163697   5.987   1.170  11.231 -0.2460 -0.4871  0.0890
14094TIP3    H263698   5.982   1.216  11.376 -0.3699  0.7848 -0.3087
14095TIP3   OH263699   3.705   1.486  14.041 -0.4177 -0.1318  0.1306
14095TIP3    H163700   3.647   1.430  13.989 -0.8479 -1.4300  1.9059
14095TIP3    H263701   3.759   1.425  14.092  1.2788  1.0727 -0.1345
14096TIP3   OH263702   0.177   0.811   0.702  0.0332 -0.0011  0.1122
14096TIP3    H163703   0.148   0.819   0.611 -2.7020 -0.6675  0.8212
14096TIP3    H263704   0.263   0.853   0.704 -0.1964  0.7930 -2.5792
14097TIP3   OH263705   3.797   1.311   4.349 -0.1454  0.6832  0.0279
14097TIP3    H163706   3.746   1.290   4.270 -1.9086  2.4921  0.5851
14097TIP3    H263707   3.758   1.257   4.418  1.6111 -1.1414 -0.3442
14098TIP3   OH263708   0.169   3.024  16.987 -0.6436 -0.4645 -0.3205
14098TIP3    H163709   0.174   3.112  16.950  0.4493 -0.8449 -1.1374
14098TIP3    H263710   0.089   3.024  17.040 -0.5335  1.0802 -0.1199
14099TIP3   OH263711   6.062   1.628  12.006 -0.3436 -0.3443 -0.0017
14099TIP3    H163712   6.137   1.577  11.975  0.2070  1.5517 -2.0566
14099TIP3    H263713   5.991   1.602  11.947 -0.2101  0.7899 -0.6832
14100TIP3   OH263714   3.548   2.245   2.442 -0.3182 -0.2246  0.8130
14100TIP3    H163715   3.530   2.153   2.423  1.2851 -0.4505  0.1666
14100TIP3    H263716   3.631   2.263   2.397  0.1661  1.1320  2.1586
14101TIP3   OH263717   2.111   4.243  13.542 -0.7682  0.3268  0.0725
14101TIP3    H163718   2.204   4.233  13.522 -0.5511  0.0422  1.1730
14101TIP3    H263719   2.099   4.336  13.559 -1.1805  0.7873 -2.3333
14102TIP3   OH263720   1.580   0.772   4.072  1.2098  0.0360 -0.3834
14102TIP3    H163721   1.630   0.701   4.111  1.1488  0.2054  0.0047
14102TIP3    H263722   1.611   0.851   4.117 -0.9191 -0.0657  1.4382
14103TIP3   OH263723   5.263   5.088  16.966 -0.5167 -0.4360  0.0655
14103TIP3    H163724   5.355   5.077  16.989  0.2531  0.2677 -2.3813
14103TIP3    H263725   5.238   5.004  16.927 -0.8758 -0.5789  0.5999
14104TIP3   OH263726   4.766   3.121   1.115 -0.0677  0.2702 -0.7786
14104TIP3    H163727   4.791   3.213   1.112 -0.3168  0.4043  0.5896
14104TIP3    H263728   4.683   3.119   1.162 -0.6352 -0.5565 -1.7728
14105TIP3   OH263729   1.122   2.237  14.250 -0.1692 -0.0546  0.3673
14105TIP3    H163730   1.047   2.240  14.309 -2.8753  1.3509 -2.8419
14105TIP3    H263731   1.097   2.173  14.183  1.1137  1.0531 -1.2393
14106TIP3   OH263732   4.229   5.107  12.247 -0.2881 -0.1954  0.2032
14106TIP3    H163733   4.175   5.041  12.202  1.2184 -0.0483 -1.9939
14106TIP3    H263734   4.318   5.090  12.215  0.7205  0.6508  2.3896
14107TIP3   OH263735   6.774   2.941   5.583  0.4921 -0.7540 -0.3602
14107TIP3    H163736   6.785   2.919   5.675  0.4655  0.6263 -0.0026
14107TIP3    H263737   6.825   3.021   5.572 -2.4542  1.2323 -0.6278
14108TIP3   OH263738   5.718   4.104  12.571 -0.2005 -0.1133 -0.0718
14108TIP3    H163739   5.631   4.093  12.611 -0.4882  0.6673 -0.4474
14108TIP3    H263740   5.714   4.190  12.530  0.7121 -0.1352 -0.2221
14109TIP3   OH263741   1.875   4.148  14.706  0.4944 -0.1658  0.2153
14109TIP3    H163742   1.961   4.174  14.674  0.4878 -0.0998  0.2511
14109TIP3    H263743   1.889   4.130  14.799  0.6096 -0.7817  0.0844
14110TIP3   OH263744   5.498   0.734  16.475 -0.2662  0.2136 -1.1228
14110TIP3    H163745   5.557   0.701  16.407  1.8457  1.6241 -0.0703
14110TIP3    H263746   5.552   0.793  16.528 -0.8510 -2.8860  3.5801
14111TIP3   OH263747   5.522   5.306  13.463 -0.4115 -0.2508  0.1350
14111TIP3    H163748   5.614   5.318  13.438 -0.7813 -2.7133 -3.0020
14111TIP3    H263749   5.495   5.392  13.495  2.2320  1.3692 -1.5578
14112TIP3   OH263750   2.543   2.715  13.989  0.2195 -0.2173 -0.1705
14112TIP3    H163751   2.532   2.639  14.047  1.8288 -0.8229 -0.6311
14112TIP3    H263752   2.564   2.678  13.904 -0.3037  0.7333 -0.7305
14113TIP3   OH263753   5.972   4.034  15.133  0.7458  0.0251 -0.3753
14113TIP3    H163754   5.921   3.984  15.197 -0.6439 -0.2863 -1.6782
14113TIP3    H263755   6.054   3.984  15.123  0.8037 -0.1544  0.7979
14114TIP3   OH263756   3.878   1.577  11.601  0.2268  0.2248  0.4710
14114TIP3    H163757   3.810   1.568  11.535 -0.0790 -0.5703  0.8805
14114TIP3    H263758   3.935   1.501  11.588 -0.6615 -0.7591  2.0374
14115TIP3   OH263759   2.767   2.805   1.154 -0.0515  0.4069  0.3658
14115TIP3    H163760   2.750   2.742   1.084  0.6209  1.7276 -1.0586
14115TIP3    H263761   2.773   2.752   1.233 -2.0404 -1.0255 -0.3477
14116TIP3   OH263762   3.295   2.445   3.943  0.5893 -0.2625 -0.4730
14116TIP3    H163763   3.331   2.487   4.021 -0.1183 -0.9662  0.2413
14116TIP3    H263764   3.238   2.511   3.904 -0.4814 -0.4966  0.6188
14117TIP3   OH263765   2.164   6.751  17.122  0.1386 -0.6803  0.3220
14117TIP3    H163766   2.224   6.795  17.062  0.1644 -1.3098 -0.1194
14117TIP3    H263767   2.081   6.746  17.074 -1.0389  2.3147  1.7652
14118TIP3   OH263768   6.746   1.452  16.976 -0.0897  0.0710  0.6015
14118TIP3    H163769   6.748   1.379  16.913  0.0599  0.9597 -0.4685
14118TIP3    H263770   6.839   1.475  16.987 -0.1719  0.4397  0.5165
14119TIP3   OH263771   1.875   2.550  12.492  0.3997 -0.9161 -0.7426
14119TIP3    H163772   1.787   2.576  12.517 -0.2613 -3.2503 -0.4169
14119TIP3    H263773   1.867   2.521  12.401  0.5080 -2.4479 -0.2822
14120TIP3   OH263774   6.312   0.169   2.727 -0.1422 -0.9032  0.5588
14120TIP3    H163775   6.330   0.106   2.797  0.4661 -1.4867 -0.1031
14120TIP3    H263776   6.363   0.137   2.653 -0.8105 -0.3209 -0.1667
14121TIP3   OH263777   6.749   2.282  16.529  0.3981  0.0486  0.1227
14121TIP3    H163778   6.806   2.317  16.460  1.3997 -0.4492  0.6920
14121TIP3    H263779   6.738   2.190  16.506 -0.3730  0.1890 -0.1052
14122TIP3   OH263780   0.991   4.460   5.766 -0.4692  0.3979  0.6467
14122TIP3    H163781   0.898   4.458   5.790 -0.6517  0.2050 -0.0404
14122TIP3    H263782   0.991   4.478   5.672  0.2123  1.0077  0.7542
14123TIP3   OH263783   5.242   1.248  14.826 -0.7891 -0.3299  0.5078
14123TIP3    H163784   5.221   1.316  14.890 -1.4323 -0.4214  0.4021
14123TIP3    H263785   5.313   1.286  14.773 -1.5225  0.5042  0.0818
14124TIP3   OH263786   6.548   6.705   4.984 -0.7380  0.2454  0.4143
14124TIP3    H163787   6.508   6.791   4.971 -1.9389 -0.2918  0.4304
14124TIP3    H263788   6.498   6.647   4.926 -1.1653 -0.7785  1.7785
14125TIP3   OH263789   2.687   5.992   2.412 -0.2992  0.0630  0.4685
14125TIP3    H163790   2.642   5.934   2.473  0.5500  0.4522  1.4844
14125TIP3    H263791   2.702   6.072   2.461 -1.7996  1.3437 -1.0390
14126TIP3   OH263792   1.549   0.564   5.657  0.2601  0.0999  0.5595
14126TIP3    H163793   1.627   0.551   5.710  3.1474  3.5851 -2.3157
14126TIP3    H263794   1.508   0.643   5.695 -0.7951 -0.5665  0.8455
14127TIP3   OH263795   3.759   4.883  11.026 -0.1958 -0.5488  0.2327
14127TIP3    H163796   3.672   4.844  11.019 -0.5197  0.4074 -1.8033
14127TIP3    H263797   3.755   4.937  11.105  0.0505 -3.8342  2.7554
14128TIP3   OH263798   3.660   2.507   0.536 -0.3907 -0.0121  0.2024
14128TIP3    H163799   3.636   2.426   0.580 -1.0107  0.4044  0.6504
14128TIP3    H263800   3.676   2.569   0.607  0.3891  0.1794 -0.1288
14129TIP3   OH263801   5.140   3.329  14.168 -0.1558 -0.4606 -0.0091
14129TIP3    H163802   5.083   3.253  14.154 -0.3110 -0.2356 -0.6098
14129TIP3    H263803   5.228   3.292  14.173 -0.1937 -0.6482 -0.6436
14130TIP3   OH263804   0.501   1.917  10.244  0.1360 -0.3317 -0.2112
14130TIP3    H163805   0.407   1.933  10.250  0.4262  0.8598  2.9587
14130TIP3    H263806   0.510   1.822  10.252 -0.7742 -0.3884  0.1937
14131TIP3   OH263807   3.840   2.307  15.043 -0.1179  0.1649  0.1388
14131TIP3    H163808   3.876   2.396  15.054 -1.4130  0.6884  0.2668
14131TIP3    H263809   3.912   2.258  15.003  1.4874  0.6158  2.2687
14132TIP3   OH263810   4.872   1.115  11.046 -0.2885 -0.5126 -0.3981
14132TIP3    H163811   4.782   1.140  11.023  0.0544 -0.5993 -1.9417
14132TIP3    H263812   4.918   1.111  10.963  0.5397 -2.8884  0.0781
14133TIP3   OH263813   6.475   2.169   6.260  0.3506 -0.0815  1.1006
14133TIP3    H163814   6.469   2.255   6.301  0.1997 -0.5202  2.0181
14133TIP3    H263815   6.390   2.156   6.219  0.6869  0.5893  0.1671
14134TIP3   OH263816   2.736   6.399  16.312 -0.5208 -0.3554 -0.6690
14134TIP3    H163817   2.660   6.401  16.254 -0.5526  2.3812 -0.6609
14134TIP3    H263818   2.795   6.466  16.278  0.0064  0.4877  1.7220
14135TIP3   OH263819   0.842   5.156   3.683 -0.2099  0.5005 -0.2802
14135TIP3    H163820   0.867   5.068   3.656 -1.3448 -0.7525  2.3368
14135TIP3    H263821   0.878   5.214   3.616  2.5192 -1.7504 -0.9527
14136TIP3   OH263822   4.442   3.407  12.628  0.2506  0.9954  0.0221
14136TIP3    H163823   4.446   3.453  12.712  0.8945  1.3701 -0.1985
14136TIP3    H263824   4.496   3.329  12.640  0.8875  1.3823 -0.2242
14137TIP3   OH263825   5.636   6.269  12.385  0.2625 -0.0328 -0.3213
14137TIP3    H163826   5.695   6.320  12.330  0.3108  2.0016  1.4582
14137TIP3    H263827   5.548   6.297  12.359  0.2820  0.8271  0.4656
14138TIP3   OH263828   1.765   0.538  15.341 -0.1982 -0.3663 -0.4577
14138TIP3    H163829   1.815   0.465  15.376 -0.4523 -1.0793 -1.5485
14138TIP3    H263830   1.766   0.604  15.412  0.8338 -1.0286  0.1666
14139TIP3   OH263831   6.391   2.286  11.776  0.0868 -0.2629  0.0118
14139TIP3    H163832   6.435   2.277  11.691 -0.2572 -0.1654 -0.1780
14139TIP3    H263833   6.355   2.200  11.794 -1.9354  0.2822 -1.1053
14140TIP3   OH263834   2.993   1.714   3.619  0.0652  0.4575  0.1765
14140TIP3    H163835   2.979   1.684   3.529 -1.4166  0.6001  0.3299
14140TIP3    H263836   2.985   1.635   3.672  1.8222  0.2230  0.1359
14141TIP3   OH263837   2.493   3.959  14.663  0.0760  0.8226 -0.1755
14141TIP3    H163838   2.410   3.930  14.700 -0.3027 -0.8685 -2.1320
14141TIP3    H263839   2.521   3.886  14.608  4.0541  0.3385  2.1073
14142TIP3   OH263840   3.504   0.888  13.618  0.3967  0.1136 -0.9887
14142TIP3    H163841   3.549   0.817  13.663  2.8318  0.8928 -2.0126
14142TIP3    H263842   3.411   0.867  13.627  0.8715 -1.3368  1.7016
14143TIP3   OH263843   6.531   4.656   0.685  0.3278 -0.0976  0.2639
14143TIP3    H163844   6.584   4.669   0.763 -1.9466  0.3926  1.7988
14143TIP3    H263845   6.509   4.563   0.685  1.9204 -0.5290 -0.9430
14144TIP3   OH263846   6.358   5.642  15.056  0.3418 -0.2654 -0.4824
14144TIP3    H163847   6.290   5.659  14.991 -0.1410 -0.1286  0.0460
14144TIP3    H263848   6.318   5.666  15.140  1.0296 -0.2162 -0.1561
14145TIP3   OH263849   5.146   1.979  11.973  0.2274 -0.2928 -0.1616
14145TIP3    H163850   5.138   1.939  11.887  2.7467 -1.2811 -0.0119
14145TIP3    H263851   5.239   2.002  11.981  0.1741 -0.6494  2.4438
14146TIP3   OH263852   6.122   4.247  16.821 -0.6138 -0.5856  0.1481
14146TIP3    H163853   6.130   4.158  16.786 -0.9620 -0.0951 -1.2211
14146TIP3    H263854   6.206   4.264  16.862 -0.7565 -1.7761  1.0114
14147TIP3   OH263855   0.608   6.487  12.227 -0.1480 -0.2389 -0.1221
14147TIP3    H163856   0.653   6.569  12.247 -0.3118 -0.6651  2.2790
14147TIP3    H263857   0.534   6.512  12.172  0.8912  0.9338 -1.0472
14148TIP3   OH263858   4.630   4.711  14.028 -0.0687  0.0318 -0.4561
14148TIP3    H163859   4.717   4.690  14.061 -0.0177 -1.7700 -1.6314
14148TIP3    H263860   4.578   4.632  14.044 -0.8282  0.2009 -1.9094
14149TIP3   OH263861   5.667   0.059   4.649  0.7638  0.2837 -0.8199
14149TIP3    H163862   5.714   0.100   4.576  0.8919 -0.5549 -1.2231
14149TIP3    H263863   5.736   0.036   4.712  0.5261  2.2687  0.2412
14150TIP3   OH263864   2.534   5.530   3.340 -0.1263 -0.1976  0.1448
14150TIP3    H163865   2.594   5.456   3.348  0.3545  0.1476 -0.2054
14150TIP3    H263866   2.489   5.516   3.257  0.5093  0.2893 -0.2905
14151TIP3   OH263867   3.427   2.705  17.138 -0.3005  0.1333 -0.1889
14151TIP3    H163868   3.367   2.770  17.176  0.4338  0.5445  0.2974
14151TIP3    H263869   3.513   2.747  17.143  0.0377 -0.4730 -0.8223
14152TIP3   OH263870   4.154   1.138  16.115 -0.0602 -0.8878 -0.2125
14152TIP3    H163871   4.145   1.092  16.031 -1.6920  0.2171 -0.6908
14152TIP3    H263872   4.186   1.072  16.175 -0.0969 -2.0445 -1.4146
14153TIP3   OH263873   5.371   0.442   1.679  0.3442  0.3996  0.2819
14153TIP3    H163874   5.428   0.371   1.709 -0.7288 -0.0389  1.3748
14153TIP3    H263875   5.380   0.510   1.746 -1.9120 -0.5011  1.6408
14154TIP3   OH263876   3.768   5.781   2.369 -0.0874 -0.2342 -0.3258
14154TIP3    H163877   3.801   5.802   2.457 -0.2313 -1.0133 -0.0770
14154TIP3    H263878   3.675   5.804   2.372  0.0673  0.4407 -0.5167
14155TIP3   OH263879   3.273   2.098  14.520  0.3094  0.7124  0.1335
14155TIP3    H163880   3.297   2.046  14.443  1.2648  1.0561  0.1833
14155TIP3    H263881   3.181   2.118  14.508  0.4224  0.6774 -0.8712
14156TIP3   OH263882   0.745   2.175  12.304 -0.4382  0.5475 -0.1574
14156TIP3    H163883   0.817   2.238  12.299  1.3594 -1.4033 -0.4320
14156TIP3    H263884   0.677   2.211  12.248  1.4189  1.2071 -2.1351
14157TIP3   OH263885   2.836   1.214   1.855 -0.1469  0.3390  0.0540
14157TIP3    H163886   2.777   1.250   1.790  1.1268  0.8943 -0.8235
14157TIP3    H263887   2.826   1.271   1.931 -1.6118 -0.2921  0.3675
14158TIP3   OH263888   2.651   5.714  16.382 -0.1070  0.0578 -0.5899
14158TIP3    H163889   2.694   5.791  16.346 -0.5268  0.2949 -0.5851
14158TIP3    H263890   2.578   5.749  16.433  0.4292 -0.2736  0.4318
14159TIP3   OH263891   0.361   5.338  12.411  0.2741 -0.3895  0.2571
14159TIP3    H163892   0.381   5.405  12.477  0.9172  0.2307 -0.5573
14159TIP3    H263893   0.426   5.270  12.426 -0.3716 -0.8604  1.0766
14160TIP3   OH263894   2.686   4.107   3.377  0.3537  0.2759  0.2221
14160TIP3    H163895   2.741   4.075   3.449 -0.3554 -0.0097  0.6561
14160TIP3    H263896   2.742   4.165   3.327  0.7947  0.6804  1.1607
14161TIP3   OH263897   6.628   4.227   1.128  0.1574 -0.3565 -0.0108
14161TIP3    H163898   6.669   4.168   1.064  0.2745 -1.2710  0.8876
14161TIP3    H263899   6.601   4.170   1.199 -2.8183  0.1728 -0.5864
14162TIP3   OH263900   5.559   2.923  15.381  0.2738 -0.1149 -0.1636
14162TIP3    H163901   5.642   2.877  15.367  0.7372  0.8953 -0.8519
14162TIP3    H263902   5.533   2.954  15.294 -0.9449 -0.6102  0.0126
14163TIP3   OH263903   4.168   5.082   2.130 -0.2281 -0.0669  0.2685
14163TIP3    H163904   4.207   5.068   2.043 -0.6836 -0.4907  0.1291
14163TIP3    H263905   4.095   5.142   2.114  0.4848  0.9088  0.5628
14164TIP3   OH263906   3.680   5.293  15.469  0.1834  0.5770 -0.0176
14164TIP3    H163907   3.743   5.222  15.484  0.0037  0.1510 -1.1378
14164TIP3    H263908   3.654   5.282  15.378 -1.2636  0.9585  0.3295
14165TIP3   OH263909   0.070   6.664  12.536 -0.5628  0.3737 -0.0750
14165TIP3    H163910   0.066   6.671  12.440 -1.1920  0.2447 -0.0643
14165TIP3    H263911  -0.022   6.665  12.564 -0.3805  0.4898  0.5344
14166TIP3   OH263912   2.094   4.215  13.975  0.0705  0.4717 -0.0424
14166TIP3    H163913   2.031   4.190  13.907 -0.2605  0.6580  0.1937
14166TIP3    H263914   2.103   4.310  13.965  0.2957  0.4501 -0.0585
14167TIP3   OH263915   4.170   1.881  11.725 -0.0325  0.1652  0.4543
14167TIP3    H163916   4.107   1.925  11.669 -0.7654 -0.3082  0.8896
14167TIP3    H263917   4.117   1.830  11.786  0.7753 -0.6711  0.4836
14168TIP3   OH263918   0.805   6.494  16.301 -0.3184 -0.5571  0.4584
14168TIP3    H163919   0.745   6.422  16.282 -1.9090  1.0461 -1.0358
14168TIP3    H263920   0.784   6.560  16.235  2.2733  0.5968  0.6779
14169TIP3   OH263921   0.871   0.216  11.412 -0.0238  0.0991 -0.3372
14169TIP3    H163922   0.847   0.309  11.405 -1.6627 -0.3928 -2.5278
14169TIP3    H263923   0.943   0.206  11.351  0.3133 -0.0261  0.0809
14170TIP3   OH263924   2.342   3.575  12.382 -0.8033  0.0045 -0.0088
14170TIP3    H163925   2.333   3.626  12.301 -1.3652 -1.3006 -0.8031
14170TIP3    H263926   2.286   3.620  12.445  0.5356  1.7116  0.0215
14171TIP3   OH263927   4.666   6.368  12.197 -0.0114  0.0337  0.5574
14171TIP3    H163928   4.698   6.453  12.169 -0.1195 -0.4107 -0.9965
14171TIP3    H263929   4.623   6.385  12.281 -1.3803  1.7977 -0.4312
14172TIP3   OH263930   5.817   4.154  14.453  0.2812 -0.0786  0.5616
14172TIP3    H163931   5.755   4.227  14.455 -0.2995 -0.5683  0.7137
14172TIP3    H263932   5.780   4.090  14.514  0.8228 -0.4680  0.4823
14173TIP3   OH263933   2.335   4.137  16.328  0.0583  0.1188 -0.2472
14173TIP3    H163934   2.334   4.044  16.350  1.0136  0.2002  0.1896
14173TIP3    H263935   2.244   4.157  16.307 -0.6698 -0.3202  2.1348
14174TIP3   OH263936   5.252   5.091   2.178 -0.0433 -0.0363 -0.1224
14174TIP3    H163937   5.194   5.149   2.130 -0.5161 -0.5414 -0.1734
14174TIP3    H263938   5.279   5.142   2.254 -0.5253  0.2172 -0.1161
14175TIP3   OH263939   3.920   0.216   4.474  0.2285 -0.0002 -0.0846
14175TIP3    H163940   3.831   0.205   4.441  0.0904 -0.0570  0.2950
14175TIP3    H263941   3.960   0.280   4.416  0.4692 -1.1914 -1.2753
14176TIP3   OH263942   3.942   0.308   3.859  0.0608  0.2732  0.0519
14176TIP3    H163943   4.018   0.254   3.882  0.0689  0.2845  0.0517
14176TIP3    H263944   3.979   0.394   3.841  0.2864 -0.1918 -1.8996
14177TIP3   OH263945   4.694   3.382   1.512 -0.4814 -0.0953  0.1062
14177TIP3    H163946   4.641   3.303   1.523 -0.5721 -0.2631 -1.2636
14177TIP3    H263947   4.658   3.445   1.573 -1.4501 -0.6085  0.0813
14178TIP3   OH263948   1.017   4.497   4.956  0.5998 -0.4417  0.0318
14178TIP3    H163949   1.087   4.466   5.014  1.7101  0.0646 -0.9973
14178TIP3    H263950   0.982   4.417   4.917  1.2968 -0.6349 -0.2093
14179TIP3   OH263951   5.339   0.276  13.057 -0.0754  0.7819 -0.3169
14179TIP3    H163952   5.427   0.312  13.049  1.0201 -1.0232  2.1844
14179TIP3    H263953   5.287   0.324  12.993  2.6295  2.1549 -1.6350
14180TIP3   OH263954   2.720   2.117  11.656 -0.8423 -0.0381 -0.5587
14180TIP3    H163955   2.815   2.112  11.671 -0.8640  2.0050  0.5754
14180TIP3    H263956   2.688   2.174  11.726 -2.7494  0.2547 -1.6223
14181TIP3   OH263957   3.759   2.171  15.897 -0.0476 -0.0960 -0.1347
14181TIP3    H163958   3.717   2.095  15.857 -1.5164  0.6204 -0.0282
14181TIP3    H263959   3.836   2.188  15.842 -1.0550 -0.1863 -1.6366
14182TIP3   OH263960   0.390   3.861   0.926 -0.3088  0.3052  0.3688
14182TIP3    H163961   0.330   3.826   0.991 -1.3238  1.3862  0.0435
14182TIP3    H263962   0.466   3.890   0.977 -1.0623  1.0720  1.0739
14183TIP3   OH263963   0.993   1.805  17.224 -0.3211 -1.0357  0.2331
14183TIP3    H163964   1.044   1.811  17.143 -1.1699  1.0438 -0.2152
14183TIP3    H263965   1.053   1.836  17.292 -0.4067 -0.3084 -0.0145
14184TIP3   OH263966   3.617   2.298  12.832 -0.2000 -0.1976 -0.2430
14184TIP3    H163967   3.693   2.357  12.834 -0.2515 -0.1245 -0.4249
14184TIP3    H263968   3.542   2.356  12.830 -0.2450 -0.2711 -0.6361
14185TIP3   OH263969   5.609   3.955   2.412 -0.0347 -0.4336  0.7486
14185TIP3    H163970   5.573   4.028   2.463 -2.1528 -0.2935 -0.8313
14185TIP3    H263971   5.582   3.973   2.322  3.1704 -0.9091 -0.4583
14186TIP3   OH263972   5.768   6.517  16.332  0.2590 -0.5874 -0.4838
14186TIP3    H163973   5.856   6.532  16.297  0.3370 -0.2345 -0.1540
14186TIP3    H263974   5.740   6.604  16.361 -0.1995 -0.7016 -0.5892
14187TIP3   OH263975   3.788   5.235  11.792  0.4803  0.8379  0.1865
14187TIP3    H163976   3.857   5.174  11.768  0.8286  0.6072  1.6573
14187TIP3    H263977   3.708   5.182  11.795  0.1475  1.1510 -1.7432
14188TIP3   OH263978   3.045   1.611  12.888  0.2433 -0.2248 -0.1040
14188TIP3    H163979   3.086   1.594  12.972  2.1189 -0.8327 -1.0894
14188TIP3    H263980   3.014   1.701  12.894 -0.6132 -0.5935  1.5756
14189TIP3   OH263981   0.567   5.604  12.449  0.7331  0.0603 -0.0888
14189TIP3    H163982   0.565   5.548  12.372 -2.7865  0.0848 -0.1815
14189TIP3    H263983   0.601   5.688  12.416  0.3769 -0.2607 -1.3470
14190TIP3   OH263984   4.726   0.874   5.374  0.1614 -0.0849 -0.8555
14190TIP3    H163985   4.642   0.832   5.396 -0.4733  0.3456 -2.3195
14190TIP3    H263986   4.766   0.816   5.310  0.3375  0.4150 -1.2032
14191TIP3   OH263987   5.486   4.272   0.339 -0.5319  0.4417  0.0811
14191TIP3    H163988   5.526   4.343   0.289  2.2561 -1.4386 -0.5966
14191TIP3    H263989   5.560   4.230   0.384 -2.2538 -1.2297  1.5165
14192TIP3   OH263990   2.426   0.348   0.106 -0.3579  0.3497 -0.3275
14192TIP3    H163991   2.354   0.297   0.068  0.0798 -0.0324 -0.6497
14192TIP3    H263992   2.397   0.439   0.098 -0.7709  0.2052 -0.5303
14193TIP3   OH263993   1.639   5.741  15.670 -0.1190  0.1856  0.6830
14193TIP3    H163994   1.615   5.738  15.578  0.1280  2.8677  0.4403
14193TIP3    H263995   1.712   5.680  15.679  0.4589  0.5689 -1.1191
14194TIP3   OH263996   4.298   2.239  16.133 -0.1581  0.2757  0.1670
14194TIP3    H163997   4.218   2.188  16.149  0.7041 -1.3814 -0.4737
14194TIP3    H263998   4.365   2.172  16.118  0.7256  1.5818 -2.3516
14195TIP3   OH263999   3.507   4.950   4.798 -0.4468 -0.0176 -0.1361
14195TIP3    H164000   3.487   4.940   4.705 -0.3139  1.0580 -0.2951
14195TIP3    H264001   3.491   4.864   4.836  2.0697 -1.2430 -1.6028
14196TIP3   OH264002   0.571   3.984   6.035 -0.0304  0.0048  0.6955
14196TIP3    H164003   0.529   3.980   6.121 -0.0886  1.2439  0.7403
14196TIP3    H264004   0.537   3.907   5.989 -0.4332 -0.3676  1.5773
14197TIP3   OH264005   5.743   4.782  17.021 -0.0041  0.2703 -0.6225
14197TIP3    H164006   5.818   4.840  17.037 -0.6694  1.3708 -1.4109
14197TIP3    H264007   5.721   4.795  16.929 -1.0434 -0.1874 -0.4540
14198TIP3   OH264008   2.533   4.495  16.750 -0.5340  0.0482 -0.1936
14198TIP3    H164009   2.481   4.552  16.807  0.9517 -0.0628  1.3406
14198TIP3    H264010   2.481   4.414  16.745 -0.5560 -0.0513  1.2758
14199TIP3   OH264011   6.681   3.564   2.401  0.1570 -0.0250 -0.0565
14199TIP3    H164012   6.679   3.469   2.414 -1.3158  0.1548  1.2929
14199TIP3    H264013   6.626   3.579   2.324 -0.1647 -0.2208  0.1325
14200TIP3   OH264014   0.856   0.921  16.478  0.5578 -0.2038  0.0756
14200TIP3    H164015   0.849   0.825  16.472  1.2655 -0.2262 -0.5882
14200TIP3    H264016   0.862   0.939  16.571 -2.7162 -0.5374  0.4798
14201TIP3   OH264017   6.154   3.939   6.149  0.5862 -0.2516 -0.1239
14201TIP3    H164018   6.250   3.945   6.157  0.6118 -0.5224 -0.2013
14201TIP3    H264019   6.133   3.855   6.191  0.5191 -0.7919 -1.2006
14202TIP3   OH264020   6.167   6.466  11.406 -0.0107  0.8343  0.0628
14202TIP3    H164021   6.107   6.417  11.461 -0.5718 -2.8188 -3.3745
14202TIP3    H264022   6.111   6.513  11.344  0.6270  0.7674 -0.5801
14203TIP3   OH264023   6.071   1.202   5.374 -0.5688  0.4264 -0.3942
14203TIP3    H164024   6.007   1.273   5.378 -1.4173 -0.3465  0.1965
14203TIP3    H264025   6.024   1.126   5.409  0.7684 -0.0852  0.3479
14204TIP3   OH264026   1.718   6.728  15.988  1.0617 -0.3529 -0.0465
14204TIP3    H164027   1.805   6.741  16.026  1.1694 -0.0009 -0.4097
14204TIP3    H264028   1.677   6.663  16.045  1.6953 -0.7980 -0.0929
14205TIP3   OH264029   2.074   6.564   4.378  0.1723 -0.4973 -0.1816
14205TIP3    H164030   2.039   6.581   4.290 -3.3632 -0.0978  1.1291
14205TIP3    H264031   2.089   6.652   4.414 -0.8894 -0.5707  0.4682
14206TIP3   OH264032   1.605   2.526  13.180 -0.2032 -0.3496 -0.4903
14206TIP3    H164033   1.628   2.473  13.256 -2.1205 -1.4829 -0.6205
14206TIP3    H264034   1.572   2.608  13.217  1.3845  0.1978 -0.2319
14207TIP3   OH264035   1.499   1.922   3.052 -0.5178 -0.0066 -0.0446
14207TIP3    H164036   1.464   2.005   3.019 -1.4790 -0.1984  0.4768
14207TIP3    H264037   1.592   1.940   3.066 -0.5374  0.7176 -0.7784
14208TIP3   OH264038   5.422   0.349  14.703 -0.2872  0.2574  0.5200
14208TIP3    H164039   5.434   0.439  14.673 -0.3483  0.1212  0.0738
14208TIP3    H264040   5.328   0.332  14.690 -0.3588  0.2683  1.0002
14209TIP3   OH264041   3.478   4.421  13.394 -0.0065 -0.1605 -0.1723
14209TIP3    H164042   3.480   4.364  13.471 -3.3309  1.6522  1.5031
14209TIP3    H264043   3.392   4.405  13.355  0.0128  1.7642 -1.1441
14210TIP3   OH264044   3.887   4.207   2.842  0.0925  0.5405 -0.8713
14210TIP3    H164045   3.907   4.265   2.915 -2.1544  1.1665 -0.6950
14210TIP3    H264046   3.798   4.176   2.859  0.4377 -1.2712 -2.0791
14211TIP3   OH264047   4.181   4.141  15.611 -0.4289 -0.0011  0.0950
14211TIP3    H164048   4.225   4.081  15.551  0.9387  0.1068  0.9447
14211TIP3    H264049   4.140   4.206  15.554 -1.0124 -1.1142 -0.7945
14212TIP3   OH264050   2.665   4.036  12.420 -0.0937  0.0643  0.4824
14212TIP3    H164051   2.699   3.950  12.443 -0.0006  0.4882  2.0136
14212TIP3    H264052   2.570   4.028  12.426 -0.3411 -0.8106 -2.7042
14213TIP3   OH264053   5.446   1.362  14.670 -0.0180  0.4009 -0.0671
14213TIP3    H164054   5.473   1.450  14.644  0.6624  0.5087  0.9537
14213TIP3    H264055   5.434   1.315  14.587 -0.6838  1.5236 -0.6317
14214TIP3   OH264056   3.507   3.498   0.407  0.3285 -0.1202 -0.0342
14214TIP3    H164057   3.537   3.532   0.491 -0.3394  0.6577 -0.0994
14214TIP3    H264058   3.431   3.444   0.428  0.5937 -0.5172 -0.0719
14215TIP3   OH264059   4.067   2.212  14.939  0.0328 -0.0536  0.3333
14215TIP3    H164060   4.057   2.129  14.987 -4.6686  0.7489  1.2078
14215TIP3    H264061   4.107   2.271  15.002  1.2500 -0.9986  0.4934
14216TIP3   OH264062   6.468   0.020   4.357  1.0350 -0.1433  0.3013
14216TIP3    H164063   6.512  -0.027   4.287 -1.2070 -0.4960 -0.9498
14216TIP3    H264064   6.490   0.112   4.342 -0.4451 -0.0550 -1.7247
14217TIP3   OH264065   3.394   6.066   1.886  0.1236  0.0729 -0.1199
14217TIP3    H164066   3.474   6.020   1.913 -0.4384 -0.0511  1.4256
14217TIP3    H264067   3.351   6.005   1.826 -0.2236 -1.1641  1.2926
14218TIP3   OH264068   5.750   3.248   4.906 -0.0732  0.0021  0.0736
14218TIP3    H164069   5.703   3.182   4.957  1.1145 -0.7159  0.2692
14218TIP3    H264070   5.692   3.266   4.831 -0.7348 -0.7217  0.3962
14219TIP3   OH264071   3.272   2.012   0.913  0.1455 -0.0792 -0.1640
14219TIP3    H164072   3.264   2.001   1.008 -0.4067 -0.3595 -0.2401
14219TIP3    H264073   3.310   2.099   0.902 -1.4717  0.7307  0.2682
14220TIP3   OH264074   3.208   1.434  15.974 -0.6444  0.0157  0.7435
14220TIP3    H164075   3.165   1.514  16.005  0.4754  0.3744  1.4118
14220TIP3    H264076   3.163   1.363  16.019 -0.3188  0.4109  1.7137
14221TIP3   OH264077   1.803   1.724   1.478 -0.1418  0.2090  0.2678
14221TIP3    H164078   1.732   1.748   1.538 -1.0648 -0.1573 -0.6552
14221TIP3    H264079   1.856   1.662   1.528  0.1928  1.3440  1.3683
14222TIP3   OH264080   1.925   0.407   5.013 -0.5879  0.7364  0.0716
14222TIP3    H164081   1.912   0.335   5.075  2.6466 -0.4441 -0.4262
14222TIP3    H264082   1.896   0.485   5.060  0.0901 -0.3448  2.4211
14223TIP3   OH264083   4.503   6.394  12.888 -0.0965 -0.4529 -0.2603
14223TIP3    H164084   4.564   6.425  12.956  0.7202 -0.8033 -0.8118
14223TIP3    H264085   4.419   6.433  12.911  0.3039 -0.0759  0.6096
14224TIP3   OH264086   5.653   3.670  12.871  0.8220  0.1894 -0.2063
14224TIP3    H164087   5.718   3.693  12.938  0.3193 -0.5986  0.5722
14224TIP3    H264088   5.616   3.754  12.844  0.3665  0.4566  1.1913
14225TIP3   OH264089   3.398   4.743   2.887  0.2453  0.2230  0.2443
14225TIP3    H164090   3.419   4.696   2.806 -2.0001 -0.8780  0.2088
14225TIP3    H264091   3.392   4.835   2.861 -0.4536 -0.1173 -0.8738
14226TIP3   OH264092   1.306   3.639   5.465  0.3406  0.1717  0.4500
14226TIP3    H164093   1.293   3.556   5.419  0.4852  0.3036  0.1630
14226TIP3    H264094   1.285   3.620   5.556  3.1304 -0.9583  0.9812
14227TIP3   OH264095   3.457   3.117  16.630 -0.7777  0.5986  0.2432
14227TIP3    H164096   3.399   3.079  16.563 -1.1899  2.6204 -0.6442
14227TIP3    H264097   3.481   3.044  16.686 -1.7896 -0.8621 -1.1430
14228TIP3   OH264098   6.031   3.742   4.545 -0.0219  0.1022  0.2827
14228TIP3    H164099   6.115   3.730   4.590 -0.3107 -1.8550  0.4002
14228TIP3    H264100   5.968   3.693   4.599 -0.6382 -1.1294 -1.4392
14229TIP3   OH264101   1.950   1.369   1.021  0.3833 -0.1789  0.3325
14229TIP3    H164102   1.952   1.360   1.117  0.4700 -2.3599  0.1923
14229TIP3    H264103   1.886   1.304   0.993 -0.1189  0.8965 -1.0754
14230TIP3   OH264104   6.175   0.860   5.205 -0.4795 -0.2288 -0.3798
14230TIP3    H164105   6.211   0.825   5.123  0.3656  1.4689 -0.7740
14230TIP3    H264106   6.231   0.935   5.226 -3.8721  2.7980 -1.1592
14231TIP3   OH264107   6.038   1.219  15.592 -0.7005 -0.0903 -0.3623
14231TIP3    H164108   6.024   1.225  15.687 -1.2954 -2.8586 -0.1949
14231TIP3    H264109   5.956   1.249  15.553  0.1824  2.8937 -0.1633
14232TIP3   OH264110   3.846   4.662  15.299 -0.1979  0.2995 -0.2196
14232TIP3    H164111   3.770   4.651  15.356  0.8121  0.3172  1.1854
14232TIP3    H264112   3.864   4.574  15.266 -1.0871  0.3706 -0.9447
14233TIP3   OH264113   5.386   0.845  15.307 -0.0249 -0.4642  0.4926
14233TIP3    H164114   5.443   0.823  15.234 -0.3244  0.4153 -0.0161
14233TIP3    H264115   5.446   0.850  15.382  0.0680 -2.9113  0.6585
14234TIP3   OH264116   3.440   1.208  12.701  0.2073  0.6751 -0.0473
14234TIP3    H164117   3.385   1.257  12.763  0.6392 -0.2671  1.1282
14234TIP3    H264118   3.518   1.262  12.692  0.8474  0.0828  1.5418
14235TIP3   OH264119   1.418   2.009   4.150 -0.3370  0.3162 -0.1740
14235TIP3    H164120   1.383   2.086   4.195  0.3784 -0.1075  1.1448
14235TIP3    H264121   1.507   2.000   4.184 -0.3362 -0.9712 -0.4854
14236TIP3   OH264122   5.746   2.046  14.080 -0.2818  0.5394  1.1411
14236TIP3    H164123   5.719   2.138  14.088  0.3322  0.9436 -0.8130
14236TIP3    H264124   5.710   2.019  13.995  0.0523 -0.8486  1.4288
14237TIP3   OH264125   1.324   0.373   5.712  0.0125  0.1228 -0.6177
14237TIP3    H164126   1.233   0.391   5.686 -0.1112  0.5440  0.0892
14237TIP3    H264127   1.374   0.446   5.676  0.0354  0.0252 -0.7855
14238TIP3   OH264128   6.282   3.429  15.319 -0.1410  0.0637  0.5088
14238TIP3    H164129   6.188   3.445  15.319  0.0081  1.3458  2.9064
14238TIP3    H264130   6.304   3.412  15.411  1.9690 -0.2059  0.0129
14239TIP3   OH264131   4.183   1.577  16.879 -0.2129  0.4567 -0.6510
14239TIP3    H164132   4.251   1.605  16.940  1.2448 -0.2581 -1.8743
14239TIP3    H264133   4.135   1.657  16.858  0.1710  0.9557  0.3140
14240TIP3   OH264134   0.079   2.089  14.894  0.1943  0.1110 -0.1683
14240TIP3    H164135   0.088   2.127  14.982 -0.4764 -0.2938  0.0835
14240TIP3    H264136  -0.003   2.039  14.898 -0.1569  0.5910 -1.2165
14241TIP3   OH264137   3.505   2.448  13.884  0.4517 -0.0206 -0.2502
14241TIP3    H164138   3.432   2.419  13.938  0.1962 -0.0979 -0.6333
14241TIP3    H264139   3.486   2.540  13.865 -0.6620 -0.5789 -2.1131
14242TIP3   OH264140   3.015   4.144  16.406  0.5521 -0.3078  0.5304
14242TIP3    H164141   2.956   4.069  16.395  0.1463  0.1327 -0.3541
14242TIP3    H264142   3.066   4.122  16.484 -0.5114 -0.8764  1.0951
14243TIP3   OH264143   1.516   6.307  16.288  0.6650  0.3754 -0.5832
14243TIP3    H164144   1.538   6.241  16.354 -0.2943  1.2809  0.6947
14243TIP3    H264145   1.427   6.285  16.261  0.0675  1.5534  0.3864
14244TIP3   OH264146   2.878   3.355   1.225  0.0957  0.4689 -0.0833
14244TIP3    H164147   2.944   3.298   1.185  0.6243  1.8452 -1.2266
14244TIP3    H264148   2.914   3.443   1.217 -0.6141  0.9837  1.8458
14245TIP3   OH264149   1.258   0.968  14.301 -1.2410 -0.0582  0.9634
14245TIP3    H164150   1.265   0.890  14.246 -3.0220  0.6330 -0.3467
14245TIP3    H264151   1.346   1.007  14.298 -1.2948  0.0709 -1.6505
14246TIP3   OH264152   3.068   5.424  13.097 -0.0392  0.1546  0.0035
14246TIP3    H164153   3.146   5.450  13.147 -0.7897  0.3736  1.0813
14246TIP3    H264154   3.086   5.455  13.008  1.8220 -1.2498 -0.1779
14247TIP3   OH264155   3.321   1.188   5.038 -0.2780  0.1605 -0.7495
14247TIP3    H164156   3.358   1.117   5.090 -0.3102  1.3593  1.0019
14247TIP3    H264157   3.226   1.178   5.048 -0.2730  1.3895  0.9278
14248TIP3   OH264158   5.123   2.831   2.658  0.5163  0.5060  0.2666
14248TIP3    H164159   5.059   2.763   2.678  0.6464  0.9547  2.4410
14248TIP3    H264160   5.093   2.868   2.576 -0.7084 -0.8133  0.0689
14249TIP3   OH264161   2.568   2.300  16.822  0.2276  0.7678 -0.2585
14249TIP3    H164162   2.478   2.276  16.843 -0.7168  2.0859 -2.4216
14249TIP3    H264163   2.599   2.349  16.898 -0.2349 -1.1654  1.2332
14250TIP3   OH264164   5.449   4.246  16.013  0.6191 -0.1456  0.2395
14250TIP3    H164165   5.380   4.216  16.072  1.8676  1.5449  2.7382
14250TIP3    H264166   5.521   4.184  16.028  0.6363 -0.2448 -0.2328
14251TIP3   OH264167   3.780   5.357   5.471  0.0606 -0.6326  0.1596
14251TIP3    H164168   3.788   5.436   5.417  0.7088  0.0036  1.1559
14251TIP3    H264169   3.751   5.289   5.409 -0.9897  0.4774 -0.6195
14252TIP3   OH264170   0.024   1.548  16.394 -0.0990 -0.3042  0.4381
14252TIP3    H164171   0.010   1.496  16.474 -1.9636  0.6872  0.8110
14252TIP3    H264172  -0.061   1.548  16.350  0.8473 -0.6948 -1.5212
14253TIP3   OH264173   6.091   4.743   2.558 -0.1320 -0.1378 -0.0699
14253TIP3    H164174   6.000   4.773   2.557 -0.1000 -0.0093 -1.3205
14253TIP3    H264175   6.085   4.651   2.532  0.0134 -0.4575  0.9806
14254TIP3   OH264176   5.106   4.350   2.835 -1.1400  0.4386 -0.2982
14254TIP3    H164177   5.049   4.296   2.781 -0.8664 -0.6296  0.4339
14254TIP3    H264178   5.051   4.421   2.867 -1.7559  0.0611 -0.5195
14255TIP3   OH264179   4.434   4.093   1.784  0.9800  0.1158  0.1109
14255TIP3    H164180   4.407   4.062   1.870  0.7902  0.9938  0.3787
14255TIP3    H264181   4.507   4.153   1.802  0.8025  0.4662 -0.3198
14256TIP3   OH264182   5.423   3.105  12.142 -0.2877 -0.0138 -0.7684
14256TIP3    H164183   5.386   3.188  12.113 -2.2023 -1.1717 -1.8157
14256TIP3    H264184   5.517   3.119  12.143 -0.6051  2.5978  0.5040
14257TIP3   OH264185   4.039   2.795   3.448 -0.1190 -0.0713  0.4671
14257TIP3    H164186   3.982   2.840   3.511 -0.8059  1.0482 -0.9055
14257TIP3    H264187   4.008   2.824   3.363  0.5178 -1.8758 -0.4320
14258TIP3   OH264188   6.613   5.443  13.368 -0.1366 -0.6679 -0.0733
14258TIP3    H164189   6.585   5.387  13.295 -1.3757 -0.4557  0.2149
14258TIP3    H264190   6.682   5.393  13.411  0.7974 -0.6949 -1.5196
14259TIP3   OH264191   3.384   1.115  13.143  0.3386 -0.0777 -0.3525
14259TIP3    H164192   3.327   1.038  13.143  1.2530 -0.7777 -0.6836
14259TIP3    H264193   3.330   1.185  13.178  0.2182 -1.4398  2.4527
14260TIP3   OH264194   3.403   3.564   4.480  0.3399 -0.1653 -0.0999
14260TIP3    H164195   3.416   3.518   4.397  0.5038  0.5526 -0.4793
14260TIP3    H264196   3.468   3.527   4.539  0.5316 -0.3518 -0.4271
14261TIP3   OH264197   0.963   6.714   4.526  0.1622  0.0943  0.0898
14261TIP3    H164198   0.913   6.746   4.451 -1.2871 -0.4212  0.7823
14261TIP3    H264199   0.896   6.694   4.592  1.1490 -2.2607  0.4607
14262TIP3   OH264200   2.303   3.287  13.578  0.1654 -0.1690  0.1453
14262TIP3    H164201   2.234   3.228  13.605  0.6804 -0.9576 -0.2150
14262TIP3    H264202   2.383   3.251  13.617  0.2363  1.3969  1.5668
14263TIP3   OH264203   4.694   4.833  11.273  0.1273  0.3975 -0.3712
14263TIP3    H164204   4.760   4.871  11.215  0.6909  0.2491  0.1531
14263TIP3    H264205   4.681   4.898  11.341  0.9322 -0.2292  0.4070
14264TIP3   OH264206   4.438   5.025   5.621 -0.4243  0.6039 -0.1809
14264TIP3    H164207   4.404   5.093   5.563  0.7114  1.5967  0.2928
14264TIP3    H264208   4.498   4.974   5.567  1.4559  2.1723  0.3142
14265TIP3   OH264209   2.681   5.746   0.428 -0.0901  0.2170 -0.0745
14265TIP3    H164210   2.604   5.802   0.430 -0.9134 -0.8999  0.7124
14265TIP3    H264211   2.745   5.795   0.375 -1.7040  0.6767 -1.7166
14266TIP3   OH264212   5.675   5.532  13.464 -0.1464 -0.4695  0.4472
14266TIP3    H164213   5.626   5.590  13.405 -1.1240 -0.9449  0.7740
14266TIP3    H264214   5.761   5.523  13.423 -0.6074 -0.2958 -0.5810
14267TIP3   OH264215   3.017   4.867  17.175  0.2629  0.4221  0.2762
14267TIP3    H164216   2.986   4.823  17.254 -2.4293  1.2416 -0.2008
14267TIP3    H264217   2.962   4.945  17.169  0.2183  0.2556 -2.5226
14268TIP3   OH264218   5.451   1.175   2.720  0.1926  0.0555  0.0586
14268TIP3    H164219   5.440   1.208   2.809 -1.2957 -0.2188 -0.0069
14268TIP3    H264220   5.366   1.139   2.696  0.9596 -1.1750 -0.9553
14269TIP3   OH264221   3.532   4.834   1.158 -0.3597 -0.6167  0.2780
14269TIP3    H164222   3.605   4.783   1.122  2.0173  1.6788  1.5076
14269TIP3    H264223   3.508   4.894   1.087  0.6276  0.2345  0.6399
14270TIP3   OH264224   5.369   4.044   6.150  0.0050  0.6145 -0.3760
14270TIP3    H164225   5.457   4.020   6.178 -0.4303 -0.3800  0.1818
14270TIP3    H264226   5.328   4.081   6.228 -0.5878 -0.4212 -0.1769
14271TIP3   OH264227   4.111   0.555  11.106 -0.4191  0.0495 -0.1168
14271TIP3    H164228   4.188   0.605  11.081 -0.6118  1.2925  1.6167
14271TIP3    H264229   4.052   0.563  11.030 -0.0434  1.6353 -0.2825
14272TIP3   OH264230   6.176   3.905   1.104 -0.0338 -0.0940  0.1426
14272TIP3    H164231   6.116   3.931   1.034  0.9146  1.9379  0.0017
14272TIP3    H264232   6.120   3.866   1.171 -1.1981 -0.3049 -0.9240
14273TIP3   OH264233   4.842   3.417   0.252 -0.1807  0.0574  0.4712
14273TIP3    H164234   4.776   3.468   0.205 -2.2666 -1.2442  1.7736
14273TIP3    H264235   4.893   3.482   0.300 -1.9124  1.0615  1.0579
14274TIP3   OH264236   2.729   0.535  11.983  0.1032 -0.8067  0.2846
14274TIP3    H164237   2.778   0.569  11.909 -0.1154 -1.0500  0.0255
14274TIP3    H264238   2.794   0.492  12.038  0.1621 -1.2862 -0.1472
14275TIP3   OH264239   4.000   4.449   0.543  0.0088 -0.0690 -0.0875
14275TIP3    H164240   3.997   4.360   0.509 -1.7736  0.3720 -1.2047
14275TIP3    H264241   4.052   4.498   0.478  0.6620 -0.1979  0.3286
14276TIP3   OH264242   2.501   6.280  14.796  0.3438  0.0993 -0.0856
14276TIP3    H164243   2.568   6.253  14.858 -0.2266  0.6484  0.7842
14276TIP3    H264244   2.423   6.231  14.821  0.4678 -0.7410 -1.2597
14277TIP3   OH264245   0.243   0.013  11.473 -0.2581  0.2178  0.1883
14277TIP3    H164246   0.196  -0.023  11.399 -1.1002 -1.7151  1.5948
14277TIP3    H264247   0.200   0.097  11.491 -1.9703 -0.6603  0.2978
14278TIP3   OH264248   6.460   5.651  16.012  0.5839  0.3260 -0.1426
14278TIP3    H164249   6.398   5.697  16.068  0.6755  0.1281  0.1305
14278TIP3    H264250   6.408   5.618  15.939  0.1758 -0.6657  0.5726
14279TIP3   OH264251   5.142   0.066  12.594 -0.3246 -1.0053  0.4144
14279TIP3    H164252   5.236   0.053  12.583 -0.1330  1.4800 -1.9539
14279TIP3    H264253   5.102   0.004  12.533 -0.2167 -1.6785  1.0200
14280TIP3   OH264254   2.278   0.307  14.314  0.1103  0.1766  0.1907
14280TIP3    H164255   2.273   0.296  14.409  0.9388  0.7348  0.2988
14280TIP3    H264256   2.187   0.323  14.288 -0.1158  0.0799  0.8865
14281TIP3   OH264257   3.948   0.282  11.620 -0.4284 -0.3037 -0.1870
14281TIP3    H164258   3.894   0.244  11.551  0.2555 -2.8002  0.5469
14281TIP3    H264259   3.885   0.310  11.687 -0.9738  0.1306 -0.8710
14282TIP3   OH264260   1.585   1.795  14.158  0.3606 -0.3410  0.0669
14282TIP3    H164261   1.552   1.749  14.235  0.0844 -0.2386  0.0113
14282TIP3    H264262   1.512   1.794  14.096  0.5714 -0.3980 -0.1851
14283TIP3   OH264263   5.166   5.107   5.870 -0.1728  0.4511  0.6745
14283TIP3    H164264   5.106   5.181   5.861 -0.9847 -0.3400 -0.6359
14283TIP3    H264265   5.112   5.035   5.901  0.3104 -0.0010  0.4861
14284TIP3   OH264266   2.634   5.371   1.922  0.6123  0.4076 -0.2425
14284TIP3    H164267   2.686   5.449   1.942  0.8659  0.7814 -2.0944
14284TIP3    H264268   2.592   5.392   1.838 -1.2409 -0.5291  0.3955
14285TIP3   OH264269   0.452   6.099  14.290 -0.2133 -0.5925  0.4088
14285TIP3    H164270   0.532   6.070  14.334 -0.1720 -1.5394 -0.2686
14285TIP3    H264271   0.412   6.018  14.258 -0.4362  0.0427 -0.9595
14286TIP3   OH264272   1.294   0.240  17.158  0.6989 -0.1090  0.1608
14286TIP3    H164273   1.323   0.331  17.156 -0.2544  0.2044 -1.2064
14286TIP3    H264274   1.274   0.220  17.067 -1.2373 -0.9540  0.7264
14287TIP3   OH264275   4.943   1.195  12.585 -0.7005 -0.1345 -0.4449
14287TIP3    H164276   4.962   1.282  12.550  0.7598  0.7534  2.2173
14287TIP3    H264277   4.847   1.194  12.594 -0.7391  1.2325 -0.4674
14288TIP3   OH264278   5.511   5.876   1.555  0.6454  0.2512 -0.3686
14288TIP3    H164279   5.498   5.907   1.465  0.2497  0.2783 -0.3020
14288TIP3    H264280   5.423   5.873   1.592  0.8269  0.4111  0.0753
14289TIP3   OH264281   5.998   1.503   5.554  0.1626  0.2943  0.4344
14289TIP3    H164282   5.913   1.548   5.548  1.1714  2.5826  1.9861
14289TIP3    H264283   6.032   1.504   5.465  0.1018  2.6552  0.3768
14290TIP3   OH264284   6.293   3.647  10.755 -0.5239 -0.0824  0.5694
14290TIP3    H164285   6.239   3.627  10.831 -0.7554 -1.4305  0.0761
14290TIP3    H264286   6.290   3.743  10.748 -0.4978  0.0603  2.2327
14291TIP3   OH264287   2.204   2.995  15.953  0.8927 -0.5249 -0.0506
14291TIP3    H164288   2.116   2.960  15.969  0.0952  0.6652 -1.5046
14291TIP3    H264289   2.223   3.048  16.030 -0.7886  1.2273 -0.7395
14292TIP3   OH264290   0.326   5.091  12.154  0.4789 -0.6227 -0.3654
14292TIP3    H164291   0.267   5.074  12.227 -0.6779 -0.8771 -1.3442
14292TIP3    H264292   0.300   5.178  12.122  1.1375 -0.4089 -0.3505
14293TIP3   OH264293   1.221   6.119  17.019  0.5421  0.0983 -0.0649
14293TIP3    H164294   1.213   6.210  17.048  0.4785  0.7186 -1.8818
14293TIP3    H264295   1.221   6.124  16.924  2.2355 -1.6580 -0.2305
14294TIP3   OH264296   5.556   1.375   0.393 -0.8555 -0.2482 -0.1673
14294TIP3    H164297   5.651   1.374   0.396 -0.8782 -1.5297  1.2381
14294TIP3    H264298   5.533   1.463   0.364  0.7353  0.4247  0.5449
14295TIP3   OH264299   1.608   5.755  14.713  0.0745  0.3780 -0.0038
14295TIP3    H164300   1.621   5.665  14.742  0.6283  0.7089  0.7971
14295TIP3    H264301   1.539   5.790  14.771  0.7757  0.8616  0.5548
14296TIP3   OH264302   4.782   2.456  15.254 -0.0581  0.5586  0.1397
14296TIP3    H164303   4.808   2.366  15.276 -0.5166  0.0335 -1.3131
14296TIP3    H264304   4.858   2.492  15.208 -0.1285  0.6730  0.1124
14297TIP3   OH264305   3.328   5.234  16.002 -0.0326 -0.0506 -0.0428
14297TIP3    H164306   3.282   5.302  15.953 -0.4735  0.1366  0.6097
14297TIP3    H264307   3.338   5.271  16.090  0.4056 -0.5268  0.1112
14298TIP3   OH264308   0.152   6.009  17.199 -0.6938  0.3455 -0.5725
14298TIP3    H164309   0.196   5.925  17.207  0.6124  0.9778 -0.8590
14298TIP3    H264310   0.117   6.011  17.110 -1.1074 -0.0659 -0.4207
14299TIP3   OH264311   5.211   4.082  15.842 -0.1384  0.4283 -0.0177
14299TIP3    H164312   5.238   4.042  15.925  2.1464  0.0396 -0.8544
14299TIP3    H264313   5.236   4.174  15.851 -0.6785  0.5675  0.0431
14300TIP3   OH264314   0.004   0.073   1.341  0.4608  0.0177 -0.0495
14300TIP3    H164315  -0.015   0.039   1.253 -0.3969  2.8519 -1.0864
14300TIP3    H264316   0.098   0.090   1.341  0.5808 -0.6263 -0.1609
14301TIP3   OH264317   5.439   6.476  12.171 -0.4285  0.3413 -0.3326
14301TIP3    H164318   5.386   6.442  12.243  0.9505  1.5959  1.3719
14301TIP3    H264319   5.481   6.399  12.133  1.0036 -0.1537  2.0633
14302TIP3   OH264320   1.592   4.942  12.584 -0.0867  0.6764  0.6219
14302TIP3    H164321   1.538   4.868  12.611  1.1489 -0.4507  0.1802
14302TIP3    H264322   1.681   4.916  12.608  0.6655  1.0236 -1.5311
14303TIP3   OH264323   0.861   0.592  11.106 -0.0423  0.4586 -0.0244
14303TIP3    H164324   0.820   0.542  11.176 -0.6597  1.7199  0.5301
14303TIP3    H264325   0.823   0.557  11.025  1.5767 -1.8612  0.1211
14304TIP3   OH264326   1.158   4.711   5.831  0.5834 -0.9541 -0.8418
14304TIP3    H164327   1.125   4.717   5.741 -0.7213  0.7747 -0.3041
14304TIP3    H264328   1.209   4.791   5.843 -1.8449  0.4716  0.8714
14305TIP3   OH264329   2.628   6.335   2.023 -0.3712 -0.0563  0.3749
14305TIP3    H164330   2.563   6.355   1.956 -1.0226 -2.1414  0.3257
14305TIP3    H264331   2.685   6.269   1.983 -0.5161 -1.0327  1.7040
14306TIP3   OH264332   6.184   5.563  12.937 -0.9341 -0.2977 -0.0808
14306TIP3    H164333   6.274   5.572  12.966 -0.0807 -2.4576 -1.7503
14306TIP3    H264334   6.137   5.534  13.016 -0.3717  1.4446  0.9595
14307TIP3   OH264335   5.997   0.044  15.023 -0.3156  0.1956  0.3099
14307TIP3    H164336   6.009   0.136  15.045  2.0698 -0.4756  2.3687
14307TIP3    H264337   6.086   0.012  15.007 -1.1977 -1.5274 -1.5122
14308TIP3   OH264338   5.115   1.278  15.537  0.3674 -0.2310 -0.5890
14308TIP3    H164339   5.059   1.240  15.470 -0.9687  0.6204 -0.0013
14308TIP3    H264340   5.057   1.336  15.587  1.8960  1.1527 -0.3184
14309TIP3   OH264341   0.705   5.644  15.428 -0.7766  0.1101 -0.1475
14309TIP3    H164342   0.684   5.637  15.335  1.6726  0.5182 -0.8016
14309TIP3    H264343   0.774   5.711  15.432  0.6753 -1.3760  1.6631
14310TIP3   OH264344   1.258   2.576  11.736  0.0211 -0.7478 -0.3570
14310TIP3    H164345   1.306   2.628  11.800  1.0371 -0.9092 -0.9767
14310TIP3    H264346   1.284   2.612  11.651 -2.6430  0.6564 -0.6869
14311TIP3   OH264347   6.335   5.354   2.099 -0.0101 -0.2235  0.1143
14311TIP3    H164348   6.253   5.388   2.063  0.2303 -0.7606 -0.9764
14311TIP3    H264349   6.384   5.323   2.023 -0.3284 -3.2896  1.0396
14312TIP3   OH264350   2.569   4.668   1.498 -1.1771 -0.1633  0.1121
14312TIP3    H164351   2.629   4.737   1.526 -1.3573  0.1613 -0.2864
14312TIP3    H264352   2.564   4.609   1.573  0.9303 -1.1094 -0.4259
14313TIP3   OH264353   5.561   5.881  16.846  0.0699 -0.2386  0.1391
14313TIP3    H164354   5.486   5.852  16.898  0.4467  0.2227  0.9635
14313TIP3    H264355   5.549   5.976  16.838  0.0119 -0.3071 -0.6319
14314TIP3   OH264356   5.716   2.670   1.709  0.3311  0.0115  0.2852
14314TIP3    H164357   5.700   2.701   1.620 -0.3304  3.1717  1.3671
14314TIP3    H264358   5.773   2.593   1.699 -0.5467 -0.3477 -2.8503
14315TIP3   OH264359   0.613   4.531  15.190  0.0904  0.1359  0.0857
14315TIP3    H164360   0.679   4.570  15.133 -0.1418  1.3232  0.5905
14315TIP3    H264361   0.531   4.571  15.162 -0.2367 -0.3917  0.2798
14316TIP3   OH264362   0.490   3.673   1.183  0.4099 -0.3170  0.0987
14316TIP3    H164363   0.443   3.753   1.207 -0.6134 -0.2513 -1.8781
14316TIP3    H264364   0.424   3.604   1.186  0.8626 -0.7633  0.0463
14317TIP3   OH264365   5.900   1.476  15.289  0.3119 -0.4258 -0.1994
14317TIP3    H164366   5.931   1.544  15.349 -2.9139  0.4282  0.6827
14317TIP3    H264367   5.853   1.523  15.221 -0.7496 -1.6595 -0.3719
14318TIP3   OH264368   2.673   2.456   3.391  0.1612 -0.0028  0.0202
14318TIP3    H164369   2.738   2.408   3.442 -0.5965  1.1923  2.3048
14318TIP3    H264370   2.714   2.471   3.307  1.5742 -1.9827  0.2703
14319TIP3   OH264371   6.510   4.449   1.482 -0.1876 -0.1701 -0.5029
14319TIP3    H164372   6.601   4.435   1.453  0.1948  0.4529  0.3652
14319TIP3    H264373   6.470   4.498   1.410  0.6882  1.1573 -0.1411
14320TIP3   OH264374   5.476   1.405  15.603 -0.8540 -0.5062  0.3231
14320TIP3    H164375   5.435   1.350  15.670 -0.3732 -1.1465  0.0964
14320TIP3    H264376   5.496   1.345  15.532 -0.2748 -0.0438  0.0935
14321TIP3   OH264377   1.191   4.652  17.199  0.1380  0.8679 -1.0592
14321TIP3    H164378   1.152   4.564  17.194  1.8481  0.0819 -1.2518
14321TIP3    H264379   1.252   4.647  17.272 -2.1578  2.9882  1.2383
14322TIP3   OH264380   1.959   1.503  11.523  0.6726 -0.1271  0.2606
14322TIP3    H164381   2.024   1.523  11.590  0.3759  1.1500  0.1773
14322TIP3    H264382   1.947   1.584  11.474 -0.1758 -0.6416 -0.4385
14323TIP3   OH264383   0.962   3.696  11.129  0.4404 -0.3194  0.2755
14323TIP3    H164384   1.008   3.648  11.060  0.9854  1.6763 -0.8255
14323TIP3    H264385   0.870   3.672  11.117  0.2911  1.1378 -2.2118
14324TIP3   OH264386   6.381   3.226   2.324  0.0622 -0.1428  0.2490
14324TIP3    H164387   6.409   3.283   2.396  1.5316 -0.7543  0.1993
14324TIP3    H264388   6.306   3.178   2.358  1.5033 -1.3484  1.8530
14325TIP3   OH264389   0.762   0.982   2.352  0.3041 -0.2630 -0.7256
14325TIP3    H164390   0.784   1.003   2.261 -1.4191 -0.6367 -1.2727
14325TIP3    H264391   0.789   1.059   2.401  3.0528 -0.8025 -1.2093
14326TIP3   OH264392   4.841   0.542  14.267  0.0545  0.3288 -0.3015
14326TIP3    H164393   4.849   0.604  14.194  0.6314 -0.3292 -0.8149
14326TIP3    H264394   4.756   0.562  14.306  0.1039  1.2488 -0.6286
14327TIP3   OH264395   1.168   1.938   0.428  0.4222 -0.0559  0.2683
14327TIP3    H164396   1.209   2.021   0.451  1.8324 -0.6133 -0.1130
14327TIP3    H264397   1.185   1.881   0.503  3.1019 -1.2036 -1.0502
14328TIP3   OH264398   2.168   2.308  13.343  0.2319 -0.3573  0.0473
14328TIP3    H164399   2.244   2.317  13.400 -0.3233  0.6425  0.6579
14328TIP3    H264400   2.131   2.396  13.339 -1.0519 -0.8881 -0.0231
14329TIP3   OH264401   2.891   4.244  14.304  0.1808  0.9781 -0.3232
14329TIP3    H164402   2.872   4.178  14.237 -0.2509  0.1836  0.5505
14329TIP3    H264403   2.848   4.210  14.383  1.8486  1.1791  0.7048
14330TIP3   OH264404   2.121   2.621  11.214 -0.1727  0.0123  0.0865
14330TIP3    H164405   2.124   2.707  11.171  0.5124 -1.6182 -3.5460
14330TIP3    H264406   2.033   2.617  11.253 -0.2817  2.2515  0.2093
14331TIP3   OH264407   1.169   1.117  15.456  0.1949 -0.0316 -0.0534
14331TIP3    H164408   1.082   1.086  15.479 -0.3233  0.6141 -1.0510
14331TIP3    H264409   1.156   1.170  15.377  1.6802 -1.1530 -1.1344
14332TIP3   OH264410   2.840   5.918   3.730 -0.2703  0.5693  0.0549
14332TIP3    H164411   2.814   5.957   3.814  0.1200 -0.9450  0.9158
14332TIP3    H264412   2.791   5.836   3.726  1.0615 -0.2305 -0.3480
14333TIP3   OH264413   5.457   3.444  13.725 -0.0210 -0.5520  0.1211
14333TIP3    H164414   5.441   3.427  13.818  2.0536  0.4822  0.7321
14333TIP3    H264415   5.387   3.502  13.699 -0.4936 -0.6476  1.1193
14334TIP3   OH264416   0.729   4.584  11.785  0.0379  0.2248  0.4894
14334TIP3    H164417   0.638   4.612  11.785 -0.1256 -0.2137  2.2848
14334TIP3    H264418   0.776   4.651  11.835  0.4291 -0.3157  0.8656
14335TIP3   OH264419   6.398   0.385   5.683 -0.6026 -0.7549 -0.1456
14335TIP3    H164420   6.432   0.342   5.605  0.0573 -2.2568  0.9220
14335TIP3    H264421   6.420   0.326   5.755  0.7356  1.5659  1.4866
14336TIP3   OH264422   2.230   3.072  15.668  0.7455  0.5797 -0.1099
14336TIP3    H164423   2.286   3.050  15.743  1.5844 -1.9293 -1.3326
14336TIP3    H264424   2.261   3.157  15.639  1.3291  0.9708  1.5567
14337TIP3   OH264425   1.698   6.044  15.990 -0.0380 -0.0351 -0.1162
14337TIP3    H164426   1.647   5.965  16.006 -0.6903  0.5610  0.8380
14337TIP3    H264427   1.738   6.064  16.075 -1.9702  2.0989  0.3627
14338TIP3   OH264428   1.195   3.940  15.133 -0.1773 -0.1208 -0.3413
14338TIP3    H164429   1.239   4.024  15.119  0.4493 -0.8236 -3.1820
14338TIP3    H264430   1.104   3.957  15.112 -0.8056  0.5975  2.5459
14339TIP3   OH264431   0.280   3.214  12.630  0.0548  0.5493 -0.1216
14339TIP3    H164432   0.294   3.124  12.602  0.6903  0.6145 -0.0237
14339TIP3    H264433   0.343   3.228  12.701 -2.5813 -0.1461  2.5897
14340TIP3   OH264434   5.625   5.473   2.651 -0.1385  0.9459 -0.2433
14340TIP3    H164435   5.687   5.400   2.644 -0.2495  0.6765  1.3679
14340TIP3    H264436   5.678   5.551   2.633  0.4460  0.6336  0.0973
14341TIP3   OH264437   0.708   4.351  12.334  0.3026 -0.3559  0.3128
14341TIP3    H164438   0.802   4.346  12.350  0.2650 -0.5956  0.4675
14341TIP3    H264439   0.687   4.444  12.340  0.5738 -0.2740  0.0169
14342TIP3   OH264440   6.033   4.570   5.958 -0.0766  0.3937  0.0253
14342TIP3    H164441   6.066   4.606   6.040  2.4700 -1.9034  0.1196
14342TIP3    H264442   6.104   4.583   5.896 -1.2719  0.4609 -1.3754
14343TIP3   OH264443   0.208   5.244  16.426  0.3609  0.3209  0.0082
14343TIP3    H164444   0.187   5.181  16.358  0.1622  0.5871 -0.1778
14343TIP3    H264445   0.303   5.236  16.437  0.3913  0.2632 -0.2841
14344TIP3   OH264446   1.895   1.268  13.067 -0.2547  0.3643 -0.2062
14344TIP3    H164447   1.927   1.213  13.137  0.2072  0.9662  0.0614
14344TIP3    H264448   1.867   1.207  12.999 -1.3963 -0.2578  0.7773
14345TIP3   OH264449   0.402   4.770  12.177  0.1921  0.2459 -0.3715
14345TIP3    H164450   0.400   4.819  12.094 -2.1310  1.5891  0.3764
14345TIP3    H264451   0.439   4.832  12.240 -0.4287  0.1589  0.0860
14346TIP3   OH264452   3.525   1.454   0.275  0.2983  0.1020  1.1441
14346TIP3    H164453   3.435   1.454   0.306  0.7825  2.3055  2.7825
14346TIP3    H264454   3.538   1.542   0.239  1.8943 -0.0586  1.2678
14347TIP3   OH264455   3.398   4.428   2.024 -0.4220  0.4277 -0.1089
14347TIP3    H164456   3.386   4.498   2.089 -1.2311 -1.7228  2.2458
14347TIP3    H264457   3.493   4.423   2.013 -0.3679  3.2401 -2.0688
14348TIP3   OH264458   0.169   6.181   5.573 -0.2829 -0.1511 -0.2168
14348TIP3    H164459   0.087   6.230   5.576  0.2374  0.7328  0.4900
14348TIP3    H264460   0.144   6.093   5.546 -1.6519 -0.2633  1.2634
14349TIP3   OH264461   4.201   6.174  14.065  0.4553 -0.0747  0.6680
14349TIP3    H164462   4.291   6.166  14.031  0.3029 -0.0126  0.2376
14349TIP3    H264463   4.160   6.240  14.009 -0.5786 -1.8040 -0.7296
14350TIP3   OH264464   5.033   3.210  10.996 -0.2359  0.8431  0.0396
14350TIP3    H164465   4.961   3.246  10.944 -2.1303 -1.9725  0.4856
14350TIP3    H264466   5.104   3.273  10.986 -2.1930  2.9179 -1.8133
14351TIP3   OH264467   2.956   3.061   5.828 -0.4362 -0.2840  0.3292
14351TIP3    H164468   2.966   3.017   5.743  0.5292 -0.5821  0.5821
14351TIP3    H264469   2.969   2.992   5.892 -2.0818 -0.2401  0.7328
14352TIP3   OH264470   2.267   4.807  12.213  0.2529 -0.1413 -0.0366
14352TIP3    H164471   2.237   4.846  12.131 -2.2604 -0.9043  0.4417
14352TIP3    H264472   2.362   4.821  12.213  0.0857  1.4928 -2.1878
14353TIP3   OH264473   0.480   0.930  10.369  0.5709  0.4849  0.2151
14353TIP3    H164474   0.567   0.954  10.335  0.6250 -1.8398 -1.6006
14353TIP3    H264475   0.497   0.857  10.429 -0.0817 -0.0854 -0.2655
14354TIP3   OH264476   2.909   2.197  16.230  0.2121 -0.0450  0.1316
14354TIP3    H164477   2.860   2.274  16.258  1.5596  0.9566 -0.1390
14354TIP3    H264478   2.933   2.153  16.312  2.1639  1.6117  0.5333
14355TIP3   OH264479   6.610   3.339   0.327  0.0217  0.3585  0.3318
14355TIP3    H164480   6.584   3.424   0.292  2.1338  1.6953  1.7778
14355TIP3    H264481   6.529   3.301   0.362 -1.2138  1.0927 -1.5879
14356TIP3   OH264482   2.176   0.427  11.254  0.2499  0.1973 -0.2047
14356TIP3    H164483   2.123   0.494  11.209 -2.3388 -0.5936  1.4501
14356TIP3    H264484   2.242   0.477  11.301 -0.1703  1.4144 -0.8543
14357TIP3   OH264485   2.303   5.899   1.437 -0.2594 -0.1343 -0.1923
14357TIP3    H164486   2.219   5.930   1.404 -0.9205 -1.3018  0.3664
14357TIP3    H264487   2.311   5.940   1.524 -0.4707 -0.4107 -0.0439
14358TIP3   OH264488   3.088   1.493   1.087  0.0524 -0.5913 -0.0156
14358TIP3    H164489   3.141   1.425   1.046  0.8409  0.4674 -0.7912
14358TIP3    H264490   3.124   1.576   1.054 -1.1729  0.1991  0.5510
14359TIP3   OH264491   0.631   6.296  15.768 -0.4743 -0.0518  0.0650
14359TIP3    H164492   0.609   6.210  15.805 -0.8847  0.1056  0.1855
14359TIP3    H264493   0.648   6.278  15.675  0.2800 -0.4004  0.2603
14360TIP3   OH264494   0.493   6.373   2.393 -0.2635 -0.5877 -0.1659
14360TIP3    H164495   0.415   6.423   2.415 -0.2338 -1.4045  2.0309
14360TIP3    H264496   0.460   6.289   2.362 -0.2843  0.3402 -2.9469
14361TIP3   OH264497   6.705   4.057   4.153 -0.0962 -0.7026  0.6968
14361TIP3    H164498   6.756   4.069   4.073 -0.6088 -0.1582  0.4446
14361TIP3    H264499   6.679   4.146   4.178  0.3219 -0.8368  1.6468
14362TIP3   OH264500   4.993   3.590  16.102 -0.2306 -0.1557 -0.2577
14362TIP3    H164501   4.918   3.597  16.044 -0.5233  1.4476  0.2705
14362TIP3    H264502   4.956   3.572  16.188  0.1717 -1.9387 -0.4073
14363TIP3   OH264503   0.767   4.911   4.878 -0.3357 -0.0663 -0.3353
14363TIP3    H164504   0.846   4.940   4.922 -1.1053  1.9322 -0.1589
14363TIP3    H264505   0.794   4.835   4.827  1.2813 -0.4705  1.0474
14364TIP3   OH264506   2.007   0.999   0.447 -0.6477 -0.6733 -0.0844
14364TIP3    H164507   2.091   1.043   0.437 -0.8586 -0.2795 -0.1245
14364TIP3    H264508   1.958   1.020   0.368 -1.4250  0.5161  0.6665
14365TIP3   OH264509   3.607   1.680  15.064  0.6795 -0.1850 -0.0595
14365TIP3    H164510   3.689   1.679  15.015  0.6437  1.7442 -0.2639
14365TIP3    H264511   3.545   1.632  15.009  1.1574  0.1648 -0.9199
14366TIP3   OH264512   2.870   3.691   3.992  0.3434  0.3574  0.5924
14366TIP3    H164513   2.937   3.626   3.969  0.1848  0.3358  0.1794
14366TIP3    H264514   2.920   3.770   4.012  0.5662 -0.0289  1.5903
14367TIP3   OH264515   5.362   1.403  16.939 -0.1556  0.0702  0.3402
14367TIP3    H164516   5.453   1.395  16.910  0.2168  1.1502  1.1627
14367TIP3    H264517   5.369   1.435  17.029 -1.3108 -1.5992  1.0698
14368TIP3   OH264518   2.272   4.115   4.645  0.1458 -0.0799  0.8605
14368TIP3    H164519   2.245   4.138   4.734 -2.6282  0.6348 -0.0640
14368TIP3    H264520   2.199   4.064   4.610  1.3027 -0.6185 -0.9115
14369TIP3   OH264521   4.285   1.814   3.919 -0.5767  0.4115 -0.3359
14369TIP3    H164522   4.323   1.901   3.907 -0.3561  0.0951 -2.1651
14369TIP3    H264523   4.276   1.779   3.831 -0.2333 -1.6311  0.3877
14370TIP3   OH264524   2.963   5.732  10.741 -0.0998 -0.2779  0.0402
14370TIP3    H164525   2.912   5.660  10.777  0.5167 -1.9431 -2.2107
14370TIP3    H264526   2.969   5.713  10.647  0.8045  2.2751 -0.5081
14371TIP3   OH264527   6.658   0.042   1.058  0.0557  0.1131  0.2846
14371TIP3    H164528   6.605   0.082   1.126 -0.3396 -0.2435  0.1907
14371TIP3    H264529   6.595   0.008   0.994  0.3882  3.3188 -2.0293
14372TIP3   OH264530   1.727   6.714  10.719 -0.5423 -0.4207 -0.2561
14372TIP3    H164531   1.784   6.717  10.796 -0.2100 -1.2859 -0.4494
14372TIP3    H264532   1.786   6.731  10.645 -0.6107 -0.8399 -0.4162
14373TIP3   OH264533   3.343   1.877   2.101  0.5204  0.2130 -0.3857
14373TIP3    H164534   3.316   1.828   2.023 -1.6190  3.0081 -1.5881
14373TIP3    H264535   3.354   1.967   2.070  4.3254  0.6730  1.6819
14374TIP3   OH264536   5.385   3.249   1.362  0.8658 -0.2130  0.1358
14374TIP3    H164537   5.356   3.199   1.286  0.0689 -0.2259  0.4277
14374TIP3    H264538   5.480   3.250   1.357  0.9308 -2.0814  0.3108
14375TIP3   OH264539   3.322   4.280   4.263  0.6331  0.3748 -0.1905
14375TIP3    H164540   3.405   4.295   4.218 -0.0482  1.5429 -1.1197
14375TIP3    H264541   3.257   4.281   4.193 -0.1586 -0.7466  0.4995
14376TIP3   OH264542   1.440   2.620   5.989  0.4993 -0.3478  0.1563
14376TIP3    H164543   1.478   2.645   5.905  1.1215  0.1390  0.5797
14376TIP3    H264544   1.392   2.539   5.970  0.6815 -0.2766 -0.6510
14377TIP3   OH264545   5.341   3.923  16.979  0.4068  0.6865  0.2009
14377TIP3    H164546   5.249   3.900  16.992  0.3106  0.6932 -0.4544
14377TIP3    H264547   5.389   3.842  16.994  0.3526  0.8066  1.1074
14378TIP3   OH264548   5.892   2.077   1.776  0.1520 -0.3911  0.3003
14378TIP3    H164549   5.974   2.114   1.742 -0.2306  0.9630  0.7959
14378TIP3    H264550   5.893   2.097   1.869 -1.2190  0.5861  0.1294
14379TIP3   OH264551   0.715   0.359   3.706  0.1376 -0.3512  0.1643
14379TIP3    H164552   0.795   0.331   3.751 -0.5660 -0.4554  1.4064
14379TIP3    H264553   0.707   0.452   3.728  0.3466 -0.1443 -0.6304
14380TIP3   OH264554   0.304   5.635   1.958  0.3694 -0.5641 -0.5471
14380TIP3    H164555   0.357   5.566   1.917 -0.2254 -2.6270  1.9539
14380TIP3    H264556   0.301   5.612   2.051 -0.0479  2.7651  0.4008
14381TIP3   OH264557   4.621   4.794  13.045 -0.2523 -0.6740 -0.9106
14381TIP3    H164558   4.713   4.806  13.067 -0.6791 -0.4798  0.9210
14381TIP3    H264559   4.621   4.769  12.952  1.7447 -2.2023 -0.5596
14382TIP3   OH264560   4.471   0.911  15.954 -0.1547 -0.4501 -0.3441
14382TIP3    H164561   4.493   0.895  15.862 -0.6627 -0.3651 -0.4841
14382TIP3    H264562   4.460   1.006  15.959 -1.2782 -0.5558 -0.4684
14383TIP3   OH264563   1.857   0.437  14.801 -0.3940 -0.5684 -0.2999
14383TIP3    H164564   1.904   0.356  14.824 -0.4654 -0.9416 -1.4210
14383TIP3    H264565   1.775   0.406  14.764 -0.4088  0.0273 -0.7626
14384TIP3   OH264566   2.914   0.754  16.542 -0.6188  0.9542  0.3461
14384TIP3    H164567   2.904   0.846  16.569  3.5906  1.4572  0.8445
14384TIP3    H264568   2.953   0.759  16.455 -2.4431 -0.4755 -0.5920
14385TIP3   OH264569   1.209   5.507   5.867  0.0649  0.1792  0.0016
14385TIP3    H164570   1.277   5.457   5.823 -1.9746 -1.8916 -1.0151
14385TIP3    H264571   1.251   5.542   5.946  1.5253 -3.6266  1.1090
14386TIP3   OH264572   2.689   0.128  15.120  0.1900 -0.0684 -0.1806
14386TIP3    H164573   2.672   0.076  15.199  0.1233 -0.7588 -0.6449
14386TIP3    H264574   2.644   0.082  15.050  1.8267 -0.5393 -0.9742
14387TIP3   OH264575   5.372   6.493  14.390 -0.0181 -0.5805 -0.3681
14387TIP3    H164576   5.296   6.493  14.332 -1.8118  1.2328  1.8210
14387TIP3    H264577   5.443   6.529  14.336 -1.0695 -0.8057 -1.9839
14388TIP3   OH264578   4.207   3.152  11.962 -0.5967 -0.1936 -0.2675
14388TIP3    H164579   4.301   3.165  11.967 -0.7666  1.4555 -0.7028
14388TIP3    H264580   4.196   3.080  11.899  0.3691 -0.6798  0.1040
14389TIP3   OH264581   6.177   4.415   0.975 -0.0168 -0.3784 -0.3382
14389TIP3    H164582   6.139   4.339   0.930  0.8438 -1.8630  1.3148
14389TIP3    H264583   6.234   4.377   1.042  0.4687  1.7491  0.5302
14390TIP3   OH264584   4.905   0.365   5.326  0.1213  0.2091  0.0854
14390TIP3    H164585   4.868   0.289   5.280 -0.0120 -0.4756  1.2650
14390TIP3    H264586   4.840   0.385   5.393  0.6480  0.7185  0.4450
14391TIP3   OH264587   4.611   2.785   0.712  0.1643 -0.7420  0.2172
14391TIP3    H164588   4.659   2.831   0.781  0.4704  0.2907 -0.6643
14391TIP3    H264589   4.554   2.724   0.760 -0.9565  1.2024  1.4970
14392TIP3   OH264590   2.150   3.408  14.602  0.0527  0.0553 -0.1805
14392TIP3    H164591   2.161   3.395  14.696 -0.2168  0.1343 -0.1367
14392TIP3    H264592   2.176   3.499  14.587 -1.4833  0.5631  0.0870
14393TIP3   OH264593   5.509   3.962   4.072  0.0649 -0.3405  0.0873
14393TIP3    H164594   5.546   4.015   4.143 -2.2167  0.2050  0.9545
14393TIP3    H264595   5.480   3.882   4.116 -3.2568  0.8247  0.3234
14394TIP3   OH264596   1.101   3.619  15.918 -0.5667 -0.7723 -0.2574
14394TIP3    H164597   1.030   3.605  15.855  0.1274  0.5297 -1.3747
14394TIP3    H264598   1.133   3.707  15.899  1.6491 -1.5013 -0.0893
14395TIP3   OH264599   1.791   3.399  11.930  0.1844 -0.6153  0.4468
14395TIP3    H164600   1.844   3.322  11.909  1.4779  0.5604 -0.8611
14395TIP3    H264601   1.743   3.418  11.849 -0.4897 -0.3327  0.9064
14396TIP3   OH264602   3.801   6.041   1.712  0.0602  0.2786 -0.9155
14396TIP3    H164603   3.820   6.121   1.762 -0.7237 -1.0912  1.7879
14396TIP3    H264604   3.885   5.995   1.707  0.0344  0.1597 -0.3142
14397TIP3   OH264605   5.105   6.380  11.239  0.3876 -0.2229  0.4569
14397TIP3    H164606   5.160   6.352  11.312 -0.9279 -1.6970  0.9298
14397TIP3    H264607   5.105   6.306  11.178  1.1700  0.8406 -0.9009
14398TIP3   OH264608   3.550   2.504  13.111 -0.0140  0.5940 -0.0231
14398TIP3    H164609   3.601   2.584  13.121  0.4550  0.4801 -1.3004
14398TIP3    H264610   3.521   2.505  13.019 -0.7295 -0.2753  0.1739
14399TIP3   OH264611   1.863   2.631  11.301  0.0107  0.2168  0.7289
14399TIP3    H164612   1.817   2.671  11.375 -0.9935  1.1453 -0.3789
14399TIP3    H264613   1.803   2.640  11.227  1.4468  0.3032 -0.4700
14400TIP3   OH264614   0.002   5.414   3.751 -0.0872  0.0381  0.1161
14400TIP3    H164615  -0.023   5.375   3.667 -2.3334 -1.3149  1.3170
14400TIP3    H264616  -0.041   5.500   3.752 -0.1013  0.0331 -0.0843
14401TIP3   OH264617   5.088   4.987  12.426  0.7062  0.2786  0.2461
14401TIP3    H164618   5.149   5.049  12.386 -1.8066  2.6566 -0.1961
14401TIP3    H264619   5.144   4.923  12.470  3.4937  1.4019 -1.3946
14402TIP3   OH264620   1.325   6.334  14.260  0.2181  0.3701 -0.2093
14402TIP3    H164621   1.256   6.313  14.196 -1.1932  1.0895  1.0051
14402TIP3    H264622   1.283   6.320  14.345  2.0850 -0.6641  0.5918
14403TIP3   OH264623   1.543   5.870   3.401  0.3060 -0.1679 -0.0835
14403TIP3    H164624   1.627   5.825   3.407  1.3230  1.7376  4.9175
14403TIP3    H264625   1.491   5.835   3.473 -1.6310  1.4971 -0.5624
14404TIP3   OH264626   2.048   5.301   1.296  0.2179 -0.6164 -0.9523
14404TIP3    H164627   2.105   5.227   1.274 -0.0181 -1.3990  0.8199
14404TIP3    H264628   2.030   5.289   1.390 -2.9361 -0.4785 -1.4303
14405TIP3   OH264629   5.181   1.008   2.060 -0.5815  0.5287  0.0780
14405TIP3    H164630   5.241   1.021   2.133 -1.0440  1.2982  0.3320
14405TIP3    H264631   5.102   1.056   2.084 -2.6613 -3.0960  1.2953
14406TIP3   OH264632   5.759   4.347  12.076  0.3671 -0.1493 -0.2674
14406TIP3    H164633   5.797   4.259  12.077  2.3807  0.6125  2.5455
14406TIP3    H264634   5.749   4.368  11.983  1.6219 -2.5942 -1.0455
14407TIP3   OH264635   2.991   3.554  13.924 -0.3477  0.1603  0.2865
14407TIP3    H164636   2.905   3.558  13.966 -0.7931  0.7580 -0.6410
14407TIP3    H264637   2.990   3.627  13.862  0.2811 -0.7014 -0.7664
14408TIP3   OH264638   2.543   5.093   2.561  0.3949 -0.0108 -0.1971
14408TIP3    H164639   2.579   5.114   2.647  0.5230 -0.7067 -0.0796
14408TIP3    H264640   2.596   5.145   2.500 -1.0022  2.0755  0.2693
14409TIP3   OH264641   4.222   2.617  10.867 -0.3353  0.3419 -0.4575
14409TIP3    H164642   4.208   2.703  10.907  1.1498  0.2743  0.2819
14409TIP3    H264643   4.174   2.622  10.784  0.0735  2.0486 -0.6432
14410TIP3   OH264644   4.110   0.627  16.426 -0.1284 -0.2348  0.0094
14410TIP3    H164645   4.202   0.603  16.433  0.4458  1.3137 -1.5206
14410TIP3    H264646   4.092   0.626  16.332 -1.7244 -0.5823  0.2769
14411TIP3   OH264647   6.134   2.511  12.804 -0.4126  0.1736  0.8035
14411TIP3    H164648   6.051   2.475  12.835  0.7564 -2.4985  1.0209
14411TIP3    H264649   6.132   2.602  12.834 -2.3875 -0.3608  2.5778
14412TIP3   OH264650   2.630   5.538   0.776  0.3900 -0.1315  0.3310
14412TIP3    H164651   2.656   5.630   0.776 -0.2307  0.0671  1.6514
14412TIP3    H264652   2.679   5.499   0.704  0.6702  1.2269 -0.2315
14413TIP3   OH264653   1.483   3.575   4.316 -0.4189 -0.0937 -0.0362
14413TIP3    H164654   1.452   3.587   4.405 -1.6452 -0.5728 -0.3741
14413TIP3    H264655   1.457   3.655   4.270  0.1014  0.0996 -0.0021
14414TIP3   OH264656   4.764   3.817  11.180  0.3407  0.2676 -0.4131
14414TIP3    H164657   4.811   3.753  11.233  2.6137  0.8248 -1.5835
14414TIP3    H264658   4.715   3.766  11.116  0.9448 -0.3503 -0.3925
14415TIP3   OH264659   6.106   0.006   5.812  0.3316 -0.1036 -0.0267
14415TIP3    H164660   6.192   0.023   5.851 -0.2907  0.0922  1.3167
14415TIP3    H264661   6.057  -0.039   5.881 -0.4719 -0.7133 -0.9675
14416TIP3   OH264662   5.773   2.877   1.932 -0.3505 -0.0399  0.1504
14416TIP3    H164663   5.712   2.820   1.885 -0.0323 -0.1840 -0.0955
14416TIP3    H264664   5.729   2.897   2.014 -0.9396  0.2571 -0.2287
14417TIP3   OH264665   3.359   0.283  16.797 -0.2663  0.0093  0.2274
14417TIP3    H164666   3.446   0.253  16.824 -0.3848 -0.4427  0.1010
14417TIP3    H264667   3.336   0.229  16.723 -1.2341 -0.8065  1.0941
14418TIP3   OH264668   0.987   1.642   5.957  0.2809  0.1649  0.1870
14418TIP3    H164669   1.007   1.557   5.995 -1.3874 -0.0192  0.7353
14418TIP3    H264670   1.034   1.705   6.012  1.1544 -0.3597  0.0543
14419TIP3   OH264671   3.933   4.522  14.456 -0.6806 -0.6482  0.3083
14419TIP3    H164672   3.984   4.480  14.386 -0.4179  0.3560 -0.1212
14419TIP3    H264673   3.877   4.452  14.490 -1.7845 -0.8797 -1.8118
14420TIP3   OH264674   0.972   5.878   2.879 -0.0303 -0.5047  0.2987
14420TIP3    H164675   0.947   5.856   2.969 -0.9153 -2.2130 -0.3062
14420TIP3    H264676   0.891   5.869   2.829  0.4930  0.2006 -0.7114
14421TIP3   OH264677   2.564   1.466   1.322  0.3157 -0.7523  0.1329
14421TIP3    H164678   2.568   1.508   1.408  0.8862 -0.1426 -0.1812
14421TIP3    H264679   2.647   1.488   1.281 -1.3077  2.1450 -2.0149
14422TIP3   OH264680   2.732   4.362  12.946 -0.1202  0.5031 -0.0669
14422TIP3    H164681   2.757   4.272  12.965  1.9433  0.6047 -1.8748
14422TIP3    H264682   2.757   4.412  13.023  0.5197 -0.2052  0.1906
14423TIP3   OH264683   2.905   6.708  14.483  0.3963 -0.2873 -0.3654
14423TIP3    H164684   2.928   6.630  14.533 -0.0647  1.2796  2.5112
14423TIP3    H264685   2.812   6.697  14.463  0.9149 -1.5925 -2.2871
14424TIP3   OH264686   3.325   3.048  17.187  0.1409  0.3293  0.0728
14424TIP3    H164687   3.388   3.020  17.254 -1.0184  0.7326  1.3772
14424TIP3    H264688   3.378   3.094  17.122  1.6713 -2.2763 -0.6520
14425TIP3   OH264689   0.283   4.902   6.010  0.0122  0.2442 -0.5088
14425TIP3    H164690   0.211   4.897   6.073 -0.1633 -0.8792 -0.7760
14425TIP3    H264691   0.271   4.987   5.967  0.2964  1.1490  1.1411
14426TIP3   OH264692   1.335   3.935  16.052 -0.0672 -0.4923  0.1356
14426TIP3    H164693   1.375   4.021  16.050  0.7862 -0.8754 -1.6599
14426TIP3    H264694   1.304   3.921  15.962 -2.4726 -1.0503  0.9512
14427TIP3   OH264695   3.340   6.193  14.188  0.5591  0.1249  0.3510
14427TIP3    H164696   3.331   6.111  14.140  2.7033  0.0985 -0.1196
14427TIP3    H264697   3.287   6.256  14.138  0.5829 -0.5062 -0.4913
14428TIP3   OH264698   3.003   6.109  15.590 -0.2527  0.0770  0.2886
14428TIP3    H164699   3.090   6.117  15.549 -0.5352  2.9657  0.0367
14428TIP3    H264700   2.942   6.140  15.523 -1.3705 -0.7373  0.8987
14429TIP3   OH264701   3.691   4.977  12.626 -0.4919 -0.5707 -0.2643
14429TIP3    H164702   3.702   4.889  12.589  0.7390 -0.6380  0.2097
14429TIP3    H264703   3.640   5.024  12.560  0.9155 -0.9390 -1.6796
14430TIP3   OH264704   6.765   1.690   2.102  0.0240  0.0527  0.0493
14430TIP3    H164705   6.795   1.665   2.014 -1.1645  0.7417 -0.5796
14430TIP3    H264706   6.797   1.621   2.159  1.2890 -0.1253 -0.8457
14431TIP3   OH264707   0.684   2.010  14.761  0.1311 -0.2711 -0.4408
14431TIP3    H164708   0.661   2.064  14.685  0.6246  0.7080  0.0915
14431TIP3    H264709   0.771   1.976  14.741  1.4627  2.1266  0.7563
14432TIP3   OH264710   0.149   5.665  13.113  0.3511  0.1184 -0.4368
14432TIP3    H164711   0.055   5.653  13.126 -0.2963  1.8023 -2.8335
14432TIP3    H264712   0.178   5.583  13.073 -0.4168  0.0869 -0.9694
14433TIP3   OH264713   0.932   0.187   1.171  0.5977  0.1819 -0.0793
14433TIP3    H164714   0.927   0.190   1.266 -1.5637  0.4742 -0.1486
14433TIP3    H264715   0.877   0.113   1.146  1.4548 -0.1364 -1.0967
14434TIP3   OH264716   1.997   0.976   5.149 -0.2890  0.4696  0.1263
14434TIP3    H164717   1.962   0.974   5.060 -0.1880 -0.9491  0.0873
14434TIP3    H264718   2.087   0.944   5.140 -0.2035  0.5366  0.7030
14435TIP3   OH264719   4.890   2.944  11.616  1.3072  0.9613  0.3596
14435TIP3    H164720   4.951   2.926  11.688  0.2207 -1.2139  0.8267
14435TIP3    H264721   4.830   2.869  11.617 -0.0420  1.9567 -1.4664
14436TIP3   OH264722   5.605   0.169  14.227 -0.2335  0.5056  0.3991
14436TIP3    H164723   5.585   0.204  14.314  0.9924 -1.0529  1.3662
14436TIP3    H264724   5.523   0.129  14.198 -0.5966  0.8532  0.9151
14437TIP3   OH264725   3.627   1.145  12.987  0.4592 -0.1464  0.4756
14437TIP3    H164726   3.539   1.143  13.026 -0.0537  0.3655 -0.6150
14437TIP3    H264727   3.676   1.204  13.044 -0.7522  1.9376 -0.5393
14438TIP3   OH264728   0.130   2.080  13.743 -0.2138  0.3323 -0.0224
14438TIP3    H164729   0.122   2.175  13.746 -2.3267  0.1854  2.1353
14438TIP3    H264730   0.102   2.057  13.654  1.6525  1.7421 -1.0409
14439TIP3   OH264731   4.562   3.704   2.451  0.2974  0.0948  0.1988
14439TIP3    H164732   4.604   3.637   2.506 -1.0512  0.4650  1.7734
14439TIP3    H264733   4.507   3.654   2.391  0.4080 -0.2698  0.3944
14440TIP3   OH264734   6.163   4.935  13.768  0.3985  0.0064  0.4148
14440TIP3    H164735   6.078   4.921  13.810  0.3105  0.8687  0.5468
14440TIP3    H264736   6.156   5.023  13.730  0.5500 -0.6826 -1.2412
14441TIP3   OH264737   0.980   0.548  12.163 -0.0879  0.1061  0.6718
14441TIP3    H164738   0.962   0.521  12.073  2.5636 -0.1995  0.1672
14441TIP3    H264739   1.026   0.631  12.154  0.2871  0.0239  1.7463
14442TIP3   OH264740   3.907   4.576   2.426 -0.1945 -0.5281  0.3960
14442TIP3    H164741   3.869   4.554   2.341 -2.4588 -1.6724  1.6166
14442TIP3    H264742   3.888   4.500   2.481  0.4752  0.5183  2.1411
14443TIP3   OH264743   5.024   5.071   3.737 -0.2698 -0.3941  0.4293
14443TIP3    H164744   5.079   4.996   3.761  1.4556  0.4592 -0.6671
14443TIP3    H264745   4.962   5.036   3.673  0.0396 -1.0428  0.4806
14444TIP3   OH264746   3.632   5.043  15.825 -0.1042  0.1027  0.3226
14444TIP3    H164747   3.620   5.080  15.912 -2.0128  1.4405 -0.4383
14444TIP3    H264748   3.593   5.108  15.765 -0.5796 -1.6203 -1.3568
14445TIP3   OH264749   1.111   0.611   4.762 -0.1428 -0.1334  0.2258
14445TIP3    H164750   1.033   0.664   4.749 -0.5614 -1.1116 -1.6388
14445TIP3    H264751   1.137   0.584   4.674  0.5748 -2.2370  1.0022
14446TIP3   OH264752   5.740   1.304  10.833 -0.3633  0.5019 -0.0198
14446TIP3    H164753   5.829   1.341  10.834 -1.3183  2.9742  0.1808
14446TIP3    H264754   5.707   1.319  10.922 -1.6008  1.2422 -0.5845
14447TIP3   OH264755   3.102   6.529   5.414  0.0601  0.1528 -0.2208
14447TIP3    H164756   3.135   6.552   5.501  1.0240  1.7775 -0.9692
14447TIP3    H264757   3.180   6.498   5.367  0.0300  1.4779 -1.1900
14448TIP3   OH264758   0.070   0.790  17.086  0.4412  0.0595  0.1881
14448TIP3    H164759  -0.013   0.747  17.066 -0.6463  2.0430  0.1769
14448TIP3    H264760   0.059   0.822  17.176  1.5585 -0.4465  0.5209
14449TIP3   OH264761   2.598   3.073   5.659 -0.2888  0.1831 -0.0377
14449TIP3    H164762   2.671   3.064   5.597 -0.7589 -0.4315 -0.5251
14449TIP3    H264763   2.588   2.986   5.696  0.4066  0.7002  1.4118
14450TIP3   OH264764   4.009   3.307  13.714  0.0892 -0.7613  0.2554
14450TIP3    H164765   3.922   3.283  13.745 -0.8652  0.1746 -1.5220
14450TIP3    H264766   4.006   3.402  13.705  1.6140 -0.6007  0.9678
14451TIP3   OH264767   6.034   6.004   3.209 -0.2887 -0.1699  0.1953
14451TIP3    H164768   5.975   6.063   3.255 -0.2940 -0.7874  1.0071
14451TIP3    H264769   6.115   6.054   3.198 -0.5248  0.2246  0.2429
14452TIP3   OH264770   1.536   4.304  14.334  0.1404  0.5749 -0.9531
14452TIP3    H164771   1.454   4.341  14.366  0.8677  1.9784 -0.6370
14452TIP3    H264772   1.526   4.209  14.346 -1.1841  0.7750 -0.3512
14453TIP3   OH264773   5.235   5.560   0.211  0.0407 -0.3077 -0.5289
14453TIP3    H164774   5.262   5.473   0.180  0.0883 -0.2655 -0.6086
14453TIP3    H264775   5.155   5.544   0.260  2.3477 -1.0613  3.3953
14454TIP3   OH264776   5.530   0.020   0.252 -0.0627 -0.2929  0.5322
14454TIP3    H164777   5.537  -0.073   0.270 -0.2823 -0.2740  0.7272
14454TIP3    H264778   5.518   0.060   0.339  0.7565 -0.0128  0.5316
14455TIP3   OH264779   4.990   2.652   4.821  0.3198  0.1272 -0.0631
14455TIP3    H164780   4.944   2.569   4.836  1.7244 -0.6650  0.0298
14455TIP3    H264781   4.938   2.695   4.753  0.8797 -1.9789 -1.9738
14456TIP3   OH264782   0.151   4.240  13.889 -0.2467 -0.0458  0.4295
14456TIP3    H164783   0.203   4.252  13.968 -1.1221  0.5102  0.9426
14456TIP3    H264784   0.210   4.197  13.827  1.1723  1.5608  0.5967
14457TIP3   OH264785   1.237   0.445  12.237 -0.2992  0.2681 -0.7781
14457TIP3    H164786   1.161   0.504  12.236 -0.5444 -0.0235  0.0081
14457TIP3    H264787   1.308   0.497  12.272 -0.0939  0.5823 -1.6407
14458TIP3   OH264788   2.072   3.233   1.549  0.0406  0.2246  0.1583
14458TIP3    H164789   2.072   3.327   1.530  0.0796  0.3170  0.5881
14458TIP3    H264790   2.072   3.191   1.464 -0.8232  0.6168 -0.0501
14459TIP3   OH264791   4.710   2.583   1.935 -0.3566 -0.0592 -0.2520
14459TIP3    H164792   4.775   2.514   1.951 -0.7035 -0.2198  0.5066
14459TIP3    H264793   4.741   2.658   1.985  1.3424  1.2156 -2.9845
14460TIP3   OH264794   3.159   2.114   0.094  0.1216  0.0318 -0.1129
14460TIP3    H164795   3.155   2.182   0.026  1.1157 -0.8241 -1.0685
14460TIP3    H264796   3.068   2.097   0.115 -0.2778 -0.3953 -1.9911
14461TIP3   OH264797   1.395   4.911  14.883 -0.4933  0.0960  0.2114
14461TIP3    H164798   1.317   4.953  14.846 -0.1551  2.4999  1.9370
14461TIP3    H264799   1.361   4.856  14.953 -0.6895  1.4393  1.2179
14462TIP3   OH264800   1.133   2.041   4.695 -0.3396  0.0409 -0.1691
14462TIP3    H164801   1.075   2.010   4.764  1.3794 -0.9976  0.9045
14462TIP3    H264802   1.221   2.032   4.733  0.5686  0.7158 -2.0194
14463TIP3   OH264803   6.488   3.768  14.040 -0.4790  0.4294  0.5999
14463TIP3    H164804   6.506   3.730  14.126  0.9169  2.3687  1.2252
14463TIP3    H264805   6.555   3.731  13.983 -0.4013  0.3909  0.7172
14464TIP3   OH264806   2.778   6.213  11.032  0.4917  0.3772  0.4069
14464TIP3    H164807   2.722   6.263  10.972 -1.9087 -1.3930  1.0241
14464TIP3    H264808   2.786   6.269  11.110 -0.5510  0.5971  0.3625
14465TIP3   OH264809   3.855   1.420  16.824  0.3509 -0.2292  0.6093
14465TIP3    H164810   3.867   1.337  16.777  0.1099  0.1630 -0.1661
14465TIP3    H264811   3.871   1.487  16.757  0.3500  0.3471  1.1812
14466TIP3   OH264812   1.616   1.452   5.048 -0.3212 -0.3285  0.0433
14466TIP3    H164813   1.540   1.395   5.063 -1.2026  0.7429 -0.2383
14466TIP3    H264814   1.628   1.452   4.953  0.0075 -0.4592  0.0845
14467TIP3   OH264815   2.723   0.822   1.397 -1.2463 -0.6039  0.2895
14467TIP3    H164816   2.775   0.875   1.338 -0.9207 -2.0244 -0.7461
14467TIP3    H264817   2.747   0.732   1.377 -1.5394 -1.1648  2.2127
14468TIP3   OH264818   5.812   0.259  15.787 -0.0913 -0.0474 -0.3462
14468TIP3    H164819   5.717   0.268  15.778  0.2328  1.8646 -2.9626
14468TIP3    H264820   5.829   0.166  15.772 -1.5637 -0.5673  0.9262
14469TIP3   OH264821   0.621   5.786  15.044 -0.0703  0.1087  0.7424
14469TIP3    H164822   0.536   5.828  15.035  0.7743  2.5126  2.7840
14469TIP3    H264823   0.601   5.696  15.071 -1.9157  0.1161 -0.4308
14470TIP3   OH264824   6.228   2.024  11.856 -0.0686  0.4045  0.1305
14470TIP3    H164825   6.227   2.077  11.936 -1.6540 -1.9104  1.7715
14470TIP3    H264826   6.297   1.960  11.870 -1.4708 -1.0903  0.4703
14471TIP3   OH264827   1.440   2.421  12.388 -0.2362  0.2313  0.3288
14471TIP3    H164828   1.499   2.372  12.446 -0.3659 -0.4361 -0.0944
14471TIP3    H264829   1.485   2.422  12.303  0.7679  2.6619  0.7849
14472TIP3   OH264830   5.882   3.476  14.785 -0.3366 -0.7044  0.0700
14472TIP3    H164831   5.798   3.453  14.745 -0.8060 -0.1388  0.7103
14472TIP3    H264832   5.941   3.405  14.759 -1.2909 -1.6871  0.5193
14473TIP3   OH264833   3.049   0.910   5.355 -0.0006 -0.4805 -0.2025
14473TIP3    H164834   3.005   0.899   5.271  0.6117 -1.6741 -0.3847
14473TIP3    H264835   2.979   0.931   5.416 -0.3134  1.6794 -1.2007
14474TIP3   OH264836   2.755   1.392  11.883  0.5973 -0.1263 -0.2829
14474TIP3    H164837   2.848   1.374  11.868  0.1035 -1.1467 -2.6232
14474TIP3    H264838   2.720   1.309  11.915  0.3963  0.1488  0.2273
14475TIP3   OH264839   2.900   6.431  12.452  0.1519  0.3510 -0.0172
14475TIP3    H164840   2.920   6.521  12.428  0.7127  0.6541  1.4769
14475TIP3    H264841   2.834   6.438  12.521 -2.1102 -0.5181 -1.9932
14476TIP3   OH264842   1.238   0.730  14.160  0.3589 -0.4087  0.1389
14476TIP3    H164843   1.200   0.642  14.157 -1.1686  0.2054  0.4981
14476TIP3    H264844   1.299   0.733  14.086  0.3104 -1.7022  0.0274
14477TIP3   OH264845   6.529   0.578  16.672  0.0971  0.0177 -0.1322
14477TIP3    H164846   6.457   0.532  16.715 -0.1084 -0.5615 -1.0557
14477TIP3    H264847   6.569   0.512  16.615  1.7767  0.1545  0.8405
14478TIP3   OH264848   0.689   1.879  12.320 -0.0693  0.1565 -0.4502
14478TIP3    H164849   0.684   1.864  12.226  1.4786  0.7120 -0.6441
14478TIP3    H264850   0.717   1.970  12.329 -0.6845  0.2679  0.5645
14479TIP3   OH264851   6.678   4.818   5.320  0.5454 -0.5502 -0.1319
14479TIP3    H164852   6.773   4.827   5.331  0.2026  1.1363  2.0446
14479TIP3    H264853   6.659   4.864   5.238  1.5408 -0.6619 -0.4461
14480TIP3   OH264854   6.647   4.920   4.502  0.0817 -0.2636 -0.1616
14480TIP3    H164855   6.711   4.980   4.539  0.0754 -0.5227  0.2766
14480TIP3    H264856   6.668   4.835   4.541  1.4062 -1.0195 -2.3413
14481TIP3   OH264857   1.094   6.608  12.875 -0.3923  0.4882 -0.2209
14481TIP3    H164858   1.094   6.528  12.821 -1.4460  1.7671 -2.2303
14481TIP3    H264859   1.024   6.662  12.838  0.5170  2.5048  0.8483
14482TIP3   OH264860   0.040   4.406   6.222 -0.2576  0.4781  0.2352
14482TIP3    H164861   0.131   4.403   6.251 -0.7439 -2.0926  1.8713
14482TIP3    H264862  -0.008   4.438   6.299 -0.8465  0.8259 -0.2691
14483TIP3   OH264863   0.912   2.468   0.329  0.2668  0.6003  0.2030
14483TIP3    H164864   0.882   2.542   0.276 -1.1731 -0.6329 -0.7832
14483TIP3    H264865   0.831   2.423   0.355  1.1191 -2.7976 -2.4212
14484TIP3   OH264866   4.705   5.308   0.306  0.0080 -0.2620 -0.1451
14484TIP3    H164867   4.747   5.369   0.246  0.0366 -0.3440 -0.2078
14484TIP3    H264868   4.616   5.341   0.314 -0.3594 -0.9561 -1.2015
14485TIP3   OH264869   4.152   2.592  13.742 -0.1720  0.1029  0.6170
14485TIP3    H164870   4.175   2.526  13.676 -1.0766 -1.5013  1.8400
14485TIP3    H264871   4.223   2.587  13.806  1.2950  2.4451 -0.6973
14486TIP3   OH264872   2.078   0.514  16.852  0.4195 -0.1794  0.3449
14486TIP3    H164873   2.129   0.592  16.830  0.6712  0.4202  2.7504
14486TIP3    H264874   1.996   0.524  16.803  0.6440  1.3661  0.2447
14487TIP3   OH264875   0.925   6.122   6.530 -0.2005  0.2906  0.0514
14487TIP3    H164876   0.879   6.190   6.481 -0.1511  1.1368  1.1534
14487TIP3    H264877   1.007   6.163   6.557 -0.8643  0.3611  2.1042
14488TIP3   OH264878   2.681   3.461  12.125  0.2139 -0.5046 -0.2173
14488TIP3    H164879   2.652   3.445  12.215 -0.7617 -0.4415 -0.5056
14488TIP3    H264880   2.663   3.379  12.079  0.5681 -0.4861 -0.3913
14489TIP3   OH264881   0.805   3.468  11.994  0.5436  0.5104  0.1967
14489TIP3    H164882   0.720   3.511  12.004  0.2704  0.1927 -0.6767
14489TIP3    H264883   0.787   3.375  12.008  0.6167  0.3646 -0.6334
14490TIP3   OH264884   0.069   0.665  16.465 -0.7256 -0.2043 -0.2413
14490TIP3    H164885   0.066   0.759  16.445 -1.2522  0.1382  1.3065
14490TIP3    H264886   0.160   0.649  16.489 -0.8947  0.1991  0.7060
14491TIP3   OH264887   4.806   4.620   1.040 -0.7983  0.0397  0.2552
14491TIP3    H164888   4.831   4.594   0.952 -1.3014 -2.6261  0.8095
14491TIP3    H264889   4.883   4.665   1.075  0.6429 -1.7986 -0.4173
14492TIP3   OH264890   2.277   2.822  12.819  0.1472 -0.0323 -0.0155
14492TIP3    H164891   2.361   2.791  12.854  0.1386 -0.0975 -0.0520
14492TIP3    H264892   2.246   2.886  12.883  0.5559  0.5031 -0.3496
14493TIP3   OH264893   6.358   6.502  16.694  0.3278  0.3682 -0.4149
14493TIP3    H164894   6.322   6.527  16.779  0.5272 -2.1692  0.5164
14493TIP3    H264895   6.282   6.476  16.642  0.3640 -0.0169 -0.2803
14494TIP3   OH264896   5.425   5.812  11.871  0.0550  0.2514  0.0806
14494TIP3    H164897   5.340   5.842  11.904 -0.3874 -1.0521  0.2022
14494TIP3    H264898   5.468   5.773  11.948  0.8272  1.0142  0.0496
14495TIP3   OH264899   4.239   2.245   0.703 -0.2864 -0.0336 -0.5519
14495TIP3    H164900   4.247   2.182   0.631  0.5779 -0.2828 -0.2529
14495TIP3    H264901   4.237   2.331   0.660  2.5876 -0.0063 -0.8228
14496TIP3   OH264902   0.739   3.450  15.960  0.1794  0.1045  0.0770
14496TIP3    H164903   0.792   3.511  16.011 -0.5337  0.0644  0.8956
14496TIP3    H264904   0.781   3.365  15.973 -0.4587 -0.0490  1.3081
14497TIP3   OH264905   6.095   4.445   5.641  0.1175  0.1942 -0.0379
14497TIP3    H164906   6.142   4.521   5.675  0.1300 -0.5384  1.6752
14497TIP3    H264907   6.162   4.390   5.602  0.2483  0.5903 -0.3734
14498TIP3   OH264908   0.514   1.591  13.740  0.2176  0.0581  0.1265
14498TIP3    H164909   0.422   1.573  13.721  0.2814 -0.6258  0.4460
14498TIP3    H264910   0.516   1.607  13.834  0.2957  0.9450 -0.0155
14499TIP3   OH264911   1.298   6.644   0.177 -0.3139  0.1692 -0.2802
14499TIP3    H164912   1.346   6.579   0.127 -2.5040 -2.1675  0.4255
14499TIP3    H264913   1.311   6.620   0.268 -2.1972 -0.1743 -0.0479
14500TIP3   OH264914   2.451   3.928   3.384  0.3227  0.4976 -0.1749
14500TIP3    H164915   2.419   4.012   3.417  0.5457  1.1814 -1.6531
14500TIP3    H264916   2.525   3.907   3.441 -0.7698  0.4401  1.2790
14501TIP3   OH264917   1.728   3.348   1.269  0.1724  1.2653 -0.3986
14501TIP3    H164918   1.751   3.297   1.347  2.4325 -0.7246 -2.1791
14501TIP3    H264919   1.653   3.302   1.232  1.3646 -0.0501 -1.2739
14502TIP3   OH264920   2.194   0.613  13.903 -0.0624  0.0636 -0.3029
14502TIP3    H164921   2.188   0.679  13.972  1.0451  1.5064 -1.5242
14502TIP3    H264922   2.268   0.558  13.929 -0.8783 -0.6172  0.6328
14503TIP3   OH264923   6.260   2.781   3.447 -0.2252  0.2170  0.0918
14503TIP3    H164924   6.312   2.754   3.372  0.2548  1.3049  0.0073
14503TIP3    H264925   6.175   2.740   3.433 -0.4082  1.0233 -1.4876
14504TIP3   OH264926   0.706   6.739   3.744 -0.0318  0.0031 -0.5781
14504TIP3    H164927   0.657   6.820   3.760 -1.3381 -0.7433 -0.6417
14504TIP3    H264928   0.719   6.701   3.832  1.4184  0.7155 -0.4491
14505TIP3   OH264929   0.271   1.891   5.106  0.1232  0.1559  0.0336
14505TIP3    H164930   0.291   1.932   5.190  0.8410  1.3737 -0.7108
14505TIP3    H264931   0.353   1.852   5.078  0.3888  1.3845 -0.9691
14506TIP3   OH264932   0.283   4.987  14.365 -0.3592 -0.3710  0.4767
14506TIP3    H164933   0.323   4.986  14.452  0.7534 -0.4647 -0.0111
14506TIP3    H264934   0.196   4.950  14.377 -0.6359  0.6527  1.7400
14507TIP3   OH264935   2.740   0.351   0.109  0.2231 -0.2668 -0.2331
14507TIP3    H164936   2.662   0.298   0.091  0.6398 -1.3943  1.0793
14507TIP3    H264937   2.714   0.441   0.088 -0.3769 -0.9916 -2.9235
14508TIP3   OH264938   6.610   0.272  12.558  0.2275 -0.5396  0.3484
14508TIP3    H164939   6.678   0.276  12.625 -1.4279 -1.4233  2.1873
14508TIP3    H264940   6.563   0.355  12.568  0.3616 -0.3981 -0.1804
14509TIP3   OH264941   1.762   3.602   3.005  0.1169  0.3560  0.1952
14509TIP3    H164942   1.688   3.602   3.066  1.0125  0.6077  1.3219
14509TIP3    H264943   1.839   3.611   3.061  1.1498 -1.6898 -0.7669
14510TIP3   OH264944   3.929   1.897  10.594 -0.2551  0.3412 -0.3368
14510TIP3    H164945   3.884   1.881  10.512 -0.0004  2.0088 -0.8374
14510TIP3    H264946   4.012   1.938  10.569  0.8641 -1.1764  0.6473
14511TIP3   OH264947   3.998   6.148  15.086 -0.0831  0.4556 -0.2218
14511TIP3    H164948   3.947   6.101  15.019  0.2450  0.0293 -0.1763
14511TIP3    H264949   3.951   6.132  15.167 -0.7311  1.3451 -0.4165
14512TIP3   OH264950   1.211   5.192   0.902  0.0772  0.1548  0.7337
14512TIP3    H164951   1.235   5.138   0.977  1.2151 -1.5432 -0.7529
14512TIP3    H264952   1.269   5.268   0.907 -0.3463  0.4147  1.9337
14513TIP3   OH264953   6.532   6.456  13.819  0.0378 -0.0205  0.7650
14513TIP3    H164954   6.574   6.372  13.837 -0.2851 -0.5773 -0.8369
14513TIP3    H264955   6.596   6.504  13.767 -0.1648  0.3031  0.8131
14514TIP3   OH264956   3.767   5.535   0.848  0.7267 -0.7336 -0.0019
14514TIP3    H164957   3.807   5.477   0.912  0.6562 -1.4215 -0.5688
14514TIP3    H264958   3.674   5.539   0.873  0.9022 -0.1263  0.5765
14515TIP3   OH264959   0.128   1.848  14.252  0.3511  0.0692  0.6583
14515TIP3    H164960   0.211   1.874  14.292  0.6987 -0.3440  0.2106
14515TIP3    H264961   0.130   1.887  14.164  0.9610 -1.5967 -0.0994
14516TIP3   OH264962   0.153   5.927  13.012  0.1492  0.2917  0.6526
14516TIP3    H164963   0.136   5.918  12.918  2.3307 -0.7141  0.3028
14516TIP3    H264964   0.153   5.838  13.046  5.3448 -0.0935  0.3630
14517TIP3   OH264965   1.128   5.480   0.471  0.0887 -0.4341 -0.0786
14517TIP3    H164966   1.129   5.559   0.417  0.5553 -0.8219 -0.6524
14517TIP3    H264967   1.198   5.425   0.434  0.6222 -0.5811  1.1116
14518TIP3   OH264968   0.166   6.402   3.031 -0.2381  0.1499  0.5257
14518TIP3    H164969   0.206   6.446   3.105 -1.2418  0.2774  1.0097
14518TIP3    H264970   0.165   6.309   3.055  1.3808 -0.1223 -0.2647
14519TIP3   OH264971   1.704   3.865  16.297 -0.6717 -0.3849  0.4124
14519TIP3    H164972   1.664   3.804  16.359  0.9315 -1.9006  0.0396
14519TIP3    H264973   1.799   3.850  16.307 -0.2596  1.4554 -0.3078
14520TIP3   OH264974   0.997   3.750   2.351  0.8275 -0.3603 -0.1345
14520TIP3    H164975   0.934   3.683   2.325  3.1583 -2.2116 -1.4831
14520TIP3    H264976   0.998   3.812   2.279 -0.4831  0.5202  0.5769
14521TIP3   OH264977   3.627   1.389  16.978  0.4794 -0.0552 -0.3014
14521TIP3    H164978   3.700   1.408  16.919 -0.1983  0.2910 -1.0490
14521TIP3    H264979   3.550   1.389  16.921  0.0721 -2.0867  0.1812
14522TIP3   OH264980   4.952   5.396   4.188 -0.4241 -0.2188  0.6261
14522TIP3    H164981   4.968   5.337   4.114  0.0916 -2.5101  2.4658
14522TIP3    H264982   4.857   5.407   4.190 -0.4454 -0.0427 -0.3838
14523TIP3   OH264983   4.811   0.543  15.753  0.2472  0.1767 -0.0923
14523TIP3    H164984   4.821   0.508  15.664  0.9946  0.7275 -0.2346
14523TIP3    H264985   4.899   0.539  15.790 -0.4598 -2.5312  1.6092
14524TIP3   OH264986   1.215   1.568  14.219  0.2921 -0.5514  0.8973
14524TIP3    H164987   1.184   1.481  14.242 -0.7214  0.0478  1.8765
14524TIP3    H264988   1.248   1.605  14.301 -1.8568  0.9936  1.1665
14525TIP3   OH264989   4.274   4.270   6.734 -0.0149  0.4752  0.0951
14525TIP3    H164990   4.191   4.230   6.711  0.6965 -0.8750 -0.2585
14525TIP3    H264991   4.285   4.341   6.672 -0.8258  0.5621  0.0415
14526TIP3   OH264992   1.598   6.086   5.783  0.3017 -0.0595  0.1664
14526TIP3    H164993   1.530   6.146   5.812 -0.3956 -0.4821 -0.5604
14526TIP3    H264994   1.646   6.134   5.716 -0.3147 -0.3368 -0.4815
14527TIP3   OH264995   4.810   6.048   0.227  0.5974  0.4895 -0.2799
14527TIP3    H164996   4.725   6.028   0.189  1.7456 -2.3627 -1.7112
14527TIP3    H264997   4.840   6.126   0.180  0.1315 -0.4478 -2.2518
14528TIP3   OH264998   2.738   5.358  12.235  0.1412  0.8352 -0.4543
14528TIP3    H164999   2.784   5.298  12.293 -0.4830  1.2860  0.5237
14528TIP3    H265000   2.664   5.391  12.286 -0.7027  0.8913 -1.6643
14529TIP3   OH265001   3.407   5.229  15.339 -0.2280 -0.3188  0.2785
14529TIP3    H165002   3.441   5.191  15.258  0.1690 -1.5250  0.9821
14529TIP3    H265003   3.337   5.170  15.365  0.1685 -0.3788  1.2229
14530TIP3   OH265004   4.430   3.679  16.769  0.0860 -0.0115 -0.4037
14530TIP3    H165005   4.337   3.664  16.787  0.1453 -3.7496 -2.2475
14530TIP3    H265006   4.435   3.687  16.674  1.7003 -0.6455 -0.4034
14531TIP3   OH265007   5.058   1.548   4.976  1.3394 -0.1591 -0.0607
14531TIP3    H165008   5.108   1.630   4.975  2.2732 -0.6410  1.9787
14531TIP3    H265009   5.121   1.482   5.005  0.2124 -1.3286 -0.1752
14532TIP3   OH265010   6.766   4.035  14.201 -0.1394 -0.1494 -0.0017
14532TIP3    H165011   6.675   4.057  14.179 -0.0880  0.2544  0.1725
14532TIP3    H265012   6.817   4.105  14.161  0.3093 -1.5557 -2.0645
14533TIP3   OH265013   0.481   2.473  15.282  0.0113 -0.1662  0.4868
14533TIP3    H165014   0.572   2.445  15.296 -0.4220 -1.8037  0.2620
14533TIP3    H265015   0.443   2.404  15.228 -1.2516  0.7402  0.1750
14534TIP3   OH265016   4.141   1.746  15.796 -0.1433  0.6419 -0.0826
14534TIP3    H165017   4.199   1.818  15.820 -0.6518  1.0179  0.0383
14534TIP3    H265018   4.067   1.754  15.857 -1.8988  2.1575 -2.2530
14535TIP3   OH265019   5.900   2.590  14.254 -0.2513 -0.2547  0.4724
14535TIP3    H165020   5.852   2.639  14.187  0.1950 -0.1639  0.2178
14535TIP3    H265021   5.891   2.642  14.333  1.8028  1.2517 -0.1996
14536TIP3   OH265022   6.223   0.907  15.174 -0.1585  0.2413 -0.1446
14536TIP3    H165023   6.156   0.936  15.113  0.6280  0.6380 -0.8437
14536TIP3    H265024   6.299   0.887  15.119  0.7589  1.1689  0.7346
14537TIP3   OH265025   5.044   2.850   1.741  0.1932  0.4480  0.6922
14537TIP3    H165026   5.092   2.919   1.696  1.4583 -0.8771 -0.0741
14537TIP3    H265027   5.108   2.809   1.799 -0.2424 -0.7512  0.3525
14538TIP3   OH265028   3.602   4.875  12.257 -0.3371 -0.0007  0.6806
14538TIP3    H165029   3.599   4.967  12.285 -0.0543  0.4301 -0.6452
14538TIP3    H265030   3.530   4.834  12.304 -0.9927  1.0849  0.6649
14539TIP3   OH265031   5.618   5.359   5.963  0.5179 -0.2676 -0.5671
14539TIP3    H165032   5.615   5.346   6.058  2.0028  0.6678 -0.3647
14539TIP3    H265033   5.542   5.310   5.930 -0.0552 -0.5647  1.0918
14540TIP3   OH265034   4.416   5.589  14.761  0.2139 -0.1739  0.4627
14540TIP3    H165035   4.481   5.636  14.813 -1.7644  1.6696  1.4279
14540TIP3    H265036   4.355   5.552  14.826 -1.2065  0.5016 -0.4299
14541TIP3   OH265037   2.048   0.836  12.077 -0.7526  0.1696  0.0687
14541TIP3    H165038   2.008   0.904  12.024  0.0621  0.4543 -0.1891
14541TIP3    H265039   2.141   0.843  12.060 -0.5986 -0.6051  0.5203
14542TIP3   OH265040   0.345   5.750  14.998 -0.3312  0.0941 -0.1910
14542TIP3    H165041   0.297   5.674  15.031  0.5859 -1.2875 -1.8936
14542TIP3    H265042   0.280   5.798  14.946 -0.3054 -0.8947 -1.1620
14543TIP3   OH265043   0.765   3.123   0.940 -0.4970 -0.0878  0.7311
14543TIP3    H165044   0.798   3.128   1.030 -0.4130  0.6133  0.6701
14543TIP3    H265045   0.716   3.205   0.929 -0.1322  0.0298 -0.0074
14544TIP3   OH265046   1.709   6.288   2.125 -0.5520  0.1420  0.4146
14544TIP3    H165047   1.697   6.293   2.220  0.2153  0.7260  0.4855
14544TIP3    H265048   1.793   6.245   2.113 -0.5461  0.2623  0.0006
14545TIP3   OH265049   0.067   5.702  10.441  0.2432 -0.1237 -0.2926
14545TIP3    H165050   0.035   5.670  10.525  0.1040 -1.2425 -0.7506
14545TIP3    H265051   0.119   5.630  10.406 -0.3499  0.0178 -1.5177
14546TIP3   OH265052   2.265   5.709  11.450 -0.4279 -0.2853  0.0778
14546TIP3    H165053   2.253   5.796  11.412 -1.9448 -0.5795 -0.1935
14546TIP3    H265054   2.190   5.699  11.509 -0.4477 -1.5263 -0.1349
14547TIP3   OH265055   0.874   1.373  15.463  0.8685  0.3779 -0.3929
14547TIP3    H165056   0.863   1.449  15.407 -2.0941  1.9557  2.0428
14547TIP3    H265057   0.787   1.332  15.465  0.8912  0.2870  2.7899
14548TIP3   OH265058   2.798   6.513  15.512 -0.2975  0.0837  0.3083
14548TIP3    H165059   2.883   6.533  15.550  0.2756 -1.2391 -0.2133
14548TIP3    H265060   2.815   6.440  15.453 -1.5749  0.6025 -0.7521
14549TIP3   OH265061   3.827   6.512  16.812 -0.4587  0.4001  0.0044
14549TIP3    H165062   3.821   6.416  16.808  1.1581  0.2978 -1.0436
14549TIP3    H265063   3.881   6.528  16.890  0.2475  0.3782 -0.4694
14550TIP3   OH265064   5.654   2.318  14.105  0.5008 -0.0764 -0.4153
14550TIP3    H165065   5.572   2.301  14.059  1.6149 -0.7085 -2.2852
14550TIP3    H265066   5.688   2.397  14.065  1.4391 -0.5670 -0.6145
14551TIP3   OH265067   1.695   0.422   0.285 -0.1058 -0.6385  0.0386
14551TIP3    H165068   1.738   0.456   0.207 -1.9576 -1.8877 -1.6255
14551TIP3    H265069   1.668   0.333   0.261  1.1317 -1.9078  2.8717
14552TIP3   OH265070   0.707   5.085  15.355  0.4163  0.0043 -0.1562
14552TIP3    H165071   0.779   5.026  15.332 -0.1256 -0.4462 -0.7400
14552TIP3    H265072   0.740   5.173  15.334  0.3548 -0.2951 -1.6533
14553TIP3   OH265073   1.066   5.176   0.026  0.0043  0.7200  0.1338
14553TIP3    H165074   1.124   5.134  -0.038 -0.7889  0.8306 -0.6754
14553TIP3    H265075   0.980   5.176  -0.016 -0.5665  0.6416  1.2844
14554TIP3   OH265076   0.202   4.929  16.557 -0.5008 -0.2730  0.3515
14554TIP3    H165077   0.275   4.977  16.517 -0.3862 -0.1268  0.7326
14554TIP3    H265078   0.159   4.885  16.483 -0.8074  0.6706 -0.0435
14555TIP3   OH265079   3.836   4.076   2.477 -0.0718 -0.1591 -0.2105
14555TIP3    H165080   3.835   4.087   2.382  0.4245  1.2321 -0.0728
14555TIP3    H265081   3.755   4.118   2.507  0.3533  0.4675  0.0753
14556TIP3   OH265082   4.844   5.796  11.208  0.2944  0.4072  1.0155
14556TIP3    H165083   4.844   5.713  11.160 -1.3762  0.6727  0.4910
14556TIP3    H265084   4.769   5.789  11.267 -0.1978  1.7451  0.5827
14557TIP3   OH265085   6.180   1.419  17.108  0.3644 -0.0781 -0.8133
14557TIP3    H165086   6.209   1.502  17.146  1.4131 -1.1418  0.8516
14557TIP3    H265087   6.260   1.374  17.083 -0.0604 -1.2494 -0.1725
14558TIP3   OH265088   4.760   2.481   3.477  0.8075  0.2636  0.4158
14558TIP3    H165089   4.845   2.489   3.520  1.7360  1.3973 -1.5084
14558TIP3    H265090   4.776   2.424   3.402  0.0574  1.0730 -0.3810
14559TIP3   OH265091   1.689   4.350  13.750 -0.0489 -0.2665  0.0721
14559TIP3    H165092   1.732   4.389  13.825 -1.0907 -0.7901  0.9743
14559TIP3    H265093   1.602   4.390  13.748 -0.5253 -1.2526  0.0043
14560TIP3   OH265094   1.811   3.896   0.015 -0.3845 -0.3577 -0.3621
14560TIP3    H165095   1.855   3.814  -0.005 -1.2535 -1.0458  0.4566
14560TIP3    H265096   1.880   3.952   0.051  0.0317 -1.0351 -0.0955
14561TIP3   OH265097   2.627   1.238  15.353 -0.1569  0.0985  0.4559
14561TIP3    H165098   2.538   1.238  15.319 -0.2574  0.3118  0.7151
14561TIP3    H265099   2.683   1.237  15.274 -0.3872  0.4015  0.2857
14562TIP3   OH265100   0.391   3.762  12.158  0.7985  0.0045 -0.2162
14562TIP3    H165101   0.299   3.783  12.176  0.8867  0.9595 -0.8641
14562TIP3    H265102   0.400   3.670  12.185 -0.9402 -0.8579 -2.3237
14563TIP3   OH265103   2.532   0.195  15.828  0.1168  0.0538 -0.3033
14563TIP3    H165104   2.584   0.204  15.748  1.1259  0.1451  0.3340
14563TIP3    H265105   2.597   0.179  15.896 -0.7559 -0.3748  0.4435
14564TIP3   OH265106   1.227   5.525   5.485 -0.3057  0.2887  0.3502
14564TIP3    H165107   1.272   5.469   5.548 -0.3238 -1.7975 -1.3722
14564TIP3    H265108   1.296   5.558   5.429 -0.5657 -0.5051 -0.4721
14565TIP3   OH265109   3.741   5.500  17.190  0.0287 -0.0476 -0.4142
14565TIP3    H165110   3.729   5.455  17.106 -0.5051 -0.6326 -0.0325
14565TIP3    H265111   3.653   5.514  17.223  0.2500 -0.8241  0.5677
14566TIP3   OH265112   3.562   6.481   0.381  0.2988  0.1616  0.2345
14566TIP3    H165113   3.612   6.433   0.447  1.7292  0.2295 -0.7445
14566TIP3    H265114   3.534   6.414   0.318 -0.8018  0.1400  0.7226
14567TIP3   OH265115   5.501   5.057  15.351  0.1437 -0.1806  0.5914
14567TIP3    H165116   5.446   5.132  15.330  0.7703  0.4312  1.0706
14567TIP3    H265117   5.472   5.028  15.437 -0.4825 -0.8644  0.1642
14568TIP3   OH265118   2.533   3.537  11.773 -0.1585 -0.1773  0.8019
14568TIP3    H165119   2.534   3.490  11.857 -1.2746 -1.2000  0.2657
14568TIP3    H265120   2.459   3.596  11.780 -0.7287 -0.8185  0.2518
14569TIP3   OH265121   3.033   3.772   5.504 -0.1366  0.2074  0.0491
14569TIP3    H165122   2.980   3.814   5.436 -0.1186  0.5426  0.2412
14569TIP3    H265123   3.013   3.679   5.494 -0.8428  0.3322  0.1839
14570TIP3   OH265124   5.786   4.666   6.161  0.4885  0.4238  0.2349
14570TIP3    H165125   5.835   4.730   6.214  0.9590  1.0170 -0.8840
14570TIP3    H265126   5.697   4.672   6.193  1.1149 -0.8099  2.4534
14571TIP3   OH265127   5.936   3.957  12.669 -0.2520 -0.2628  0.1520
14571TIP3    H165128   5.860   4.014  12.658  0.6121  0.9174  0.0314
14571TIP3    H265129   5.940   3.939  12.763 -0.3776  0.0961  0.2258
14572TIP3   OH265130   0.988   4.153   3.835  0.1788  0.0132 -0.0961
14572TIP3    H165131   0.919   4.123   3.893  0.8696 -1.3026  0.1083
14572TIP3    H265132   0.987   4.090   3.762  0.3249  0.7347 -0.7402
14573TIP3   OH265133   1.538   1.209  16.579 -0.2611 -0.1530 -0.2853
14573TIP3    H165134   1.542   1.120  16.544 -0.7916 -0.6323  0.8351
14573TIP3    H265135   1.575   1.263  16.509 -0.0790 -1.2233 -1.0528
14574TIP3   OH265136   0.827   0.641  14.340 -0.1830  0.3830 -0.3254
14574TIP3    H165137   0.808   0.551  14.365  0.1131  0.5278  0.4723
14574TIP3    H265138   0.748   0.690  14.361 -0.4132  0.2853 -0.9377
14575TIP3   OH265139   6.668   6.727   4.618 -0.2596 -0.2236  0.0122
14575TIP3    H165140   6.682   6.822   4.619 -0.0658 -0.2091 -1.6804
14575TIP3    H265141   6.574   6.716   4.635 -0.8568  0.4596 -2.4579
14576TIP3   OH265142   3.609   6.235  17.026  0.1477 -0.1101  0.9933
14576TIP3    H165143   3.514   6.225  17.034 -0.3448  1.9168 -1.0205
14576TIP3    H265144   3.628   6.317  17.072  0.9413 -0.5522  1.4665
14577TIP3   OH265145   0.169   0.689  15.769  0.1002 -0.3651 -0.4419
14577TIP3    H165146   0.232   0.732  15.828  1.9721 -0.6913 -2.0764
14577TIP3    H265147   0.141   0.758  15.709 -0.4844 -0.4100 -0.2275
14578TIP3   OH265148   5.620   5.538  13.750  0.0927  0.0334  1.2452
14578TIP3    H165149   5.648   5.447  13.760 -0.8755 -0.3364  0.7099
14578TIP3    H265150   5.634   5.558  13.658 -2.2839 -0.5071  0.6971
14579TIP3   OH265151   5.244   1.500  15.901 -0.9079  0.0468  0.5349
14579TIP3    H165152   5.216   1.544  15.821 -0.9282 -0.2385  0.3842
14579TIP3    H265153   5.280   1.416  15.872 -0.2569  0.2372  0.7603
14580TIP3   OH265154   2.306   4.691  13.527 -0.0540 -0.5288  0.2881
14580TIP3    H165155   2.349   4.623  13.476  0.9350 -0.3683  0.8697
14580TIP3    H265156   2.326   4.772  13.479 -0.8786 -0.5923 -0.1781
14581TIP3   OH265157   5.279   1.626  12.095  0.7044  0.0791  0.7756
14581TIP3    H165158   5.200   1.588  12.056  0.0389  2.3939 -0.3094
14581TIP3    H265159   5.346   1.615  12.028  0.7797 -0.0967  0.8800
14582TIP3   OH265160   5.320   0.213   0.773 -0.3016 -0.2306  0.6849
14582TIP3    H165161   5.395   0.173   0.816  0.1851  0.2418  0.2846
14582TIP3    H265162   5.275   0.261   0.842 -0.2794 -0.5705  0.9384
14583TIP3   OH265163   1.824   1.997  17.205 -0.2697 -0.4031 -0.7007
14583TIP3    H165164   1.777   2.055  17.266 -2.1143 -1.6320 -0.8589
14583TIP3    H265165   1.859   2.056  17.138  0.0058  0.7557  0.4291
14584TIP3   OH265166   5.311   4.116   3.962 -0.6022  0.4866 -0.8171
14584TIP3    H165167   5.382   4.087   4.019 -1.3549 -2.2443 -1.1556
14584TIP3    H265168   5.239   4.136   4.023 -0.9334 -1.0161 -0.6816
14585TIP3   OH265169   1.959   4.965  11.809 -0.0029 -0.1157  0.5944
14585TIP3    H165170   1.972   4.915  11.890 -0.6497  0.1855  0.8890
14585TIP3    H265171   2.030   4.936  11.752 -0.6918 -1.8372  0.5361
14586TIP3   OH265172   1.249   1.160   5.790  0.6963  0.2284 -0.6979
14586TIP3    H165173   1.225   1.112   5.710 -2.8324 -1.9640  1.4093
14586TIP3    H265174   1.283   1.092   5.849  2.8086  1.7280 -0.0800
14587TIP3   OH265175   1.025   2.981  11.607 -0.4060  0.0740  0.0483
14587TIP3    H165176   1.023   3.010  11.698 -1.7970  0.6277 -0.1410
14587TIP3    H265177   1.118   2.969  11.588 -0.0968 -0.0933  1.5424
14588TIP3   OH265178   1.609   0.141   1.757 -0.0784  0.9637  0.1493
14588TIP3    H165179   1.584   0.227   1.724 -1.4419  0.9470  1.0150
14588TIP3    H265180   1.603   0.149   1.853 -0.0416 -0.0323  0.2536
14589TIP3   OH265181   5.036   5.216   3.386  0.6240  0.3299  0.2717
14589TIP3    H165182   4.974   5.284   3.359  0.2604  0.0554  0.4039
14589TIP3    H265183   5.104   5.218   3.319 -1.1460 -1.5487 -1.7924
14590TIP3   OH265184   0.284   5.413   3.877 -0.2637 -0.5147  0.2082
14590TIP3    H165185   0.328   5.488   3.836 -0.1812 -0.7618 -0.1618
14590TIP3    H265186   0.191   5.431   3.865 -0.2335 -0.9862 -0.8398
14591TIP3   OH265187   6.331   4.198  12.319 -0.4547  0.6529 -0.6242
14591TIP3    H165188   6.336   4.264  12.250  1.2913  1.2696  0.0506
14591TIP3    H265189   6.344   4.115  12.274  1.9305  1.1433 -0.9290
14592TIP3   OH265190   0.059   2.324   3.992  0.6807  0.1755 -0.2288
14592TIP3    H165191   0.015   2.240   4.002  0.7670  0.0432 -0.9048
14592TIP3    H265192   0.080   2.352   4.081  1.1220 -0.7676 -0.0277
14593TIP3   OH265193   0.334   5.230  15.995  0.2981  0.2620  0.5952
14593TIP3    H165194   0.390   5.269  15.928 -0.0269 -1.7965 -1.0010
14593TIP3    H265195   0.249   5.221  15.952  0.6125 -3.0365  0.4017
14594TIP3   OH265196   5.493   1.086   0.454 -0.0218  0.5179 -0.1582
14594TIP3    H165197   5.454   1.081   0.367 -0.3592  1.4663 -0.0728
14594TIP3    H265198   5.515   1.179   0.466 -0.0716  0.4231  0.8046
14595TIP3   OH265199   3.618   2.196   4.395  0.0442 -0.3017  0.5808
14595TIP3    H165200   3.609   2.141   4.317  0.0396  0.4559  0.0368
14595TIP3    H265201   3.578   2.144   4.465 -0.7147 -0.6365 -0.0863
14596TIP3   OH265202   0.332   1.539  12.901  0.0225 -0.5974  0.2598
14596TIP3    H165203   0.243   1.553  12.868  0.2589 -0.4838 -0.3456
14596TIP3    H265204   0.320   1.512  12.992 -0.5829  0.4486  0.5047
14597TIP3   OH265205   3.672   2.668  11.675  0.1934  0.3583 -0.0518
14597TIP3    H165206   3.727   2.655  11.753  0.8893 -2.8884 -0.9339
14597TIP3    H265207   3.639   2.757  11.684  0.4884  0.2609  3.7944
14598TIP3   OH265208   4.060   2.845  12.028 -0.3510  0.0995 -0.2121
14598TIP3    H165209   4.096   2.877  11.945  0.8874  1.4737  0.7945
14598TIP3    H265210   4.067   2.920  12.087 -0.5388 -1.0593  1.3301
14599TIP3   OH265211   5.573   5.697  14.678 -0.1529 -0.0560  0.2987
14599TIP3    H165212   5.582   5.696  14.773 -0.8594 -0.3641  0.3691
14599TIP3    H265213   5.550   5.607  14.655  0.6257 -0.1265 -0.2301
14600TIP3   OH265214   2.658   3.992   1.657  0.2413 -0.4717 -0.5900
14600TIP3    H165215   2.687   4.083   1.652  0.7911 -0.6774 -1.4208
14600TIP3    H265216   2.609   3.978   1.576 -0.4066 -0.7378 -0.1653
14601TIP3   OH265217   3.301   5.910  13.094  0.4568 -0.1577  0.4644
14601TIP3    H165218   3.267   5.946  13.176  0.3179  0.2579  0.2288
14601TIP3    H265219   3.380   5.863  13.119  0.4427  0.0113  0.8308
14602TIP3   OH265220   3.998   5.718   3.846 -0.0475  0.8120  0.6920
14602TIP3    H165221   3.938   5.651   3.879  0.1800  0.0056 -0.4650
14602TIP3    H265222   4.083   5.675   3.843  0.2075  1.3206  0.4568
14603TIP3   OH265223   3.228   0.113   5.823  0.0659 -0.3152  0.1921
14603TIP3    H165224   3.152   0.113   5.881  0.1161 -0.2119  0.2583
14603TIP3    H265225   3.255   0.205   5.819  1.2169 -0.5531  1.5198
14604TIP3   OH265226   5.657   4.515  15.022  0.3347 -0.3019  0.2385
14604TIP3    H165227   5.594   4.478  14.961 -0.2622  1.4379 -0.2698
14604TIP3    H265228   5.706   4.440  15.055 -0.4518 -1.4517 -1.1013
14605TIP3   OH265229   5.014   2.069   0.418  0.2462 -0.0075  0.0903
14605TIP3    H165230   5.045   2.159   0.403  2.4657 -0.4844  1.3168
14605TIP3    H265231   4.969   2.074   0.502  0.9239 -0.1379  0.4687
14606TIP3   OH265232   4.078   4.600   4.561  0.2665 -0.8367 -0.5164
14606TIP3    H165233   4.085   4.575   4.468 -0.7884 -3.5387  0.0548
14606TIP3    H265234   3.988   4.629   4.572  0.1034 -1.4739 -0.1396
14607TIP3   OH265235   1.403   1.454   2.514  0.0343  0.3490  0.2582
14607TIP3    H165236   1.463   1.445   2.588 -0.0439  0.8371  0.3808
14607TIP3    H265237   1.369   1.365   2.500  1.4595 -0.1396 -0.3855
14608TIP3   OH265238   0.452   5.468   2.608  0.1664 -0.2039  0.9109
14608TIP3    H165239   0.500   5.502   2.683  0.7718 -3.6317  2.2664
14608TIP3    H265240   0.360   5.474   2.634  0.1817  1.1085  0.7255
14609TIP3   OH265241   5.401   4.829   4.636 -0.0166  0.3492 -0.2721
14609TIP3    H165242   5.496   4.843   4.626  0.0464  0.4889  0.4840
14609TIP3    H265243   5.384   4.747   4.591  0.6506 -0.2232  0.4994
14610TIP3   OH265244   2.888   0.926  14.625  0.0592 -0.5019  0.2760
14610TIP3    H165245   2.827   0.966  14.687  0.3921  0.2142  0.1554
14610TIP3    H265246   2.908   0.841  14.663 -1.1840 -0.8541  0.2063
14611TIP3   OH265247   4.618   6.477   2.687 -0.2413  0.4419 -0.0146
14611TIP3    H165248   4.662   6.413   2.631 -0.3981  0.6894 -0.4256
14611TIP3    H265249   4.565   6.425   2.747  0.7800  0.1265  0.6435
14612TIP3   OH265250   1.078   0.823   1.859  0.4657  0.2500 -0.4484
14612TIP3    H165251   1.172   0.819   1.841  1.1370  0.0318  2.6064
14612TIP3    H265252   1.057   0.916   1.856  0.8344  0.3299 -0.7418
14613TIP3   OH265253   3.802   0.736   5.249  0.5038 -0.6083  0.1863
14613TIP3    H165254   3.780   0.825   5.222  1.2105 -0.5865 -0.3481
14613TIP3    H265255   3.834   0.694   5.169  2.3227 -0.6400  0.8897
14614TIP3   OH265256   2.548   1.368  11.641  0.3690 -0.0026 -0.6508
14614TIP3    H165257   2.604   1.317  11.582 -1.2038 -1.3938 -1.0352
14614TIP3    H265258   2.510   1.303  11.700  1.2514  1.2643  1.3958
14615TIP3   OH265259   3.795   1.303   5.374  0.8145  0.4196 -0.0434
14615TIP3    H165260   3.755   1.300   5.461  2.0635  1.6588  0.6176
14615TIP3    H265261   3.751   1.375   5.330 -0.1613 -0.5181 -0.6504
14616TIP3   OH265262   2.532   0.424  17.109 -0.0143  0.0875 -0.1573
14616TIP3    H165263   2.623   0.401  17.090  0.3039  0.9996  0.2385
14616TIP3    H265264   2.482   0.380  17.040  0.6457 -1.0473  0.0552
14617TIP3   OH265265   0.718   1.490   1.508  0.2379 -0.0327  0.1477
14617TIP3    H165266   0.768   1.499   1.427  0.2036 -0.2294  0.1047
14617TIP3    H265267   0.760   1.550   1.569  0.8223 -0.5338  0.2508
14618TIP3   OH265268   4.690   0.173   5.204  0.3425 -0.0596 -0.8177
14618TIP3    H165269   4.747   0.203   5.134 -0.7486  1.3012 -1.1719
14618TIP3    H265270   4.613   0.138   5.158  0.6642 -1.4559 -0.3436
14619TIP3   OH265271   6.399   3.662   0.981  0.1711 -0.0052  0.0734
14619TIP3    H165272   6.407   3.697   1.070  2.9653  1.1886 -0.5616
14619TIP3    H265273   6.430   3.572   0.987  1.2013  0.3487  0.1735
14620TIP3   OH265274   1.878   2.265   5.964 -0.1545  0.0914 -0.3164
14620TIP3    H165275   1.872   2.298   6.054  0.8515 -0.9334  0.1674
14620TIP3    H265276   1.867   2.170   5.973 -1.0547  0.0821 -1.4126
14621TIP3   OH265277   0.716   0.195  16.252  0.0410 -0.2221  0.4801
14621TIP3    H165278   0.792   0.169  16.305 -0.3746 -0.7308  0.8409
14621TIP3    H265279   0.705   0.288  16.271 -0.2041 -0.4327  1.4408
14622TIP3   OH265280   3.045   3.801  15.824 -0.2417  0.3250  0.4555
14622TIP3    H165281   2.977   3.868  15.818 -1.0524 -0.6008 -3.2242
14622TIP3    H265282   3.127   3.849  15.809 -0.7290  0.7006 -1.2198
14623TIP3   OH265283   3.682   3.272  11.294 -0.2420  0.0948  0.2184
14623TIP3    H165284   3.710   3.353  11.337 -1.3500 -0.3755  1.9291
14623TIP3    H265285   3.745   3.260  11.222  2.3452  0.4242  2.2715
14624TIP3   OH265286   1.307   4.141  11.941  0.2997  0.1725  0.6666
14624TIP3    H165287   1.272   4.056  11.913 -0.5967  0.5467  0.5939
14624TIP3    H265288   1.229   4.193  11.961  0.8680  0.2618  2.8906
14625TIP3   OH265289   5.496   6.775  16.958  0.3475 -0.1192  0.4571
14625TIP3    H165290   5.461   6.702  16.907 -0.5047  0.3201  0.3963
14625TIP3    H265291   5.464   6.760  17.047  1.1095 -0.4204  0.6860
14626TIP3   OH265292   0.504   5.826  11.658 -0.1403  0.4266  0.0484
14626TIP3    H165293   0.508   5.822  11.562 -1.0542  0.3631  0.0030
14626TIP3    H265294   0.499   5.920  11.677 -0.9118  0.4084 -0.0245
14627TIP3   OH265295   3.847   6.652   1.010 -0.0492  0.3305 -0.5854
14627TIP3    H165296   3.781   6.718   1.030 -0.3140  0.3164 -1.3677
14627TIP3    H265297   3.917   6.700   0.965 -0.1439  0.1224 -0.9611
14628TIP3   OH265298   1.166   6.235  14.064 -0.5073  0.2770 -0.1392
14628TIP3    H165299   1.184   6.167  14.000  0.2889  0.8075 -0.4909
14628TIP3    H265300   1.082   6.272  14.037 -0.6579 -0.1647 -0.2861
14629TIP3   OH265301   5.251   5.996  13.814 -0.4524  0.5249  0.1506
14629TIP3    H165302   5.172   6.046  13.835 -0.8653  0.1899 -0.5772
14629TIP3    H265303   5.304   6.055  13.760  0.0744  0.9623  1.1229
14630TIP3   OH265304   6.721   3.281   2.793  0.4185  0.0203 -1.2993
14630TIP3    H165305   6.756   3.342   2.857 -0.0629 -0.2762 -0.7461
14630TIP3    H265306   6.795   3.261   2.735  1.3300 -0.9948  0.1508
14631TIP3   OH265307   1.912   3.838  12.398 -0.5409 -0.5339  0.6715
14631TIP3    H165308   1.908   3.858  12.304  1.9931 -0.5079  0.5141
14631TIP3    H265309   1.923   3.743  12.403 -0.5625 -0.5233  0.9539
14632TIP3   OH265310   3.368   6.294   3.480  0.4553  0.3003  0.4511
14632TIP3    H165311   3.272   6.296   3.475  0.5163 -0.0653 -1.9968
14632TIP3    H265312   3.389   6.203   3.502  0.2418  0.2518  0.4554
14633TIP3   OH265313   4.239   3.788   4.462 -0.0937 -0.9326  0.1199
14633TIP3    H165314   4.315   3.769   4.518  1.4174 -1.0957 -1.8733
14633TIP3    H265315   4.265   3.865   4.412 -1.1378 -1.1607 -0.8107
14634TIP3   OH265316   2.766   2.446  16.956  0.1601  0.1348  0.4091
14634TIP3    H165317   2.727   2.491  17.031 -0.8785 -0.6817  0.3832
14634TIP3    H265318   2.845   2.496  16.936 -0.4967  1.4197  0.9244
14635TIP3   OH265319   2.683   2.009   2.224 -0.4035 -0.0833  0.1861
14635TIP3    H165320   2.638   1.944   2.277 -0.5286  0.3881  0.6658
14635TIP3    H265321   2.613   2.063   2.188 -0.2155  1.0975  1.5174
14636TIP3   OH265322   4.027   5.501  16.622  0.1001 -0.3110 -0.2312
14636TIP3    H165323   4.097   5.549  16.578 -0.2135 -0.9566 -1.4538
14636TIP3    H265324   4.073   5.444  16.684  0.7430 -1.3400 -1.5973
14637TIP3   OH265325   5.302   3.619   5.270  0.6738 -0.0629  0.0938
14637TIP3    H165326   5.318   3.525   5.281  0.0427 -0.0642  1.1825
14637TIP3    H265327   5.339   3.659   5.349 -1.5858  0.2690  1.0608
14638TIP3   OH265328   4.468   1.573  11.831 -0.9327 -0.4325  0.4021
14638TIP3    H165329   4.374   1.566  11.815 -1.1327  2.1395 -0.0320
14638TIP3    H265330   4.508   1.524  11.759 -1.9055 -2.1045  0.9609
14639TIP3   OH265331   5.877   0.472   6.173 -0.0034 -0.7566  0.2917
14639TIP3    H165332   5.825   0.512   6.105 -1.0024  0.8868  1.9375
14639TIP3    H265333   5.955   0.527   6.179 -0.6260  0.0321  1.4637
14640TIP3   OH265334   3.548   5.323   0.662 -0.5229 -0.3067 -0.3447
14640TIP3    H165335   3.527   5.288   0.576 -1.5683 -0.3384 -0.0851
14640TIP3    H265336   3.643   5.339   0.659 -0.5010 -0.5824 -1.3905
14641TIP3   OH265337   2.233   2.550  14.275  0.2739  0.0671  0.8151
14641TIP3    H165338   2.152   2.586  14.239  1.0649  0.9745 -0.1104
14641TIP3    H265339   2.204   2.481  14.335 -1.1747  0.3604  0.4845
14642TIP3   OH265340   2.145   1.935  14.655  0.3863  0.1673  0.3661
14642TIP3    H165341   2.143   1.951  14.561  0.5780 -0.4703  0.2496
14642TIP3    H265342   2.058   1.900  14.675  0.9537 -1.4903  0.0845
14643TIP3   OH265343   2.806   6.620  14.860 -0.3501  0.9200 -0.0624
14643TIP3    H165344   2.859   6.554  14.815  0.1627  0.7065  0.8309
14643TIP3    H265345   2.839   6.704  14.827  0.0987  0.7689 -0.0106
14644TIP3   OH265346   4.548   6.050   4.964  0.5486 -0.0833  0.0215
14644TIP3    H165347   4.501   5.980   5.009 -0.5352  0.2980 -0.4657
14644TIP3    H265348   4.637   6.046   4.999  0.1830 -0.8901  0.9176
14645TIP3   OH265349   2.858   5.877  14.932  0.0064  0.2071 -0.4805
14645TIP3    H165350   2.775   5.845  14.898  0.6412 -0.2959 -1.6274
14645TIP3    H265351   2.907   5.903  14.854  0.6317  1.2334  0.2313
14646TIP3   OH265352   3.827   1.987   0.896  0.3967 -0.0426  0.4695
14646TIP3    H165353   3.898   2.042   0.861  0.3424 -0.7301 -0.8069
14646TIP3    H265354   3.802   1.932   0.822  0.1509 -1.4829  1.5836
14647TIP3   OH265355   3.951   5.926  15.583 -0.0870  0.5702 -0.2286
14647TIP3    H165356   3.864   5.947  15.617  0.3523 -1.9747  2.9389
14647TIP3    H265357   4.012   5.964  15.645  0.9505 -0.6173 -0.4807
14648TIP3   OH265358   5.185   3.679  16.670 -0.3891  0.0793  0.0006
14648TIP3    H165359   5.152   3.704  16.584  0.4302  0.9885 -0.0581
14648TIP3    H265360   5.264   3.628  16.652  0.8449  1.8535  0.2354
14649TIP3   OH265361   1.912   3.494  15.572 -0.3364 -0.3014  0.0651
14649TIP3    H165362   1.926   3.560  15.640  0.5363  1.2189 -1.5010
14649TIP3    H265363   1.819   3.500  15.551 -0.0625  1.3185 -0.8541
14650TIP3   OH265364   4.667   2.118   2.646 -0.2169 -0.2206  0.4295
14650TIP3    H165365   4.756   2.138   2.615  0.7413 -0.3794  2.8458
14650TIP3    H265366   4.680   2.090   2.737 -2.8176  0.1593  0.9690
14651TIP3   OH265367   0.341   5.739  16.681  0.2605  0.3614 -0.7317
14651TIP3    H165368   0.425   5.699  16.657  1.1211  1.9419 -0.4786
14651TIP3    H265369   0.336   5.818  16.628 -0.6179  0.7846 -0.0421
14652TIP3   OH265370   3.570   4.594   4.413  0.0404  0.0536  0.2762
14652TIP3    H165371   3.490   4.573   4.364  0.8555 -0.0179 -1.0770
14652TIP3    H265372   3.607   4.509   4.435  0.4190  0.0720 -0.2651
14653TIP3   OH265373   0.230   6.308  12.646  0.0476 -0.4304  0.0763
14653TIP3    H165374   0.200   6.369  12.713 -1.0733 -0.7023 -0.1510
14653TIP3    H265375   0.282   6.361  12.585 -2.6284  0.8134 -1.2869
14654TIP3   OH265376   0.726   3.494   1.936 -0.6820  0.0145 -0.1635
14654TIP3    H165377   0.732   3.508   1.842  1.1927 -2.2146 -0.4625
14654TIP3    H265378   0.671   3.416   1.945 -1.1148  0.3969  0.6438
14655TIP3   OH265379   2.623   3.310  15.051  0.4727 -0.4312 -0.5298
14655TIP3    H165380   2.651   3.267  14.970 -0.2818  0.6336 -1.3945
14655TIP3    H265381   2.589   3.395  15.022 -2.6509 -1.1697  0.5103
14656TIP3   OH265382   0.702   1.168  11.707 -0.0396  0.1468 -0.3798
14656TIP3    H165383   0.720   1.262  11.700 -2.2595  0.6380 -0.2715
14656TIP3    H265384   0.659   1.158  11.792  1.3766 -1.2389  0.2384
14657TIP3   OH265385   2.011   1.609  16.612  0.3274  0.5432 -0.4998
14657TIP3    H165386   2.102   1.598  16.640  0.1392 -1.4846 -0.4849
14657TIP3    H265387   2.012   1.686  16.556  1.0247  3.9175  3.6568
14658TIP3   OH265388   4.345   2.034  14.393  0.2880  0.0817 -0.3816
14658TIP3    H165389   4.404   1.961  14.377 -2.2414 -2.1686 -0.1574
14658TIP3    H265390   4.308   2.017  14.480 -1.9921  0.3473 -1.2273
14659TIP3   OH265391   0.663   0.905   4.839 -0.2098 -0.2322 -0.1063
14659TIP3    H165392   0.614   0.876   4.916  1.3213 -0.7433  0.7095
14659TIP3    H265393   0.680   0.998   4.854 -0.3906 -0.2005 -0.0976
14660TIP3   OH265394   5.947   2.674   5.797 -0.0236 -0.1809  0.1704
14660TIP3    H165395   5.876   2.738   5.804 -0.1264 -0.1587 -0.8707
14660TIP3    H265396   5.942   2.643   5.707 -1.2920 -3.1761  1.1411
14661TIP3   OH265397   0.614   1.534  14.681  0.0796  0.1243 -0.1920
14661TIP3    H165398   0.598   1.525  14.587  3.1848  1.3460 -0.9884
14661TIP3    H265399   0.579   1.620  14.704 -1.2838 -0.4537 -0.0292
14662TIP3   OH265400   0.637   5.376  11.114 -0.2028  0.5108 -0.3716
14662TIP3    H165401   0.666   5.375  11.023 -0.6099  1.7550 -0.5256
14662TIP3    H265402   0.707   5.419  11.162 -0.1513  0.1830 -0.1477
14663TIP3   OH265403   3.343   2.121  15.043 -0.0433  0.2471 -0.4687
14663TIP3    H165404   3.368   2.206  15.009 -0.4689  0.1054 -1.1507
14663TIP3    H265405   3.416   2.095  15.098  0.4971  0.6485 -0.9847
14664TIP3   OH265406   5.212   6.021  11.842  0.0911 -0.1526  0.6866
14664TIP3    H165407   5.162   6.100  11.865 -0.2902 -0.1621 -0.0703
14664TIP3    H265408   5.299   6.054  11.818 -0.0205  0.0252  0.5177
14665TIP3   OH265409   4.758   6.778  16.776 -0.0826 -0.6227  0.3845
14665TIP3    H165410   4.830   6.736  16.822  2.1320  3.2283  0.8036
14665TIP3    H265411   4.705   6.817  16.845  0.4459  0.9838 -0.0903
14666TIP3   OH265412   1.116   2.491  11.962  0.1859  0.5496  0.2706
14666TIP3    H165413   1.171   2.535  11.897 -0.3141 -0.3237 -0.7611
14666TIP3    H265414   1.043   2.455  11.912  0.5375 -1.4109  1.0992
14667TIP3   OH265415   5.589   3.548   3.257  0.0429 -0.2903 -0.1703
14667TIP3    H165416   5.519   3.574   3.197 -0.9141 -0.0114  1.0337
14667TIP3    H265417   5.613   3.629   3.302 -0.3594 -0.7680  0.9360
14668TIP3   OH265418   3.433   5.728  16.975 -0.1970 -0.0472 -0.0373
14668TIP3    H165419   3.425   5.753  16.883 -0.8924  3.7179  0.8977
14668TIP3    H265420   3.456   5.809  17.020  0.4387 -1.8242  3.1212
14669TIP3   OH265421   2.741   1.287   4.382 -0.3755 -0.3059  0.2284
14669TIP3    H165422   2.777   1.364   4.424 -1.1675  0.6873 -0.8383
14669TIP3    H265423   2.698   1.320   4.303  0.8731 -2.0463 -1.2821
14670TIP3   OH265424   1.648   3.444  12.948 -0.0794 -0.1422 -0.3333
14670TIP3    H165425   1.610   3.531  12.946 -2.1156 -0.9622 -0.1734
14670TIP3    H265426   1.697   3.436  12.865 -1.5981  0.4416 -1.3245
14671TIP3   OH265427   2.027   4.747   4.401 -0.0953  0.5835 -0.2105
14671TIP3    H165428   2.051   4.839   4.393  0.5046  0.3648 -1.0921
14671TIP3    H265429   2.093   4.710   4.460 -0.2498  0.6923  0.0282
14672TIP3   OH265430   2.653   6.701  16.752  0.4935  0.2580  0.7246
14672TIP3    H165431   2.621   6.635  16.814 -1.2097  0.0731 -0.2929
14672TIP3    H265432   2.650   6.658  16.667  1.5319  0.9424  0.3172
14673TIP3   OH265433   2.894   2.352  16.689  0.3506  0.7014  0.0698
14673TIP3    H165434   2.824   2.353  16.624 -0.2198 -4.0879  0.2453
14673TIP3    H265435   2.850   2.372  16.772 -0.2794  0.2928 -0.1609
14674TIP3   OH265436   0.982   1.278   0.538  0.2058  0.0365  0.5459
14674TIP3    H165437   0.968   1.359   0.588 -1.8563 -0.1964  0.4671
14674TIP3    H265438   0.893   1.250   0.514  0.9457 -1.6677 -0.3648
14675TIP3   OH265439   5.286   0.176  14.364 -0.2168  0.3153 -0.3150
14675TIP3    H165440   5.250   0.264  14.355 -0.2395  0.2377 -1.0172
14675TIP3    H265441   5.294   0.144  14.275  0.0199 -0.3069 -0.0759
14676TIP3   OH265442   2.332   5.144  13.570  0.3995 -0.1656 -0.0178
14676TIP3    H165443   2.300   5.121  13.657  0.6669  0.0129  0.1305
14676TIP3    H265444   2.330   5.062  13.521 -2.3385  0.2261 -0.6858
14677TIP3   OH265445   1.768   5.407   4.598  0.1585 -0.5141  0.0948
14677TIP3    H165446   1.716   5.359   4.662 -0.4515  1.8766  1.5425
14677TIP3    H265447   1.702   5.449   4.541  0.3829  1.9999  1.5305
14678TIP3   OH265448   5.657   0.153   1.489  0.6507 -0.0347 -0.0812
14678TIP3    H165449   5.646   0.247   1.481  1.1393 -0.0636 -1.4695
14678TIP3    H265450   5.582   0.115   1.444 -0.3530 -0.3624  1.7587
14679TIP3   OH265451   2.920   4.528   2.077  0.1492  0.1491 -0.1809
14679TIP3    H165452   2.918   4.615   2.116 -0.4132  0.6074 -1.1804
14679TIP3    H265453   2.961   4.472   2.144 -0.7926  0.8833  1.0523
14680TIP3   OH265454   3.374   3.917   0.090 -0.0945  0.0451  0.0751
14680TIP3    H165455   3.344   3.841   0.040 -1.6886 -1.4838  3.0984
14680TIP3    H265456   3.294   3.962   0.114  0.4553 -0.1445  2.4622
14681TIP3   OH265457   1.343   4.856   4.143  0.2600 -0.2563 -0.1093
14681TIP3    H165458   1.324   4.949   4.154 -0.0101 -0.4350  1.1476
14681TIP3    H265459   1.429   4.845   4.184  0.8610 -0.3426 -1.3690
14682TIP3   OH265460   1.744   5.971  16.268 -0.6328 -0.5600  0.1654
14682TIP3    H165461   1.808   5.998  16.334  0.0392  0.4666 -0.8741
14682TIP3    H265462   1.663   5.960  16.317  0.5321 -3.0524  1.7424
14683TIP3   OH265463   2.390   4.003  16.070 -0.6090 -0.0579  0.0830
14683TIP3    H165464   2.335   3.933  16.037 -0.7564 -0.6591  1.5325
14683TIP3    H265465   2.328   4.068  16.105 -0.4507  0.3528 -0.3931
14684TIP3   OH265466   3.960   2.992  13.526 -0.2413  0.2609 -0.1252
14684TIP3    H165467   4.004   3.052  13.585 -1.0382  1.2094 -0.4709
14684TIP3    H265468   3.968   2.906  13.568 -2.9176  1.2215  2.6537
14685TIP3   OH265469   6.293   5.751   2.774 -0.3740 -0.0729 -0.0798
14685TIP3    H165470   6.381   5.783   2.790 -0.3106 -0.0388 -0.4729
14685TIP3    H265471   6.283   5.755   2.679 -1.6952  2.3265  0.0775
14686TIP3   OH265472   5.266   3.637   3.219  0.5003 -0.4551 -0.2676
14686TIP3    H165473   5.195   3.702   3.221  1.5406  0.8171 -1.6991
14686TIP3    H265474   5.277   3.610   3.310 -2.3022 -1.2710 -0.0897
14687TIP3   OH265475   2.594   3.787  17.143 -0.2553  0.5613  0.1187
14687TIP3    H165476   2.500   3.783  17.157 -0.3847  2.5419  0.0778
14687TIP3    H265477   2.624   3.697  17.157 -2.2598 -0.3159 -0.8482
14688TIP3   OH265478   0.189   1.315  17.192 -0.1451  0.1366 -0.0103
14688TIP3    H165479   0.165   1.247  17.129  0.9004 -0.5447  0.2982
14688TIP3    H265480   0.202   1.393  17.138 -1.0166  0.0130 -0.4091
14689TIP3   OH265481   1.452   0.706  15.115 -0.3091 -0.5062  0.1116
14689TIP3    H165482   1.466   0.612  15.114  0.5836 -0.4123 -1.7145
14689TIP3    H265483   1.477   0.735  15.027 -1.5365  1.3020  0.2903
14690TIP3   OH265484   1.476   1.225   4.163  0.7133 -0.4553  0.3218
14690TIP3    H165485   1.424   1.306   4.162  0.4634 -0.6169  0.0997
14690TIP3    H265486   1.556   1.249   4.210  0.4584 -0.1908  0.6279
14691TIP3   OH265487   5.826   1.989  14.568  0.1111 -0.5250  0.6277
14691TIP3    H165488   5.804   1.965  14.478 -1.4611  0.5996  0.6713
14691TIP3    H265489   5.914   1.953  14.582 -0.4972 -2.6472 -0.5950
14692TIP3   OH265490   4.062   3.168  12.626  0.3380  0.4075  0.2054
14692TIP3    H165491   4.119   3.227  12.577  1.5999  0.5793  1.7990
14692TIP3    H265492   4.117   3.136  12.698 -0.8120 -1.4354  0.3323
14693TIP3   OH265493   6.770   5.449   2.921 -0.8635  0.7014 -0.5440
14693TIP3    H165494   6.822   5.387   2.871 -1.9552 -0.7634  0.0513
14693TIP3    H265495   6.834   5.506   2.964  0.1671  0.0739 -1.2077
14694TIP3   OH265496   2.517   0.097  13.322 -0.8944  0.7298 -0.0058
14694TIP3    H165497   2.514   0.083  13.417  0.3804  0.1035 -0.0376
14694TIP3    H265498   2.564   0.021  13.288  1.5377  2.4549 -0.7794
14695TIP3   OH265499   3.014   3.658  16.481 -0.0713 -0.4194 -0.0492
14695TIP3    H165500   3.069   3.737  16.484 -0.4683 -0.1637  2.0643
14695TIP3    H265501   2.978   3.658  16.392  1.8446  0.4182 -0.9093
14696TIP3   OH265502   2.508   3.002   1.724  0.3087  0.1215  0.0144
14696TIP3    H165503   2.417   3.019   1.702  0.7229  1.3698 -0.8385
14696TIP3    H265504   2.557   3.074   1.684  1.5261  0.3028  1.7063
14697TIP3   OH265505   5.080   6.114   1.369 -0.2736  0.0498  0.0516
14697TIP3    H165506   5.095   6.047   1.435  2.3350  0.5748  0.1026
14697TIP3    H265507   5.080   6.197   1.417 -0.4569  0.3011 -0.3679
14698TIP3   OH265508   2.650   4.296  14.074 -0.0990  0.8177 -0.0446
14698TIP3    H165509   2.699   4.360  14.127 -0.4102  3.6476 -2.9301
14698TIP3    H265510   2.715   4.228  14.055  1.0530  1.6008  0.8729
14699TIP3   OH265511   6.001   3.255  14.626  0.6068  0.0788 -0.1395
14699TIP3    H165512   6.089   3.217  14.617 -0.1958 -1.7461 -0.6868
14699TIP3    H265513   5.981   3.289  14.539  1.2545  1.6661  0.3073
14700TIP3   OH265514   3.566   0.984  12.545 -0.2637 -0.3824  0.2440
14700TIP3    H165515   3.595   1.073  12.563 -0.5447  0.1327 -1.6271
14700TIP3    H265516   3.494   0.969  12.606 -0.1847  0.6659  0.6005
14701TIP3   OH265517   4.513   2.396  15.607 -0.4989 -0.4992 -0.0842
14701TIP3    H165518   4.572   2.456  15.562 -1.9445  0.5154 -0.7023
14701TIP3    H265519   4.429   2.442  15.609 -0.9064 -1.2031  2.2222
14702TIP3   OH265520   3.589   5.233   0.977  0.9319  0.4807  0.1739
14702TIP3    H165521   3.548   5.318   0.960 -1.5982  0.0072  2.9559
14702TIP3    H265522   3.554   5.176   0.909 -2.5148  0.3659  1.8031
14703TIP3   OH265523   3.863   0.465  15.206  0.6280  0.3559 -0.0794
14703TIP3    H165524   3.785   0.414  15.184  1.4671 -0.1202 -2.1858
14703TIP3    H265525   3.889   0.434  15.293  0.0283 -1.4379 -0.5135
14704TIP3   OH265526   3.017   4.820  15.910  0.5127  0.0344 -0.6223
14704TIP3    H165527   3.072   4.837  15.986  2.6345 -2.5515 -1.4176
14704TIP3    H265528   2.929   4.843  15.938  1.4093  0.5059  2.1069
14705TIP3   OH265529   2.066   6.311   3.038  0.5535 -0.5140  0.2802
14705TIP3    H165530   2.015   6.233   3.016  1.2181 -0.8157 -0.2059
14705TIP3    H265531   2.009   6.360   3.098 -1.8824  0.9821 -2.9720
14706TIP3   OH265532   2.461   1.029  15.559  0.5550  0.0527  0.3579
14706TIP3    H165533   2.380   0.981  15.570 -0.1716  1.1613 -0.0057
14706TIP3    H265534   2.508   1.017  15.642  1.0209 -2.3312 -0.1623
14707TIP3   OH265535   3.632   0.880  14.356 -1.1296 -0.0413 -0.4054
14707TIP3    H165536   3.628   0.933  14.435 -0.9556  0.5469 -0.7868
14707TIP3    H265537   3.541   0.858  14.336 -1.1322 -0.6692  0.2719
14708TIP3   OH265538   2.272   4.313  14.748  0.1703 -0.4362  0.6269
14708TIP3    H165539   2.198   4.296  14.690 -1.3097  1.4501  1.8277
14708TIP3    H265540   2.260   4.404  14.777  3.8035  0.4750 -0.2506
14709TIP3   OH265541   5.939   2.292  13.473  0.4274  0.3993  0.0398
14709TIP3    H165542   5.871   2.282  13.540 -1.3003  1.4360 -1.4681
14709TIP3    H265543   5.968   2.203  13.456 -0.5187 -0.0771  0.7678
14710TIP3   OH265544   0.779   3.882   5.798 -0.6530 -0.1961 -0.3584
14710TIP3    H165545   0.693   3.908   5.764 -0.3305  2.7412  0.7626
14710TIP3    H265546   0.831   3.962   5.795  1.6548 -1.5908  0.2121
14711TIP3   OH265547   3.172   1.320  11.308  0.1014 -0.3509 -0.0631
14711TIP3    H165548   3.171   1.376  11.231 -1.3075  0.7338  0.6921
14711TIP3    H265549   3.081   1.291  11.319  0.4543 -1.2695  0.6465
14712TIP3   OH265550   3.439   3.600   3.343  0.2534 -0.0957 -0.2494
14712TIP3    H165551   3.424   3.512   3.378  0.8944  0.3413  1.1983
14712TIP3    H265552   3.534   3.607   3.337  0.1913  0.3871 -0.6677
14713TIP3   OH265553   1.496   3.211   4.684 -0.4337 -0.1168  0.2616
14713TIP3    H165554   1.511   3.278   4.750  1.6950  0.5716 -0.8259
14713TIP3    H265555   1.545   3.135   4.715 -2.0079 -0.8829  0.9836
14714TIP3   OH265556   5.938   1.811  11.366  0.0302  0.2433 -0.3447
14714TIP3    H165557   6.010   1.770  11.319  0.2389 -1.3348  1.2735
14714TIP3    H265558   5.956   1.793  11.458 -0.5817  2.8752  0.3721
14715TIP3   OH265559   5.018   2.501   0.173  0.3567  0.1236 -0.4296
14715TIP3    H165560   4.997   2.594   0.168 -0.4315  0.0555  0.9085
14715TIP3    H265561   5.108   2.498   0.207  0.4325  0.3888 -0.6063
14716TIP3   OH265562   4.350   0.126   3.458  0.1225 -0.2532  0.5536
14716TIP3    H165563   4.406   0.151   3.384 -0.3495  2.0132  0.8910
14716TIP3    H265564   4.408   0.127   3.534  0.0731 -0.0448  0.5887
14717TIP3   OH265565   6.787   6.370  15.973  0.1658  0.6601  0.0560
14717TIP3    H165566   6.845   6.335  15.906  1.9439  1.8738  0.8871
14717TIP3    H265567   6.699   6.340  15.947  1.1935 -1.8540 -0.8475
14718TIP3   OH265568   2.317   2.313   3.888  0.0782  0.4239  0.3280
14718TIP3    H165569   2.344   2.344   3.802  0.7193 -2.4893 -0.6355
14718TIP3    H265570   2.393   2.328   3.944  1.7974 -2.4733 -0.9952
14719TIP3   OH265571   2.737   2.639   0.922 -0.1802 -0.0025 -0.0778
14719TIP3    H165572   2.757   2.553   0.886 -0.5512 -0.6926  1.2799
14719TIP3    H265573   2.649   2.659   0.892 -1.7363 -1.9507  2.7765
14720TIP3   OH265574   1.755   6.345   5.606  0.1984  0.4805  0.1527
14720TIP3    H165575   1.781   6.305   5.523  1.0617  1.8303 -0.2724
14720TIP3    H265576   1.815   6.308   5.671  0.8432  0.9000 -0.1945
14721TIP3   OH265577   4.545   4.182  15.952 -0.1868  0.0538 -0.8567
14721TIP3    H165578   4.457   4.177  15.989 -0.2759  2.3514 -0.6553
14721TIP3    H265579   4.543   4.257  15.893  1.7438  0.4036 -0.5619
14722TIP3   OH265580   6.137   4.063   0.725  0.3918 -0.0797 -0.0518
14722TIP3    H165581   6.231   4.051   0.737  0.3260  0.1793  0.7536
14722TIP3    H265582   6.129   4.147   0.679  0.5229  0.2951  0.5976
14723TIP3   OH265583   1.655   1.519  15.370  0.2139  0.4487  0.3195
14723TIP3    H165584   1.691   1.453  15.312 -1.2312 -1.3612  1.3818
14723TIP3    H265585   1.593   1.568  15.316  0.5769  0.3003 -0.2355
14724TIP3   OH265586   1.022   4.365  13.450 -0.0102  0.3812 -0.1347
14724TIP3    H165587   0.947   4.306  13.466  0.1069  0.3236  0.2104
14724TIP3    H265588   1.070   4.364  13.532  0.0508  0.8843 -0.1643
14725TIP3   OH265589   0.277   0.301  14.134 -0.3487 -0.2826  0.2185
14725TIP3    H165590   0.253   0.288  14.226  2.9241 -0.2737  1.1995
14725TIP3    H265591   0.294   0.212  14.101 -0.3963 -0.2004 -0.0291
14726TIP3   OH265592   5.533   4.246   3.547  0.8919  0.0023  0.3339
14726TIP3    H165593   5.516   4.239   3.641 -0.7778 -1.5571 -0.0314
14726TIP3    H265594   5.545   4.340   3.533 -2.6819  0.8311  1.5748
14727TIP3   OH265595   2.426   5.690  14.115  0.2306  0.5322 -0.0669
14727TIP3    H165596   2.363   5.762  14.107  0.4673  0.6327 -1.2000
14727TIP3    H265597   2.471   5.707  14.198  1.9108  3.0473 -1.3722
14728TIP3   OH265598   5.379   5.321  15.342 -0.6819  0.5894  0.3367
14728TIP3    H165599   5.365   5.334  15.436 -1.4875 -1.7516  0.5909
14728TIP3    H265600   5.310   5.372  15.300 -2.8583 -1.4590  1.2102
14729TIP3   OH265601   3.758   3.866  16.901  0.3191 -0.5220  0.7167
14729TIP3    H165602   3.679   3.813  16.912  0.5833 -1.2436 -0.7299
14729TIP3    H265603   3.735   3.931  16.834  0.7392 -0.2785  0.8003
14730TIP3   OH265604   1.595   6.070   5.308 -0.1878  0.1608  0.3707
14730TIP3    H165605   1.508   6.034   5.326 -0.4874 -0.1489 -1.5503
14730TIP3    H265606   1.582   6.165   5.309 -0.4236  0.1284  0.6514
14731TIP3   OH265607   2.684   4.746   3.450  0.0130  0.3255 -0.1767
14731TIP3    H165608   2.736   4.675   3.412  1.0050  0.9311  0.0124
14731TIP3    H265609   2.731   4.826   3.425 -1.3704  0.9652 -0.8472
14732TIP3   OH265610   6.608   1.861   2.758 -0.2922  0.2675  0.3149
14732TIP3    H165611   6.590   1.876   2.665  0.4795  0.1625  0.1422
14732TIP3    H265612   6.696   1.823   2.760 -0.6640 -0.5977  1.0243
14733TIP3   OH265613   3.170   0.342   1.851 -0.1080  0.0076  0.7536
14733TIP3    H165614   3.086   0.297   1.865 -0.5430  0.8561  0.9911
14733TIP3    H265615   3.235   0.272   1.846 -1.0079 -0.7605 -0.8267
14734TIP3   OH265616   3.501   1.957   0.313 -0.3693  0.0107 -0.2126
14734TIP3    H165617   3.432   2.013   0.276 -1.9187 -1.0844  0.8914
14734TIP3    H265618   3.555   2.017   0.364 -0.7547  0.8220 -0.7273
14735TIP3   OH265619   2.439   6.509  12.443  0.7870 -0.4071  0.4451
14735TIP3    H165620   2.479   6.422  12.447  1.0296 -0.2527  1.9557
14735TIP3    H265621   2.455   6.547  12.529 -0.3504  0.6816  0.2085
14736TIP3   OH265622   5.884   1.428   1.899  0.3151  0.4883  0.5832
14736TIP3    H165623   5.976   1.438   1.876  0.3901 -1.0612  0.1636
14736TIP3    H265624   5.885   1.387   1.986  0.0085  0.6756  0.6790
14737TIP3   OH265625   2.301   0.681  11.433  0.1766  0.0184 -0.4320
14737TIP3    H165626   2.271   0.631  11.509 -0.1410  1.6840  0.5929
14737TIP3    H265627   2.394   0.660  11.426  0.1381 -0.4169  0.2395
14738TIP3   OH265628   5.206   3.408  15.705 -0.2385 -0.6111  0.5034
14738TIP3    H165629   5.181   3.500  15.718 -1.1755 -0.7084 -0.4922
14738TIP3    H265630   5.123   3.361  15.700  0.2000 -1.3045 -0.5257
14739TIP3   OH265631   1.142   0.496  13.182 -0.4790  0.5198 -0.1945
14739TIP3    H165632   1.225   0.540  13.163  0.8242 -1.7922 -0.2360
14739TIP3    H265633   1.156   0.451  13.265 -1.9868  0.6874  0.1937
14740TIP3   OH265634   2.085   6.476  15.984  0.3382 -0.4110 -0.1360
14740TIP3    H165635   2.019   6.410  15.961  1.4173 -1.0604 -1.5476
14740TIP3    H265636   2.042   6.559  15.965 -0.1625 -0.8089 -0.8415
14741TIP3   OH265637   5.866   2.345   2.172 -0.0773  0.8804  0.0524
14741TIP3    H165638   5.897   2.351   2.263 -2.4569 -0.4353  1.0300
14741TIP3    H265639   5.828   2.431   2.155  0.1057  1.0378  0.4055
14742TIP3   OH265640   5.860   4.601   4.260 -0.0985  0.0191 -0.0207
14742TIP3    H165641   5.885   4.634   4.174 -1.0318  0.4935 -0.1177
14742TIP3    H265642   5.797   4.664   4.293 -1.2611 -1.1920  0.1686
14743TIP3   OH265643   0.793   3.568   5.159 -0.2211 -0.1498  0.0290
14743TIP3    H165644   0.792   3.663   5.171 -0.2802 -0.2865  1.3135
14743TIP3    H265645   0.786   3.555   5.065  0.6068  1.1344 -0.2300
14744TIP3   OH265646   6.520   1.017  16.118 -0.2861 -0.6345  0.0731
14744TIP3    H165647   6.537   0.953  16.049  0.4784 -0.5119  0.1317
14744TIP3    H265648   6.430   1.001  16.145 -0.0284 -1.8436  0.2594
14745TIP3   OH265649   3.357   5.004  14.364 -0.3557 -0.1824  0.8059
14745TIP3    H165650   3.304   5.019  14.442 -0.6449 -0.8704  0.7420
14745TIP3    H265651   3.298   5.026  14.291 -0.7157 -1.3867  0.7177
14746TIP3   OH265652   5.360   6.501   2.019  0.7561  0.3888  0.0055
14746TIP3    H165653   5.425   6.433   1.999  0.9805  0.5919  0.0448
14746TIP3    H265654   5.304   6.461   2.086  0.8278  0.2066 -0.0411
14747TIP3   OH265655   5.086   0.641   4.479 -0.6143 -0.4179 -0.3489
14747TIP3    H165656   5.027   0.616   4.408 -0.1916 -0.9206 -0.5341
14747TIP3    H265657   5.169   0.659   4.435 -0.9525  1.5579 -0.2441
14748TIP3   OH265658   1.036   1.736  16.059 -0.2724  0.2030 -0.0998
14748TIP3    H165659   1.055   1.827  16.037  0.0111  0.4406  1.0535
14748TIP3    H265660   1.091   1.718  16.135  3.1167 -2.2773 -2.7947
14749TIP3   OH265661   2.346   4.903   0.801 -0.4484 -0.2380  0.2162
14749TIP3    H165662   2.362   4.959   0.876 -0.7041  0.2793 -0.1098
14749TIP3    H265663   2.429   4.859   0.786 -0.6254 -0.9932  1.3185
14750TIP3   OH265664   6.565   1.034  10.490  0.0912 -0.1532  0.1422
14750TIP3    H165665   6.566   1.069  10.402  1.1418  1.7328  0.8406
14750TIP3    H265666   6.651   0.993  10.501 -0.3129 -1.0387  0.0543
14751TIP3   OH265667   6.504   1.753  15.208 -0.1297  0.7936 -0.3304
14751TIP3    H165668   6.443   1.711  15.269  0.1558  0.9713  0.0847
14751TIP3    H265669   6.471   1.730  15.121 -0.3035  0.1886 -0.1106
14752TIP3   OH265670   5.406   6.121  13.599  0.1993  0.3999  0.5620
14752TIP3    H165671   5.475   6.054  13.597 -0.3346 -0.1466 -0.8164
14752TIP3    H265672   5.427   6.179  13.526 -0.1513  0.9063  0.8633
14753TIP3   OH265673   5.801   5.526   3.931 -0.0559  0.2780  0.0963
14753TIP3    H165674   5.725   5.545   3.875  2.3737  2.8791 -2.6671
14753TIP3    H265675   5.855   5.467   3.879  0.4438 -0.6138  1.5495
14754TIP3   OH265676   4.798   2.693  16.901  0.2432 -0.1335 -0.3672
14754TIP3    H165677   4.730   2.634  16.934 -0.6292  1.2222  0.3359
14754TIP3    H265678   4.844   2.722  16.979  0.1948  0.6610 -0.6234
14755TIP3   OH265679   2.800   3.560  14.981  0.2075  0.1131  0.1285
14755TIP3    H165680   2.837   3.606  15.057  1.6112 -1.2222  0.2990
14755TIP3    H265681   2.741   3.624  14.941  1.5013  1.7994  0.7921
14756TIP3   OH265682   5.191   0.967   4.750 -0.1404 -0.0115  0.0868
14756TIP3    H165683   5.122   1.032   4.737  0.0434  0.1379 -0.1447
14756TIP3    H265684   5.171   0.928   4.835  0.0430  0.7227  0.4781
14757TIP3   OH265685   3.647   6.603   4.887 -0.1019 -0.1479 -0.0146
14757TIP3    H165686   3.623   6.511   4.876  0.1318 -0.1194 -0.7967
14757TIP3    H265687   3.726   6.614   4.834  1.7675 -0.2565  2.5387
14758TIP3   OH265688   1.676   6.170  16.788  0.2598  0.1845 -0.4639
14758TIP3    H165689   1.596   6.142  16.831  0.9776 -1.0425  0.1275
14758TIP3    H265690   1.663   6.149  16.695  0.1862 -0.7004 -0.2552
14759TIP3   OH265691   3.882   3.983   1.611 -0.2774  0.0957  0.5521
14759TIP3    H165692   3.828   4.059   1.632  0.7212  0.5859  1.4873
14759TIP3    H265693   3.921   3.958   1.695 -2.1892 -2.7878  0.7197
14760TIP3   OH265694   1.642   3.934   0.533  0.2496  0.1467 -0.0894
14760TIP3    H165695   1.562   3.984   0.515 -0.7181 -1.3169 -0.0267
14760TIP3    H265696   1.705   3.966   0.469 -0.5290  1.0050 -0.4481
14761TIP3   OH265697   1.378   3.677   4.593 -0.7120 -0.4867  0.3451
14761TIP3    H165698   1.341   3.703   4.678  0.6976 -0.9086  1.1259
14761TIP3    H265699   1.472   3.695   4.602 -0.7530  1.1232 -1.7715
14762TIP3   OH265700   1.107   3.049   2.330  0.4904 -0.3734 -0.2494
14762TIP3    H165701   1.120   3.132   2.376  0.2092  0.1709 -1.1223
14762TIP3    H265702   1.025   3.062   2.282 -0.3211 -1.6820  0.7247
14763TIP3   OH265703   2.532   1.164   2.010  0.4962  0.3908 -0.1644
14763TIP3    H165704   2.506   1.235   2.069 -0.9454  0.2069 -0.5465
14763TIP3    H265705   2.496   1.085   2.050  0.6790  0.0883 -0.5894
14764TIP3   OH265706   0.069   4.593   3.359  0.4854  0.1606  0.1674
14764TIP3    H165707   0.158   4.588   3.395  0.1184  0.4143  1.1457
14764TIP3    H265708   0.037   4.502   3.362  1.0012 -0.0733 -0.9827
14765TIP3   OH265709   1.025   2.169   2.532  0.0098 -0.4645  0.0614
14765TIP3    H165710   1.079   2.096   2.506 -1.2934 -1.0884 -1.0101
14765TIP3    H265711   0.958   2.176   2.464 -0.4252  1.1583  0.5953
14766TIP3   OH265712   2.814   5.155   5.754 -0.4081 -0.7300  0.2654
14766TIP3    H165713   2.773   5.191   5.833 -0.3796  1.6463 -0.7140
14766TIP3    H265714   2.901   5.127   5.784 -0.1233  0.7843  1.0031
14767TIP3   OH265715   5.998   3.012  14.093  0.1220 -0.3140  0.3136
14767TIP3    H165716   6.010   2.917  14.092  3.7831  0.0018  1.7076
14767TIP3    H265717   6.031   3.041  14.008  0.7129 -0.1508  0.5976
14768TIP3   OH265718   6.781   1.520   0.107 -0.0929 -0.1337  0.5104
14768TIP3    H165719   6.836   1.468   0.048  3.9206 -0.1828  3.8724
14768TIP3    H265720   6.810   1.610   0.094  0.0382 -0.0115  1.5921
14769TIP3   OH265721   2.631   3.753  13.122 -0.4606 -0.0324  0.7615
14769TIP3    H165722   2.721   3.786  13.130 -1.2927  2.7652 -0.1964
14769TIP3    H265723   2.600   3.790  13.039 -2.4857 -0.9975  1.0390
14770TIP3   OH265724   2.069   5.621  15.482  0.2907 -0.9070  0.1148
14770TIP3    H165725   2.102   5.592  15.567 -0.2068  0.9683  1.0018
14770TIP3    H265726   2.146   5.622  15.425  1.1294  0.1506  1.2253
14771TIP3   OH265727   0.967   2.047   1.862  0.0056 -0.1353  0.8007
14771TIP3    H165728   1.004   2.135   1.852 -0.6456  0.2646  1.7820
14771TIP3    H265729   0.966   2.031   1.956  0.1560 -1.2253  0.6319
14772TIP3   OH265730   4.870   4.355   6.208 -0.7645 -0.7236  0.5157
14772TIP3    H165731   4.935   4.314   6.266 -2.4414 -2.6878  1.1200
14772TIP3    H265732   4.821   4.282   6.172 -1.0555  0.5799 -1.9107
14773TIP3   OH265733   3.203   3.853   4.628 -0.1908  0.9446  0.2508
14773TIP3    H165734   3.140   3.897   4.684 -1.5642 -0.8019  0.1724
14773TIP3    H265735   3.260   3.806   4.689  0.5690  1.8891  0.2893
14774TIP3   OH265736   4.957   0.584  11.668  0.7103 -0.6741 -0.7394
14774TIP3    H165737   4.918   0.516  11.613 -1.6216 -0.5913  0.6694
14774TIP3    H265738   5.027   0.539  11.715 -1.6372 -2.6721  1.1935
14775TIP3   OH265739   3.492   0.050  11.080  0.0223 -0.1265  0.0807
14775TIP3    H165740   3.476   0.099  10.999  0.7137 -1.1360 -0.6852
14775TIP3    H265741   3.463   0.109  11.149 -0.3072  0.8797 -0.8829
14776TIP3   OH265742   2.051   4.049   5.795 -0.1760 -0.1207 -0.8008
14776TIP3    H165743   2.080   4.095   5.874  0.2034 -1.7584  0.0460
14776TIP3    H265744   2.115   4.075   5.728  1.4942 -1.2707  0.2724
14777TIP3   OH265745   1.774   2.051   0.984  0.1531  0.2918 -0.2495
14777TIP3    H165746   1.725   2.062   1.065  0.5291 -0.5367  0.0988
14777TIP3    H265747   1.849   1.996   1.007 -1.4888 -2.8201 -1.7927
14778TIP3   OH265748   2.368   2.118   4.719  0.0983 -0.8290  0.1454
14778TIP3    H165749   2.374   2.171   4.799  1.1599 -0.5964 -0.0706
14778TIP3    H265750   2.343   2.181   4.651 -1.0175 -1.0658  0.3195
14779TIP3   OH265751   0.927   4.443   1.438 -0.2960  0.0685  0.5840
14779TIP3    H165752   0.880   4.526   1.440  0.2074  0.5374 -2.1097
14779TIP3    H265753   0.966   4.440   1.350  0.2913 -2.6962  0.8385
14780TIP3   OH265754   6.719   6.326   5.562 -0.3766 -0.0784 -0.4107
14780TIP3    H165755   6.658   6.321   5.636 -0.1578  0.5935 -0.1755
14780TIP3    H265756   6.701   6.411   5.523  0.5982  0.2473 -0.1714
14781TIP3   OH265757   5.569   2.589  14.023  0.1765 -0.0167 -0.6828
14781TIP3    H165758   5.489   2.592  14.075 -0.7388 -1.2158 -1.9188
14781TIP3    H265759   5.539   2.592  13.932  1.5273 -0.5497 -1.1850
14782TIP3   OH265760   4.241   2.367  13.586 -0.2020 -0.1385 -0.6205
14782TIP3    H165761   4.289   2.436  13.540 -0.7466  0.8819  0.2748
14782TIP3    H265762   4.230   2.298  13.521 -0.6042  1.0878 -1.9114
14783TIP3   OH265763   1.341   5.546   1.568 -0.5174  0.5023  0.4316
14783TIP3    H165764   1.405   5.500   1.514 -0.3087  1.1820  0.0791
14783TIP3    H265765   1.345   5.504   1.653 -0.0560  0.1286  0.2277
14784TIP3   OH265766   3.502   4.006   1.523 -0.0281 -0.2980  0.2466
14784TIP3    H165767   3.508   3.947   1.447 -0.8717 -0.9199  0.6481
14784TIP3    H265768   3.408   4.018   1.537  0.0987 -0.7217  1.5841
14785TIP3   OH265769   2.940   5.655  11.773 -0.6222 -0.3310 -0.0731
14785TIP3    H165770   2.875   5.720  11.803 -1.1756 -0.7623 -0.3114
14785TIP3    H265771   2.899   5.571  11.793  0.5326 -0.6288  1.1685
14786TIP3   OH265772   5.172   4.054   3.052 -0.0583 -0.1703 -0.1885
14786TIP3    H165773   5.210   4.013   3.129 -0.9722  0.1422  0.4344
14786TIP3    H265774   5.237   4.120   3.026  0.4005 -0.5004  0.1010
14787TIP3   OH265775   6.611   4.397  13.517  0.1205 -0.2585  0.5144
14787TIP3    H165776   6.658   4.401  13.600 -1.7061 -0.7235  1.6257
14787TIP3    H265777   6.616   4.487  13.483  0.7265 -0.0145  1.2030
14788TIP3   OH265778   4.357   3.733   3.081 -0.3342 -0.2553  0.8150
14788TIP3    H165779   4.270   3.772   3.082 -0.5153 -0.4039 -1.7583
14788TIP3    H265780   4.409   3.788   3.139 -1.5173  1.4277  0.3410
14789TIP3   OH265781   3.624   1.311   3.166 -0.9779  0.1289 -0.1829
14789TIP3    H165782   3.643   1.400   3.135 -1.7795  0.3492 -0.0459
14789TIP3    H265783   3.613   1.260   3.086 -0.1174  0.0580 -0.2652
14790TIP3   OH265784   5.053   0.691  17.122 -0.8930  0.5950  0.6566
14790TIP3    H165785   5.124   0.755  17.127 -1.1250  0.9596 -0.4022
14790TIP3    H265786   5.007   0.713  17.041 -0.6888 -1.1918 -0.0008
14791TIP3   OH265787   6.559   2.409   2.084 -0.4751 -0.2940  0.4964
14791TIP3    H165788   6.639   2.361   2.060 -2.6438 -3.8535 -0.3267
14791TIP3    H265789   6.561   2.413   2.179  0.3236 -1.0058  0.5200
14792TIP3   OH265790   4.411   4.529  14.068  0.4078 -0.2773 -0.6956
14792TIP3    H165791   4.320   4.541  14.095  0.7228  1.9177 -0.4189
14792TIP3    H265792   4.406   4.471  13.992 -1.2408 -0.0672 -0.7811
14793TIP3   OH265793   1.294   3.857   2.118 -0.2274 -0.1758  0.5905
14793TIP3    H165794   1.213   3.901   2.143  0.5060  0.1955  2.4582
14793TIP3    H265795   1.299   3.781   2.176  0.3769 -0.6379 -0.0502
14794TIP3   OH265796   5.585   1.202   2.228 -0.1268 -0.0815  0.0654
14794TIP3    H165797   5.585   1.110   2.255 -0.2932 -0.6342 -1.6786
14794TIP3    H265798   5.654   1.206   2.162  0.2278  1.1792  0.4996
14795TIP3   OH265799   0.989   3.018   3.508  0.5173  0.0456  0.1204
14795TIP3    H165800   1.070   3.008   3.557  1.0432  1.6091 -0.3733
14795TIP3    H265801   0.997   2.959   3.434  1.1171  0.0401  0.1912
14796TIP3   OH265802   5.626   6.589   3.675  0.1361 -0.9214  0.1492
14796TIP3    H165803   5.632   6.526   3.603  2.0347  0.1311 -0.6898
14796TIP3    H265804   5.712   6.584   3.718 -0.1170  0.1846  0.8205
14797TIP3   OH265805   2.240   2.431  13.017 -0.3866  0.4407  0.4249
14797TIP3    H165806   2.298   2.365  13.054 -0.8051 -0.3280 -0.2376
14797TIP3    H265807   2.152   2.392  13.023 -0.3949 -0.1011 -2.0575
14798TIP3   OH265808   1.244   4.150  12.835 -0.6442  0.4244 -0.5001
14798TIP3    H165809   1.267   4.162  12.928 -3.6891 -1.2574  0.6308
14798TIP3    H265810   1.190   4.226  12.814  0.7384  1.2474 -1.2451
14799TIP3   OH265811   1.121   0.088   0.055  0.1844  0.3870  0.9257
14799TIP3    H165812   1.065   0.161   0.081 -0.2135  0.1094  0.8615
14799TIP3    H265813   1.195   0.129   0.011 -0.1612  0.7376  0.6616
14800TIP3   OH265814   3.931   0.429  13.498  0.0888  0.2051  0.9985
14800TIP3    H165815   3.862   0.372  13.464  0.4182  0.7082 -0.5992
14800TIP3    H265816   3.921   0.425  13.593 -0.7036 -1.4947  0.8789
14801TIP3   OH265817   1.120   5.157   5.015  0.4017 -0.5103 -0.1605
14801TIP3    H165818   1.041   5.118   5.052  0.0996  0.6673  0.4638
14801TIP3    H265819   1.102   5.251   5.013  1.6819 -0.2534 -0.2746
14802TIP3   OH265820   4.751   5.729  14.605  0.3124  0.6314  0.3278
14802TIP3    H165821   4.724   5.647  14.564 -0.6107  0.2920  1.5780
14802TIP3    H265822   4.842   5.714  14.632 -0.3037 -0.5530  1.8999
14803TIP3   OH265823   6.325   4.273  14.736 -0.1556  0.2948 -0.0166
14803TIP3    H165824   6.246   4.253  14.686  0.3262 -0.2643 -0.5767
14803TIP3    H265825   6.297   4.272  14.827 -0.7848  0.0635 -0.2045
14804TIP3   OH265826   1.726   4.071   2.044 -1.3225  0.2828  0.0356
14804TIP3    H165827   1.765   4.014   1.978 -4.3112 -5.0304  2.1504
14804TIP3    H265828   1.792   4.075   2.114 -1.0420 -0.7600 -0.1466
14805TIP3   OH265829   3.294   3.732  13.323 -0.5704  0.7573 -0.1700
14805TIP3    H165830   3.302   3.812  13.374 -0.4853  1.3944 -1.1630
14805TIP3    H265831   3.335   3.665  13.377  0.1533  1.5507  0.2839
14806TIP3   OH265832   4.239   3.133  17.182  0.6888  0.1228  0.0855
14806TIP3    H165833   4.332   3.121  17.200  0.5948 -0.3384  0.3041
14806TIP3    H265834   4.223   3.084  17.102  0.6276  0.1656  0.0708
14807TIP3   OH265835   0.460   4.229  12.555  0.6392  0.7006  0.0344
14807TIP3    H165836   0.407   4.172  12.612  1.2691 -0.5001 -0.5567
14807TIP3    H265837   0.505   4.288  12.616  0.5534  0.0744  0.7207
14808TIP3   OH265838   1.091   1.949   5.414 -0.0337 -0.0006  0.0922
14808TIP3    H165839   1.047   1.901   5.343  0.7865 -1.4389  0.5012
14808TIP3    H265840   1.173   1.901   5.427  0.2753  0.8265  1.3553
14809TIP3   OH265841   0.038   5.627   1.092 -0.9980  0.1079 -0.2544
14809TIP3    H165842   0.074   5.656   1.176  1.0662 -0.7856 -0.7709
14809TIP3    H265843  -0.046   5.671   1.086 -1.3665 -0.0566  2.4285
14810TIP3   OH265844   0.106   6.635  12.197  0.3351 -0.6508  0.5416
14810TIP3    H165845   0.036   6.700  12.191  1.9677  1.3575  1.6568
14810TIP3    H265846   0.127   6.613  12.106 -0.7151 -0.1715  0.1668
14811TIP3   OH265847   0.283   4.045   3.518 -0.4861  0.0088 -0.3636
14811TIP3    H165848   0.226   3.989   3.569 -0.6036  1.9916  1.8139
14811TIP3    H265849   0.247   4.133   3.528  1.8941  1.0640 -0.4137
14812TIP3   OH265850   5.047   2.124   1.876 -0.1799 -0.7057 -0.5841
14812TIP3    H165851   5.040   2.044   1.929  1.2177 -0.5997 -0.1916
14812TIP3    H265852   5.137   2.123   1.843 -0.1556  0.6776 -0.6160
14813TIP3   OH265853   4.033   3.913   1.821  0.3623  0.3595  0.2190
14813TIP3    H165854   3.982   3.936   1.899  1.2936  0.5677  0.7855
14813TIP3    H265855   4.099   3.851   1.853  0.4992  0.1329 -0.4853
14814TIP3   OH265856   0.290   6.745   2.835 -0.1654  0.0463  0.0537
14814TIP3    H165857   0.233   6.777   2.765 -0.0167 -0.2842 -0.2218
14814TIP3    H265858   0.367   6.801   2.832 -0.1818  0.0649 -0.0176
14815TIP3   OH265859   2.877   4.304   3.349  0.0672 -0.4139 -0.3411
14815TIP3    H165860   2.932   4.308   3.271  0.4155 -0.8300 -0.1189
14815TIP3    H265861   2.937   4.285   3.421  0.0929  2.1193  0.4149
14816TIP3   OH265862   4.309   2.334   3.372  0.4778 -0.5700 -0.2714
14816TIP3    H165863   4.331   2.415   3.326 -1.7994  0.9422  1.0469
14816TIP3    H265864   4.377   2.325   3.439  1.0638 -0.0345 -0.7856
14817TIP3   OH265865   1.198   5.643  14.661 -0.3159 -0.7349  0.2944
14817TIP3    H165866   1.272   5.615  14.608 -2.2688 -0.6636 -2.7697
14817TIP3    H265867   1.183   5.571  14.722 -0.7803 -3.1920 -2.4845
14818TIP3   OH265868   0.921   5.383   5.199 -0.2397  0.4212  0.4008
14818TIP3    H165869   0.964   5.468   5.191 -0.5949  0.6724  1.0885
14818TIP3    H265870   0.963   5.343   5.275  0.7836 -0.5427 -0.6319
14819TIP3   OH265871   6.217   0.386   5.388 -0.2662  0.3103 -1.0066
14819TIP3    H165872   6.281   0.449   5.355 -1.1733  0.5616 -2.3444
14819TIP3    H265873   6.259   0.349   5.466  1.0693  1.1991 -1.2601
14820TIP3   OH265874   3.634   2.897   5.410  0.7450  0.2578 -0.2516
14820TIP3    H165875   3.546   2.894   5.446  0.0935 -0.0449 -1.7976
14820TIP3    H265876   3.683   2.953   5.471  0.6245 -2.7172  2.9528
14821TIP3   OH265877   2.621   1.294  17.060  0.2587  0.2389 -0.2311
14821TIP3    H165878   2.685   1.361  17.085 -0.1349  0.8661 -0.8370
14821TIP3    H265879   2.668   1.237  16.999  0.9167 -0.7000  1.1104
14822TIP3   OH265880   1.257   0.867   4.743 -0.2266 -0.2758 -0.0710
14822TIP3    H165881   1.218   0.780   4.737 -1.1116  0.1747 -1.5336
14822TIP3    H265882   1.235   0.898   4.831 -1.9378 -0.6255 -0.3469
14823TIP3   OH265883   2.876   4.359  16.689  0.0885  0.8152  0.1708
14823TIP3    H165884   2.802   4.416  16.668  0.1378  0.6717 -0.3783
14823TIP3    H265885   2.837   4.272  16.700  0.4702  0.1923 -2.6611
14824TIP3   OH265886   3.003   4.201  14.767  0.2953  0.5044  0.0632
14824TIP3    H165887   2.983   4.255  14.843  1.2935  0.1564  0.5816
14824TIP3    H265888   2.943   4.233  14.699 -0.2770  1.1347  0.8423
14825TIP3   OH265889   0.265   0.735  13.166  0.0655  0.2325  0.0623
14825TIP3    H165890   0.216   0.779  13.097 -0.8197 -0.0662  0.4910
14825TIP3    H265891   0.355   0.766  13.154  0.4017 -1.3920 -2.5382
14826TIP3   OH265892   0.780   5.758  10.204  0.2108 -0.2434 -0.0047
14826TIP3    H165893   0.717   5.826  10.179  0.1593 -0.1894  0.2720
14826TIP3    H265894   0.862   5.806  10.220 -0.6191  0.2723  3.5671
14827TIP3   OH265895   6.022   5.276  11.501 -0.1316  0.7241  0.0637
14827TIP3    H165896   6.109   5.265  11.462  0.4780  0.1613  1.5150
14827TIP3    H265897   6.037   5.269  11.595 -1.3734  3.1857  0.5248
14828TIP3   OH265898   2.572   6.482   0.983 -0.0870 -0.1104  0.2520
14828TIP3    H165899   2.639   6.455   0.920 -0.2485 -0.2184  0.1260
14828TIP3    H265900   2.505   6.526   0.930 -0.8124 -1.2714  0.1749
14829TIP3   OH265901   2.043   3.438  12.679  0.6611  0.2905 -0.1620
14829TIP3    H165902   2.100   3.364  12.659 -0.0547 -0.1325 -0.6614
14829TIP3    H265903   2.002   3.460  12.596 -0.6737 -0.0731  0.3750
14830TIP3   OH265904   1.238   2.740   4.958 -0.3482  0.1207 -0.4080
14830TIP3    H165905   1.228   2.795   4.881  0.3075  0.8214 -0.0073
14830TIP3    H265906   1.235   2.651   4.924  0.3281  0.4176 -1.3108
14831TIP3   OH265907   5.019   4.056   1.120 -0.0365  0.1621  0.0703
14831TIP3    H165908   5.082   4.011   1.176  0.5178  2.7888  1.7398
14831TIP3    H265909   4.934   4.020   1.147  0.2402  1.1339  2.4985
14832TIP3   OH265910   3.579   4.312  11.572  1.0026  0.2644 -0.8989
14832TIP3    H165911   3.644   4.381  11.587  0.1036  1.1422 -0.9914
14832TIP3    H265912   3.498   4.358  11.554  0.4505 -0.8229 -1.2969
14833TIP3   OH265913   1.557   1.452  11.147 -0.1590  0.2327  0.4014
14833TIP3    H165914   1.528   1.539  11.118  0.5861  0.5763  0.6671
14833TIP3    H265915   1.494   1.392  11.107  0.1967  0.7782 -1.0574
14834TIP3   OH265916   1.104   4.566  11.313  0.1580  0.4813 -0.0229
14834TIP3    H165917   1.187   4.611  11.292 -0.0598  0.7060 -0.4108
14834TIP3    H265918   1.099   4.570  11.408 -0.1763  1.8826 -0.0729
14835TIP3   OH265919   1.129   5.634  15.673 -0.3725  0.4678 -0.6367
14835TIP3    H165920   1.219   5.658  15.651  0.6220 -0.7006  1.7831
14835TIP3    H265921   1.113   5.554  15.623 -0.2709  0.9389 -1.4421
14836TIP3   OH265922   4.769   4.210  15.360 -0.0398  0.3105  0.7305
14836TIP3    H165923   4.698   4.265  15.394  0.0145  0.3629  0.7596
14836TIP3    H265924   4.731   4.123  15.354  0.4864 -0.0953  2.6910
14837TIP3   OH265925   4.072   1.039   6.371 -0.2753 -0.0145  0.0260
14837TIP3    H165926   4.163   1.051   6.398 -0.3675  0.0154  0.3245
14837TIP3    H265927   4.021   1.068   6.446 -0.5777  1.9526 -0.8647
14838TIP3   OH265928   3.654   5.988   5.963  0.0837  0.1624  0.1252
14838TIP3    H165929   3.573   6.028   5.993  0.4548  1.2383 -0.2251
14838TIP3    H265930   3.641   5.976   5.869  1.0531  2.3386 -0.3703
14839TIP3   OH265931   5.981   2.663   1.885  0.5963 -0.1598  0.1519
14839TIP3    H165932   5.914   2.729   1.869 -0.2947 -0.0953  3.5100
14839TIP3    H265933   5.952   2.587   1.833 -2.1725 -0.1304  1.4560
14840TIP3   OH265934   2.835   3.925   4.427 -0.0583 -0.5105 -0.3287
14840TIP3    H165935   2.808   4.016   4.438 -1.3055 -1.0545  1.7251
14840TIP3    H265936   2.773   3.889   4.364 -0.8447 -0.3983  0.3567
14841TIP3   OH265937   5.720   1.685   4.468 -0.4155  0.6412  0.6635
14841TIP3    H165938   5.650   1.625   4.494  0.7127 -0.7659  0.5756
14841TIP3    H265939   5.726   1.675   4.373  0.6007 -0.0731  0.7885
14842TIP3   OH265940   0.804   3.829  10.846  0.0462 -0.0861  0.0771
14842TIP3    H165941   0.898   3.831  10.828  0.0178 -1.1774 -0.2790
14842TIP3    H265942   0.789   3.742  10.882 -1.0904 -0.5797 -1.4859
14843TIP3   OH265943   6.763   3.184   5.095  0.1120  0.4343  0.0466
14843TIP3    H165944   6.720   3.264   5.065  0.2247  0.4378 -0.1020
14843TIP3    H265945   6.754   3.187   5.190 -0.3626  0.3571  0.0095
14844TIP3   OH265946   2.224   6.545   2.866  0.5591 -0.1297 -0.4088
14844TIP3    H165947   2.133   6.556   2.893  1.3275  0.1179  2.2782
14844TIP3    H265948   2.222   6.564   2.772 -1.9407  1.1103 -0.2102
14845TIP3   OH265949   4.567   1.518   2.465 -0.9053  0.7321 -0.5143
14845TIP3    H165950   4.501   1.555   2.523 -2.3829  1.8464 -2.7434
14845TIP3    H265951   4.519   1.453   2.413  0.3003 -0.0778 -0.6407
14846TIP3   OH265952   4.768   1.314  16.309  0.4197 -0.3254 -0.3090
14846TIP3    H165953   4.862   1.314  16.327  0.3402 -2.6633  0.4729
14846TIP3    H265954   4.731   1.257  16.376 -1.0256 -2.6393 -2.8508
14847TIP3   OH265955   2.891   5.440  12.031 -0.1519 -0.0659  0.8184
14847TIP3    H165956   2.864   5.395  11.951  2.2884 -0.8911  0.3772
14847TIP3    H265957   2.849   5.391  12.102  0.9134 -1.9409  0.2305
14848TIP3   OH265958   5.479   1.176  16.668 -0.1379  0.3882 -0.1341
14848TIP3    H165959   5.502   1.268  16.656 -0.0595  0.2318 -1.2136
14848TIP3    H265960   5.544   1.128  16.617 -1.5291 -0.1623 -1.4376
14849TIP3   OH265961   5.919   5.663  11.011  0.1879 -0.3080 -0.2044
14849TIP3    H165962   5.938   5.588  10.954  0.1095  0.0244 -0.6736
14849TIP3    H265963   5.902   5.735  10.951  1.0965  0.3022  0.2323
14850TIP3   OH265964   2.395   0.057   2.216 -0.1528 -0.0340  0.5266
14850TIP3    H165965   2.335   0.004   2.165 -1.2517  1.4564  0.1832
14850TIP3    H265966   2.448  -0.006   2.264 -1.8672 -1.4281  0.7014
14851TIP3   OH265967   1.068   5.893  17.136  0.3070 -0.1408 -0.0436
14851TIP3    H165968   0.996   5.869  17.077  0.6831 -3.0780  0.5565
14851TIP3    H265969   1.116   5.961  17.088 -0.8508 -0.6116 -1.9958
14852TIP3   OH265970   5.577   2.097   3.196 -0.4378 -0.3468  0.5982
14852TIP3    H165971   5.523   2.176   3.204 -1.6702 -1.1139  0.0814
14852TIP3    H265972   5.665   2.130   3.180 -0.5985  0.9562  2.1488
14853TIP3   OH265973   2.696   1.929  11.017  1.0701 -0.5826  0.5225
14853TIP3    H165974   2.615   1.915  11.067  0.4349  0.7997 -0.0645
14853TIP3    H265975   2.686   2.016  10.979  2.6159 -0.6066 -0.0137
14854TIP3   OH265976   3.441   2.853  11.415  0.0880 -0.0505 -0.1132
14854TIP3    H165977   3.522   2.903  11.423 -0.4634  0.5611  3.0168
14854TIP3    H265978   3.371   2.917  11.427 -0.9063 -0.6702 -2.1493
14855TIP3   OH265979   2.022   0.767   0.832 -0.0187  0.1686  0.0965
14855TIP3    H165980   2.080   0.698   0.797 -0.1355  0.6731 -1.1646
14855TIP3    H265981   1.936   0.747   0.794 -0.6097 -0.3510  1.6498
14856TIP3   OH265982   2.213   0.671  11.824 -0.1805 -0.1022 -0.2263
14856TIP3    H165983   2.258   0.748  11.789 -0.2489 -0.1377 -0.3910
14856TIP3    H265984   2.239   0.669  11.916 -1.3976  1.0209  0.1796
14857TIP3   OH265985   4.510   2.846  11.972 -0.2808  0.0516  0.3032
14857TIP3    H165986   4.435   2.800  12.009 -0.0850  1.0028  1.9582
14857TIP3    H265987   4.501   2.936  12.003  2.3170 -0.1297  1.8527
14858TIP3   OH265988   6.695   0.282   6.322 -0.1713 -0.2924 -0.0235
14858TIP3    H165989   6.719   0.217   6.257  3.6089  1.2859 -0.5195
14858TIP3    H265990   6.707   0.366   6.277 -0.0969  0.7923  1.9078
14859TIP3   OH265991   0.991   1.806   1.726  0.5930  0.5918 -0.4218
14859TIP3    H165992   0.910   1.823   1.679  0.6138  0.8803 -0.3578
14859TIP3    H265993   0.991   1.870   1.797  1.1181  0.9299 -0.7198
14860TIP3   OH265994   0.059   4.592  14.381 -0.3497 -0.1408 -0.4858
14860TIP3    H165995   0.148   4.585  14.346  0.5945 -0.0531  1.7394
14860TIP3    H265996   0.015   4.513  14.350  0.5300 -0.2439 -1.5277
14861TIP3   OH265997   5.771   6.714  15.965  0.1892 -0.4641 -0.2384
14861TIP3    H165998   5.758   6.754  15.879 -0.4065  2.1402  0.9603
14861TIP3    H265999   5.706   6.644  15.970 -0.9197  0.4612 -1.2619
14862TIP3   OH266000   1.049   1.168  16.031  0.0203  0.1023 -0.7059
14862TIP3    H166001   1.138   1.145  16.003 -0.3841 -0.3017 -1.7356
14862TIP3    H266002   1.029   1.106  16.101  0.7677  0.5931 -0.0496
14863TIP3   OH266003   2.936   6.289   5.481 -0.0744  0.0932 -0.0345
14863TIP3    H166004   2.949   6.350   5.408  0.7371  0.3381  0.3008
14863TIP3    H266005   2.990   6.325   5.552 -0.1367 -0.6370  0.3880
14864TIP3   OH266006   1.972   4.537  16.641 -0.0026  0.3080  0.2773
14864TIP3    H166007   1.959   4.570  16.552 -0.3249  1.9893  0.9065
14864TIP3    H266008   1.883   4.529  16.677  0.1673  2.1173  1.2525
14865TIP3   OH266009   0.431   1.707   5.456  0.3724  0.0685  0.6488
14865TIP3    H166010   0.407   1.799   5.445 -0.7041 -0.1226  1.2834
14865TIP3    H266011   0.527   1.707   5.451  0.3439  1.0709 -0.3905
14866TIP3   OH266012   1.587   4.861   2.908 -0.0776  0.6317 -0.6740
14866TIP3    H166013   1.513   4.855   2.968  0.7730 -1.5794  0.2633
14866TIP3    H266014   1.643   4.929   2.946 -0.9563  1.3473 -0.6361
14867TIP3   OH266015   0.710   0.587  14.671  0.2541  0.1564  0.0939
14867TIP3    H166016   0.798   0.610  14.642  0.1977  0.4419  0.1471
14867TIP3    H266017   0.696   0.499  14.636 -0.7697  1.3964 -2.9741
14868TIP3   OH266018   0.636   1.654   4.221 -1.0039  0.2187 -0.1436
14868TIP3    H166019   0.604   1.701   4.298  0.0928 -2.5438  2.1546
14868TIP3    H266020   0.722   1.694   4.203 -0.1178 -0.6999  1.7222
14869TIP3   OH266021   0.288   1.579  13.321  0.2983 -0.3100 -0.2694
14869TIP3    H166022   0.204   1.537  13.339 -0.1941  0.8929  0.3830
14869TIP3    H266023   0.340   1.511  13.278  0.0547 -2.0089  1.9746
14870TIP3   OH266024   0.765   5.906  10.874  0.0820  0.0386 -0.1767
14870TIP3    H166025   0.727   5.827  10.912  0.6865 -0.1992 -0.0535
14870TIP3    H266026   0.720   5.917  10.790 -0.1575 -0.3116 -0.0958
14871TIP3   OH266027   0.437   2.988   1.172  0.1383  0.2046  0.5976
14871TIP3    H166028   0.378   2.943   1.112  0.9416 -1.0432  0.7094
14871TIP3    H266029   0.379   3.035   1.233 -0.6933  0.2682 -0.2223
14872TIP3   OH266030   2.548   3.416  14.460 -0.2729  0.0974 -0.0974
14872TIP3    H166031   2.570   3.324  14.476  0.9975  0.1583 -1.3128
14872TIP3    H266032   2.462   3.427  14.500  0.0214 -1.3332  1.0038
14873TIP3   OH266033   1.044   6.570   5.777 -0.0244  0.3175  0.0145
14873TIP3    H166034   1.011   6.533   5.859  1.6744 -1.8799 -0.2108
14873TIP3    H266035   1.051   6.664   5.794 -0.6531  0.0453  2.0343
14874TIP3   OH266036   4.712   6.737   2.158  0.1994  0.4662 -0.0598
14874TIP3    H166037   4.674   6.753   2.244 -0.4585 -0.8364 -0.0805
14874TIP3    H266038   4.718   6.642   2.151  3.0467  0.5816 -0.2898
14875TIP3   OH266039   0.626   3.931   3.699 -0.1683 -0.0848  0.4310
14875TIP3    H166040   0.614   3.935   3.794  0.0013 -0.9834  0.5033
14875TIP3    H266041   0.640   3.838   3.681  1.6633  0.3004 -0.2600
14876TIP3   OH266042   4.823   1.587  13.329  0.3712  0.1619  0.0434
14876TIP3    H166043   4.750   1.644  13.307  0.7279  0.6978  0.2048
14876TIP3    H266044   4.884   1.645  13.376  0.3804 -0.5431  0.9141
14877TIP3   OH266045   6.575   5.939  13.662 -0.5049 -0.1968  0.1717
14877TIP3    H166046   6.537   6.001  13.724 -0.5331  0.5349 -0.5601
14877TIP3    H266047   6.641   5.892  13.713  0.5516  1.4488  0.4044
14878TIP3   OH266048   0.892   5.716   5.933  0.4491  0.0175 -0.1156
14878TIP3    H166049   0.941   5.755   5.860  0.6361  1.7411  0.8685
14878TIP3    H266050   0.936   5.751   6.011 -0.9820 -0.1821  0.7978
14879TIP3   OH266051   1.311   1.967  14.797  0.2015  0.9276 -0.8345
14879TIP3    H166052   1.237   1.984  14.737 -1.6910  0.2138  1.1823
14879TIP3    H266053   1.338   2.054  14.825 -0.4046  1.1765 -0.9923
14880TIP3   OH266054   4.234   2.503  15.094 -0.1942  0.1936 -0.0286
14880TIP3    H166055   4.195   2.431  15.145 -0.4513  0.4548  0.1489
14880TIP3    H266056   4.222   2.580  15.149 -0.1595  0.4184 -0.3357
14881TIP3   OH266057   6.227   2.117   2.247  0.6088 -0.1366  0.2299
14881TIP3    H166058   6.197   2.202   2.215 -1.7214 -0.6098  0.9061
14881TIP3    H266059   6.291   2.087   2.183 -1.0227  0.6600 -1.8661
14882TIP3   OH266060   0.249   5.008  13.120 -0.1849 -0.5230  0.5245
14882TIP3    H166061   0.239   5.008  13.025 -0.8221 -1.9252  0.5649
14882TIP3    H266062   0.165   5.041  13.153 -0.0343 -0.2206  0.6072
14883TIP3   OH266063   0.841   3.514   1.681  0.4770 -0.3936  0.2616
14883TIP3    H166064   0.860   3.606   1.660 -1.0007  0.0260  0.6139
14883TIP3    H266065   0.921   3.483   1.724  1.1181  0.6325 -0.1362
14884TIP3   OH266066   6.339   2.001   2.613  0.0168 -0.6477 -0.0711
14884TIP3    H166067   6.406   1.959   2.559 -0.0355  0.8105 -1.3582
14884TIP3    H266068   6.293   1.929   2.656  0.1458 -1.8842 -1.9059
14885TIP3   OH266069   0.989   1.045  11.394  0.1877 -0.0122  0.4356
14885TIP3    H166070   1.038   1.127  11.401 -0.1928  0.2075  0.5033
14885TIP3    H266071   0.898   1.069  11.410  0.1554 -0.5580  1.1114
14886TIP3   OH266072   2.878   2.381   4.983 -0.7948 -0.1010 -0.1309
14886TIP3    H166073   2.812   2.367   4.914 -2.1514  2.5345  0.4623
14886TIP3    H266074   2.960   2.349   4.945 -1.4856  1.1766 -3.0015
14887TIP3   OH266075   6.022   0.738  12.549  0.1287 -0.1424 -0.4877
14887TIP3    H166076   5.933   0.758  12.518 -0.7313 -2.8675  0.0144
14887TIP3    H266077   6.028   0.782  12.633 -0.5088  0.5658 -0.7940
14888TIP3   OH266078   5.655   0.887   0.114  0.2190 -0.2450  0.1270
14888TIP3    H166079   5.621   0.818   0.057 -0.7230 -0.6995  1.2032
14888TIP3    H266080   5.577   0.932   0.147  0.7393 -0.0134  1.0764
14889TIP3   OH266081   5.580   0.762  14.735  0.5007 -0.2515  0.0167
14889TIP3    H166082   5.541   0.779  14.821  0.7266 -0.2779  0.1269
14889TIP3    H266083   5.672   0.785  14.746  0.5167 -0.1986 -0.2360
14890TIP3   OH266084   2.781   0.695   4.960  0.3467 -0.2274  0.0684
14890TIP3    H166085   2.747   0.634   5.026  0.3024  0.1237  0.3783
14890TIP3    H266086   2.860   0.731   5.001  1.4633 -1.5022 -0.8946
14891TIP3   OH266087   1.861   5.308  12.786  0.1744 -0.1022 -0.7130
14891TIP3    H166088   1.940   5.352  12.756  0.5676 -0.4132 -0.1625
14891TIP3    H266089   1.797   5.322  12.716  0.1955  1.5708 -0.4399
14892TIP3   OH266090   4.485   4.472  16.680  0.2362 -0.2836  0.3194
14892TIP3    H166091   4.445   4.467  16.593  3.0249 -2.2764 -1.0201
14892TIP3    H266092   4.460   4.558  16.713 -1.6510  0.1888 -2.0588
14893TIP3   OH266093   2.657   0.033  13.916  0.2963 -0.5570 -0.3867
14893TIP3    H166094   2.677  -0.049  13.960  1.2483 -0.2134 -0.1588
14893TIP3    H266095   2.721   0.095  13.950  0.4342 -0.0445 -1.5280
14894TIP3   OH266096   0.697   2.234  13.716 -0.3493 -0.2840  0.2059
14894TIP3    H166097   0.708   2.246  13.622  0.9390 -4.0931 -0.2731
14894TIP3    H266098   0.611   2.273  13.735 -0.5538  0.7738 -2.4334
14895TIP3   OH266099   5.467   1.746  13.702 -0.3048  0.2827  0.0675
14895TIP3    H166100   5.483   1.768  13.794  1.0493  4.2196 -0.9145
14895TIP3    H266101   5.552   1.754  13.660 -1.1227 -0.0995 -1.7586
14896TIP3   OH266102   1.214   5.395  16.089 -0.1799  0.2450  0.1608
14896TIP3    H166103   1.130   5.437  16.066 -0.6896 -1.1851 -0.6753
14896TIP3    H266104   1.272   5.415  16.016 -0.2960 -0.1604 -0.0420
14897TIP3   OH266105   5.528   6.653   5.144 -0.7319 -0.1101 -0.2223
14897TIP3    H166106   5.453   6.663   5.086 -0.9250  0.4876  0.1204
14897TIP3    H266107   5.491   6.656   5.232 -0.2081  1.1039 -0.0300
14898TIP3   OH266108   6.173   3.768   5.531 -0.4473 -0.3911  0.1406
14898TIP3    H166109   6.098   3.791   5.585 -1.5572 -0.1506 -1.4219
14898TIP3    H266110   6.163   3.674   5.516  0.1106 -0.5452  0.7081
14899TIP3   OH266111   0.296   1.524   2.143  0.8699 -0.4169  0.1613
14899TIP3    H166112   0.228   1.480   2.092  1.5347 -0.9949 -0.2409
14899TIP3    H266113   0.359   1.555   2.078  0.2826  1.4039  0.4163
14900TIP3   OH266114   3.704   5.710   1.959 -0.4195 -0.1545  0.3581
14900TIP3    H166115   3.758   5.781   1.995  0.2012 -0.5177  0.1594
14900TIP3    H266116   3.652   5.752   1.891  0.3844  0.0073 -0.1804
14901TIP3   OH266117   2.679   3.918   3.153  0.5006 -0.0039  0.5479
14901TIP3    H166118   2.650   3.981   3.087 -0.8291 -0.6440  0.4841
14901TIP3    H266119   2.660   3.961   3.237 -1.2038 -0.6269  0.5111
14902TIP3   OH266120   4.100   1.953   4.080 -0.3345  0.0684 -0.4324
14902TIP3    H166121   4.057   1.961   3.995 -0.0497 -2.5918 -0.9096
14902TIP3    H266122   4.166   1.885   4.067  2.2309  2.0715  1.0010
14903TIP3   OH266123   4.620   2.536   3.056  0.1104  0.8389  0.2387
14903TIP3    H166124   4.615   2.479   2.979 -1.2626  1.7406 -0.4013
14903TIP3    H266125   4.627   2.624   3.020 -0.3407  1.2639  1.1404
14904TIP3   OH266126   6.007   0.753   1.218  0.0824  0.6204 -0.2968
14904TIP3    H166127   5.991   0.779   1.309  0.5384 -0.8793  0.2446
14904TIP3    H266128   6.099   0.726   1.217 -0.4629 -1.3951 -0.6552
14905TIP3   OH266129   1.515   3.256  15.970  0.0568  0.5612  0.0059
14905TIP3    H166130   1.494   3.295  15.885  1.5998 -0.1460 -0.7354
14905TIP3    H266131   1.500   3.162  15.959  0.4778  0.4333  0.4387
14906TIP3   OH266132   1.749   3.703   4.406 -0.1679  0.6098  0.0418
14906TIP3    H166133   1.833   3.675   4.371 -0.6490 -0.4162 -0.3088
14906TIP3    H266134   1.713   3.626   4.448  0.3062  1.7374  2.7414
14907TIP3   OH266135   3.965   1.191  13.366  0.7987  0.4537  0.5452
14907TIP3    H166136   3.932   1.120  13.421  1.8852 -1.4676 -1.1616
14907TIP3    H266137   3.888   1.221  13.317  0.6859 -0.9613 -0.1866
14908TIP3   OH266138   3.010   0.595   5.211  0.8603  0.6200 -0.0336
14908TIP3    H166139   2.916   0.583   5.222  0.9954 -0.6055 -0.0807
14908TIP3    H266140   3.022   0.690   5.202 -0.1011  1.0254  2.3245
14909TIP3   OH266141   4.800   2.237  11.274 -0.1308  0.5524 -1.1184
14909TIP3    H166142   4.755   2.312  11.311  0.7253  1.2293 -1.4224
14909TIP3    H266143   4.757   2.221  11.190 -1.9800 -0.8944  0.0144
14910TIP3   OH266144   3.105   0.772   3.350 -0.3812  0.3070  0.0189
14910TIP3    H166145   3.196   0.777   3.379 -0.8717  0.7708  1.5704
14910TIP3    H266146   3.104   0.814   3.264  0.8300  0.4409  0.0570
14911TIP3   OH266147   3.612   0.926  15.159  0.5148  0.1439 -0.0416
14911TIP3    H166148   3.612   1.019  15.136 -0.0157  0.0311 -0.5121
14911TIP3    H266149   3.592   0.925  15.253 -1.0266  0.4480 -0.3388
14912TIP3   OH266150   1.134   2.329   3.250  0.0016  0.4802  0.5414
14912TIP3    H166151   1.175   2.242   3.251 -2.5849 -0.8099  0.9950
14912TIP3    H266152   1.188   2.381   3.311  1.1628 -0.9913  0.8342
14913TIP3   OH266153   5.863   3.811   2.171 -0.2157  0.1947 -0.4021
14913TIP3    H166154   5.812   3.810   2.090 -1.8018  1.0621  0.5287
14913TIP3    H266155   5.819   3.749   2.228  0.3249  0.2793  0.1214
14914TIP3   OH266156   1.406   5.169  13.611  0.5687 -0.0873 -0.4534
14914TIP3    H166157   1.320   5.211  13.606  1.0642  0.8359 -2.0093
14914TIP3    H266158   1.457   5.227  13.668 -0.0603 -1.1212  1.2240
14915TIP3   OH266159   6.049   4.554  11.931 -0.2915  0.3725 -0.7135
14915TIP3    H166160   5.979   4.589  11.876  0.8680  2.1939 -1.0887
14915TIP3    H266161   6.042   4.603  12.013 -0.6565 -0.8227  0.0002
14916TIP3   OH266162   0.791   4.395   4.617  0.0678  0.2980  0.3347
14916TIP3    H166163   0.863   4.339   4.588  1.0402  1.7861 -0.3007
14916TIP3    H266164   0.766   4.444   4.538 -0.8779  0.6262  0.8167
14917TIP3   OH266165   6.111   1.833  14.586  0.4474  0.0417 -0.5240
14917TIP3    H166166   6.110   1.883  14.504  1.2727  0.9512 -0.0065
14917TIP3    H266167   6.078   1.746  14.562  1.2189  0.1065 -1.9523
14918TIP3   OH266168   4.808   3.184  11.502 -0.6761  0.5027  0.1811
14918TIP3    H166169   4.837   3.113  11.560 -1.4883 -1.0045 -1.1727
14918TIP3    H266170   4.864   3.176  11.425 -2.3305 -0.2196 -0.9907
14919TIP3   OH266171   5.587   0.631   2.830 -0.3515  0.2226  0.2454
14919TIP3    H166172   5.528   0.679   2.772  0.5710  0.0017 -0.9115
14919TIP3    H266173   5.561   0.658   2.919 -0.6979  1.8472 -0.3195
14920TIP3   OH266174   1.061   3.766   1.889 -0.0792 -0.2059 -0.5799
14920TIP3    H166175   1.102   3.679   1.884 -1.8574 -1.0867 -0.7568
14920TIP3    H266176   1.134   3.827   1.885  1.4436 -1.7120  1.8133
14921TIP3   OH266177   1.400   6.715  16.575 -0.0078 -0.2279 -0.1378
14921TIP3    H166178   1.375   6.634  16.530 -0.3965 -0.9579  1.3131
14921TIP3    H266179   1.412   6.779  16.505 -1.0074 -1.1889 -1.2414
14922TIP3   OH266180   4.272   4.940   2.860 -0.1584  0.5937  0.2505
14922TIP3    H166181   4.353   4.974   2.898 -0.6753  3.0173 -0.6320
14922TIP3    H266182   4.296   4.913   2.772  0.1959 -1.2532  0.8662
14923TIP3   OH266183   3.563   4.860  14.080  0.6141  0.8400 -0.6898
14923TIP3    H166184   3.521   4.824  14.158 -0.3971 -2.1817 -2.4456
14923TIP3    H266185   3.504   4.930  14.051 -0.6917 -0.1239 -0.4460
14924TIP3   OH266186   3.617   6.317  16.549 -0.3345 -0.2226  0.0863
14924TIP3    H166187   3.676   6.273  16.611 -0.5693 -0.2125  0.3163
14924TIP3    H266188   3.676   6.364  16.490 -0.1139 -0.1168  0.3887
14925TIP3   OH266189   3.141   1.702   3.210 -0.2723  0.4796 -0.9247
14925TIP3    H166190   3.075   1.697   3.278 -0.4318  0.5842 -1.0694
14925TIP3    H266191   3.224   1.710   3.257 -0.0716 -2.1463 -0.6699
14926TIP3   OH266192   3.963   3.745   4.501  0.0855  0.2077  0.4447
14926TIP3    H166193   4.058   3.756   4.502  0.1833 -0.5631  0.5620
14926TIP3    H266194   3.934   3.781   4.584  0.4701 -1.0304  1.1459
14927TIP3   OH266195   3.046   2.971  12.682 -0.0162  0.1933 -0.1129
14927TIP3    H166196   3.067   2.925  12.601 -1.7024 -0.0554 -0.4579
14927TIP3    H266197   3.064   3.063  12.663 -1.5642  0.3148 -1.2593
14928TIP3   OH266198   4.391   4.163   5.897  0.3749  0.6692  0.1735
14928TIP3    H166199   4.335   4.155   5.974  0.6241 -2.8893  0.1371
14928TIP3    H266200   4.479   4.142   5.929  0.6619  0.2548 -0.8314
14929TIP3   OH266201   5.887   0.096   1.175  0.5978 -0.3778 -0.1798
14929TIP3    H166202   5.967   0.102   1.228 -0.5884  1.0496  1.6018
14929TIP3    H266203   5.820   0.068   1.238 -0.6307  0.1379 -1.2297
14930TIP3   OH266204   6.497   6.160  14.207  0.5372  0.6177 -0.3216
14930TIP3    H166205   6.526   6.221  14.274  0.4868  1.7519 -1.3051
14930TIP3    H266206   6.525   6.199  14.124  1.0337 -0.9862 -0.9590
14931TIP3   OH266207   4.337   6.114   3.873 -0.8429 -0.2065  0.4663
14931TIP3    H166208   4.362   6.025   3.898 -1.4401 -0.4721  0.1304
14931TIP3    H266209   4.357   6.167   3.950  0.5840 -0.4317  0.2850
14932TIP3   OH266210   1.975   4.770  12.135  0.8035 -0.4696 -0.1504
14932TIP3    H166211   1.968   4.865  12.144  0.4669 -0.2394 -2.2936
14932TIP3    H266212   2.023   4.742  12.213 -1.5338  1.0724  2.0317
14933TIP3   OH266213   4.811   2.905   3.374  0.1386  0.2836  0.7482
14933TIP3    H166214   4.859   2.944   3.301 -1.1201  0.4491 -0.0207
14933TIP3    H266215   4.780   2.820   3.340 -2.3733  1.3088  0.2353
14934TIP3   OH266216   0.099   3.968   1.340  0.0404  0.0567  0.2190
14934TIP3    H166217   0.062   3.897   1.288  2.4156 -0.2665 -1.1883
14934TIP3    H266218   0.029   4.033   1.345 -1.5133 -1.4923 -0.1868
14935TIP3   OH266219   0.496   0.237  13.030  0.3228 -0.5301  0.0998
14935TIP3    H166220   0.458   0.170  12.973 -0.0458 -0.4054  0.2011
14935TIP3    H266221   0.547   0.293  12.970 -0.0420 -0.4148 -0.1048
14936TIP3   OH266222   0.116   2.424   2.712 -0.3674 -0.6252  0.1575
14936TIP3    H166223   0.031   2.409   2.671  0.2654 -2.0093 -0.7506
14936TIP3    H266224   0.098   2.421   2.806 -1.2058 -1.7977 -0.0159
14937TIP3   OH266225   1.024   2.161   3.920 -0.2226 -0.1153 -0.5158
14937TIP3    H166226   0.939   2.137   3.884 -0.2768 -0.8323  0.0471
14937TIP3    H266227   1.008   2.173   4.013  0.2633 -0.1186 -0.4294
14938TIP3   OH266228   2.090   1.031   0.873  0.2415  0.1956  0.6763
14938TIP3    H166229   2.061   0.942   0.852 -0.2002  0.4832  0.0530
14938TIP3    H266230   2.172   1.042   0.824 -0.1446  0.4286  0.0780
14939TIP3   OH266231   4.926   0.040   6.527 -0.2922  0.4180 -0.3865
14939TIP3    H166232   4.956  -0.026   6.465  0.8939 -0.3429  0.9474
14939TIP3    H266233   4.856   0.086   6.480 -0.0474 -0.6966 -1.9433
14940TIP3   OH266234   4.795   5.226  14.068 -0.6332 -0.2975 -0.0826
14940TIP3    H166235   4.790   5.318  14.095  3.5022 -0.0814  0.5257
14940TIP3    H266236   4.776   5.228  13.974  1.2778  1.5453 -0.4965
14941TIP3   OH266237   6.402   4.374  16.096 -0.2076  0.3843 -0.1569
14941TIP3    H166238   6.349   4.381  16.175 -0.3915  1.0456 -0.3396
14941TIP3    H266239   6.412   4.279  16.084  0.9698  0.2563  1.4227
14942TIP3   OH266240   2.368   4.536   4.768 -0.1124  0.0271  0.2365
14942TIP3    H166241   2.455   4.524   4.808  0.4282  0.6942 -0.6896
14942TIP3    H266242   2.310   4.481   4.820  1.6506 -4.3576 -1.9281
14943TIP3   OH266243   6.641   2.298   0.115 -0.6035 -0.0399  0.5834
14943TIP3    H166244   6.709   2.362   0.093 -0.7143  0.7800  2.4796
14943TIP3    H266245   6.584   2.343   0.177 -1.0979 -1.7371  1.4166
14944TIP3   OH266246   3.982   6.426  17.066  0.0168  0.0297  0.2870
14944TIP3    H166247   4.027   6.387  16.992 -0.0318  0.4377  0.0375
14944TIP3    H266248   4.021   6.513  17.075  0.2384 -0.1295  0.9350
14945TIP3   OH266249   5.020   1.272   3.295 -0.9819 -0.7137 -0.3605
14945TIP3    H166250   4.963   1.213   3.246 -0.8518 -0.7019 -0.5268
14945TIP3    H266251   5.065   1.324   3.228 -0.7576 -0.7398 -0.2322
14946TIP3   OH266252   2.382   3.676   4.743 -0.2555 -0.4025  0.1518
14946TIP3    H166253   2.472   3.682   4.773 -0.0455 -1.1319 -0.3130
14946TIP3    H266254   2.389   3.679   4.647 -0.7639 -0.0043  0.1200
14947TIP3   OH266255   2.561   2.194   3.678 -0.5080 -0.1239  0.2103
14947TIP3    H166256   2.514   2.259   3.626  0.9041  1.2489  0.5353
14947TIP3    H266257   2.548   2.222   3.769 -1.1988 -1.2544  0.4761
14948TIP3   OH266258   4.991   0.390   4.921  0.9581  0.1010  0.4462
14948TIP3    H166259   5.025   0.440   4.995  1.9173 -1.8015  1.3381
14948TIP3    H266260   5.044   0.311   4.918 -0.6882 -1.0358 -0.7302
14949TIP3   OH266261   1.413   5.041  12.881 -0.1141  0.4421  0.0050
14949TIP3    H166262   1.444   4.954  12.859  0.8406  1.0368 -1.1140
14949TIP3    H266263   1.363   5.070  12.805  0.1158  1.1087  0.0937
14950TIP3   OH266264   4.594   4.411  11.094  0.3583 -0.2275 -0.0068
14950TIP3    H166265   4.560   4.500  11.097  1.8374  0.3367  0.6225
14950TIP3    H266266   4.523   4.360  11.054 -0.9173  1.0274  0.5723
14951TIP3   OH266267   5.387   4.304   1.920 -0.3503  0.1795 -0.1291
14951TIP3    H166268   5.340   4.249   1.857  0.0647  0.0848 -0.3572
14951TIP3    H266269   5.478   4.275   1.914 -0.2900  0.2361  0.4445
14952TIP3   OH266270   2.949   3.739   0.767 -0.6630 -0.5456 -0.1005
14952TIP3    H166271   3.044   3.728   0.769 -0.7107 -1.2098 -1.0009
14952TIP3    H266272   2.931   3.802   0.837  0.5858  0.7987 -0.9347
14953TIP3   OH266273   2.100   2.419   2.504 -0.0039 -0.3012  0.0524
14953TIP3    H166274   2.069   2.506   2.528  0.9514 -0.0016  0.2505
14953TIP3    H266275   2.196   2.427   2.504  0.0913 -1.3229 -0.0167
14954TIP3   OH266276   1.198   6.625   4.419  0.0183  0.4009  0.1248
14954TIP3    H166277   1.178   6.537   4.451  1.3320  0.5267  1.3613
14954TIP3    H266278   1.121   6.677   4.442  0.1366  0.0485  1.3585
14955TIP3   OH266279   5.922   5.646   1.913 -0.0349  0.1424  0.2600
14955TIP3    H166280   5.925   5.636   1.817  0.1612  1.2953  0.1345
14955TIP3    H266281   5.834   5.616   1.937 -0.9951  2.0404 -0.5946
14956TIP3   OH266282   1.926   6.183   5.727 -0.3162  0.0331  0.7053
14956TIP3    H166283   1.961   6.109   5.679 -1.3393 -0.1465  0.2137
14956TIP3    H266284   1.990   6.199   5.797  0.3677 -0.7191  0.2620
14957TIP3   OH266285   3.787   1.250  14.879 -0.8615 -0.5565  0.2756
14957TIP3    H166286   3.726   1.254  14.952 -1.8170  0.6296 -0.5522
14957TIP3    H266287   3.870   1.278  14.915 -1.4154  0.4207  0.8232
14958TIP3   OH266288   0.857   0.744  11.422  0.5865 -0.1894  0.0136
14958TIP3    H166289   0.800   0.748  11.345  0.6770 -0.5624 -0.0760
14958TIP3    H266290   0.810   0.793  11.489  0.6728  0.4506 -0.3848
14959TIP3   OH266291   2.595   0.012   1.981  0.2786  0.1314 -0.3062
14959TIP3    H166292   2.516   0.046   1.937 -0.9714  0.3804  1.9350
14959TIP3    H266293   2.613   0.077   2.049  1.5414 -0.6972  0.1784
14960TIP3   OH266294   4.665   6.121   2.990  0.2445 -0.0769  0.1895
14960TIP3    H166295   4.612   6.188   3.034  3.6802  1.7890  1.9058
14960TIP3    H266296   4.697   6.165   2.911 -0.7899 -1.2551 -0.9366
14961TIP3   OH266297   0.364   1.269  13.459 -0.0556  0.1918 -0.7044
14961TIP3    H166298   0.350   1.176  13.444  1.7706 -0.2171 -0.1781
14961TIP3    H266299   0.297   1.294  13.522 -0.4180 -0.8183 -0.6722
14962TIP3   OH266300   1.070   3.937   5.064  0.0758 -0.1333  0.4287
14962TIP3    H166301   1.123   3.865   5.098 -0.7923 -0.6797  0.6881
14962TIP3    H266302   1.003   3.894   5.011 -2.0494  0.1819  2.6444
14963TIP3   OH266303   5.835   3.410   0.195  0.5792  0.0406  0.1350
14963TIP3    H166304   5.807   3.502   0.198 -0.0941 -0.1324 -0.5369
14963TIP3    H266305   5.756   3.361   0.174  0.3983 -0.9674  2.7352
14964TIP3   OH266306   0.504   2.058  15.800 -0.1655 -0.1059 -0.5375
14964TIP3    H166307   0.595   2.083  15.782  0.0791  0.4152  1.1999
14964TIP3    H266308   0.507   2.020  15.888 -1.1363 -3.0764 -1.6841
14965TIP3   OH266309   3.593   3.846  13.657 -0.1955  0.3904  0.4600
14965TIP3    H166310   3.601   3.878  13.746  0.8245 -0.1135  0.5640
14965TIP3    H266311   3.674   3.872  13.614 -0.9151  1.1235 -0.4951
14966TIP3   OH266312   6.615   3.420  14.425  0.6019 -0.1434 -0.3437
14966TIP3    H166313   6.610   3.464  14.510  1.9895  0.2422 -0.4481
14966TIP3    H266314   6.591   3.329  14.444 -0.8099  0.3023  0.1335
14967TIP3   OH266315   1.373   4.821  11.460 -0.2166 -0.3302 -0.3085
14967TIP3    H166316   1.362   4.772  11.379 -0.9241 -0.1326 -0.3392
14967TIP3    H266317   1.303   4.788  11.517  0.0762 -0.2378  0.1053
14968TIP3   OH266318   2.891   4.388  13.836 -0.1661  0.3172 -0.6434
14968TIP3    H166319   2.863   4.423  13.921 -0.6927 -0.9332 -0.2612
14968TIP3    H266320   2.835   4.431  13.772  1.1655  2.3216 -0.5469
14969TIP3   OH266321   5.161   2.149   3.027  0.9141  0.3399 -0.4640
14969TIP3    H166322   5.106   2.077   2.997  0.5634  0.8190 -0.9845
14969TIP3    H266323   5.244   2.107   3.050  0.1687 -0.4773  0.9045
14970TIP3   OH266324   2.548   4.473   1.734 -0.4639  0.1290 -0.3465
14970TIP3    H166325   2.642   4.482   1.748  0.0315  0.1747 -3.0270
14970TIP3    H266326   2.520   4.405   1.795  1.2465  0.3237  0.7041
14971TIP3   OH266327   0.270   6.578   4.862  0.0592 -0.2225 -0.2353
14971TIP3    H166328   0.187   6.623   4.846 -0.9257 -1.9023  0.0083
14971TIP3    H266329   0.266   6.552   4.954  1.0450  0.0234 -0.1104
14972TIP3   OH266330   1.405   4.720  12.014 -0.2859  0.0687  0.1788
14972TIP3    H166331   1.487   4.736  12.060  0.6903  0.0005 -1.4575
14972TIP3    H266332   1.338   4.758  12.071  0.9282  0.7109  1.2423
14973TIP3   OH266333   1.808   2.158   4.140  0.0875  0.2214 -0.5679
14973TIP3    H166334   1.820   2.096   4.212 -0.3883  0.0675 -0.6199
14973TIP3    H266335   1.818   2.104   4.061 -2.2143 -0.2109 -0.6422
14974TIP3   OH266336   5.068   4.286   5.342  0.0305  0.1901 -0.5611
14974TIP3    H166337   5.135   4.300   5.409  0.1849 -2.6612 -0.0138
14974TIP3    H266338   5.105   4.325   5.263  1.4039  0.5352  0.2273
14975TIP3   OH266339   4.937   5.284   0.114 -0.7105 -0.1348 -0.1542
14975TIP3    H166340   4.908   5.374   0.109 -0.8916 -0.1386  0.6944
14975TIP3    H266341   4.866   5.233   0.074 -0.6754  0.0782 -0.4937
14976TIP3   OH266342   3.412   4.745  11.394  0.1332 -0.1415  0.8252
14976TIP3    H166343   3.483   4.739  11.330  0.3267 -0.0908  1.0332
14976TIP3    H266344   3.333   4.757  11.341  0.0016 -2.1874  0.4954
14977TIP3   OH266345   6.390   0.414  17.211  0.0906 -0.1307  0.3280
14977TIP3    H166346   6.471   0.420  17.161  0.5058  0.9416  1.0769
14977TIP3    H266347   6.325   0.378  17.150  0.7840  0.3389 -0.7021
14978TIP3   OH266348   6.536   0.366  11.628  0.5424 -0.7695  0.1949
14978TIP3    H166349   6.628   0.392  11.630  0.7789 -1.5949  0.1748
14978TIP3    H266350   6.493   0.427  11.688  1.0803 -0.3284  0.1460
14979TIP3   OH266351   5.252   5.868   1.151  0.0304  0.4450 -0.5510
14979TIP3    H166352   5.314   5.864   1.078  0.8201  0.6112  0.0959
14979TIP3    H266353   5.283   5.940   1.205  2.2082 -2.4212  2.3631
14980TIP3   OH266354   3.034   5.806   2.321 -0.3967 -0.3111 -0.3478
14980TIP3    H166355   3.063   5.897   2.319 -3.1773  0.6637 -0.0533
14980TIP3    H266356   3.064   5.774   2.406  1.0070  0.1515 -0.6434
14981TIP3   OH266357   6.435   1.908  10.834 -0.3266  0.0807  0.3684
14981TIP3    H166358   6.354   1.949  10.805 -0.9751 -0.3430  1.5345
14981TIP3    H266359   6.481   1.886  10.752 -1.9896 -0.8893 -0.3658
14982TIP3   OH266360   3.020   5.865   5.513 -0.8371  0.7204 -0.3974
14982TIP3    H166361   2.983   5.784   5.478  1.5971 -0.5648 -0.1470
14982TIP3    H266362   2.983   5.934   5.458 -2.1003 -0.6438 -1.3192
14983TIP3   OH266363   6.342   0.016   2.945 -0.1001  0.3416  0.3864
14983TIP3    H166364   6.377   0.068   3.017 -0.4073  0.8608  0.1719
14983TIP3    H266365   6.268  -0.031   2.982  0.5618 -0.4288  0.7360
14984TIP3   OH266366   3.950   1.660  16.369 -0.6285 -0.4118 -0.1963
14984TIP3    H166367   3.975   1.753  16.372 -2.1569  0.0972 -1.5861
14984TIP3    H266368   4.033   1.613  16.367  0.1995  0.8365  1.7390
14985TIP3   OH266369   3.580   5.841   3.914 -0.0400  0.4463  0.0664
14985TIP3    H166370   3.495   5.881   3.931 -0.6648 -0.8853  0.2635
14985TIP3    H266371   3.558   5.756   3.874  1.1380 -0.5676  1.4849
14986TIP3   OH266372   5.000   6.518  13.076  0.3510 -0.1673  0.5946
14986TIP3    H166373   5.043   6.591  13.121  0.3337 -0.9779  1.9909
14986TIP3    H266374   4.996   6.449  13.142 -0.1792 -1.2253 -0.5151
14987TIP3   OH266375   1.580   4.948   1.696  0.1273  0.2828 -0.1862
14987TIP3    H166376   1.573   4.854   1.682 -2.6534  0.6309 -1.6418
14987TIP3    H266377   1.621   4.981   1.616 -0.8737  0.5173 -0.6120
14988TIP3   OH266378   2.272   1.443   3.728  0.2899  0.1819 -0.6087
14988TIP3    H166379   2.295   1.520   3.677  1.1677 -0.1921 -0.8085
14988TIP3    H266380   2.356   1.408   3.758  0.1775 -2.2726 -2.8350
14989TIP3   OH266381   2.754   5.304   4.982  0.3064 -0.3936 -0.2132
14989TIP3    H166382   2.701   5.384   4.978  1.5465  0.4325 -1.0297
14989TIP3    H266383   2.771   5.291   5.075  2.9309  2.3311 -0.1456
14990TIP3   OH266384   6.697   4.082   6.526  0.3620  0.2432 -0.9557
14990TIP3    H166385   6.672   4.166   6.564 -1.8572 -1.0326  0.6960
14990TIP3    H266386   6.757   4.044   6.590 -1.2339 -0.7486  0.0329
14991TIP3   OH266387   4.217   1.608   1.363  0.1019  0.8106  0.0702
14991TIP3    H166388   4.139   1.605   1.417  0.7436 -2.1402  1.0324
14991TIP3    H266389   4.184   1.604   1.273 -0.9655 -2.3471  0.4755
14992TIP3   OH266390   1.962   1.187  13.417 -0.1224 -0.0556  0.0708
14992TIP3    H166391   2.049   1.209  13.450 -0.9746  0.8621  1.8195
14992TIP3    H266392   1.978   1.117  13.353  1.8506 -0.2214  0.6737
14993TIP3   OH266393   2.201   2.116   3.679 -0.6050 -0.8004  0.1428
14993TIP3    H166394   2.119   2.103   3.726 -1.3389  0.7707 -0.6331
14993TIP3    H266395   2.254   2.170   3.737 -0.7079 -0.5844  0.0388
14994TIP3   OH266396   6.412   5.010   5.164 -0.6821  0.3170 -0.1152
14994TIP3    H166397   6.476   4.946   5.133  1.8222  0.8195  3.4174
14994TIP3    H266398   6.426   5.087   5.108 -1.1803 -0.8987 -2.0146
14995TIP3   OH266399   6.634   0.543   5.596 -0.0453  0.0102  0.8120
14995TIP3    H166400   6.695   0.470   5.609 -0.6589 -0.9741 -1.2740
14995TIP3    H266401   6.560   0.524   5.654 -0.0339 -0.8648  0.5544
14996TIP3   OH266402   2.877   2.051  12.012 -0.0362  0.5142  0.2731
14996TIP3    H166403   2.933   1.979  11.985  1.9588  1.2004  2.3075
14996TIP3    H266404   2.934   2.128  12.011 -1.5353  1.6791  0.3046
14997TIP3   OH266405   4.079   3.046   4.214 -0.5778  0.1907  0.2749
14997TIP3    H166406   4.155   3.104   4.210  0.4185 -1.1132 -0.5681
14997TIP3    H266407   4.005   3.102   4.191  0.2298  1.3274  0.3755
14998TIP3   OH266408   5.442   2.689  12.640  0.1076  0.1229  0.0382
14998TIP3    H166409   5.433   2.727  12.552 -1.2818 -0.0996  0.0608
14998TIP3    H266410   5.521   2.730  12.675  1.1149 -0.3263 -1.5785
14999TIP3   OH266411   5.930   1.632   3.194  0.5410  0.8716  0.1664
14999TIP3    H166412   6.003   1.605   3.249 -0.2899 -0.8720  0.4735
14999TIP3    H266413   5.855   1.584   3.229  0.1023 -0.9054 -2.8967
15000TIP3   OH266414   0.074   6.489  16.379 -0.6766 -0.3325 -0.1598
15000TIP3    H166415   0.079   6.514  16.471  0.3781  0.6572 -0.4534
15000TIP3    H266416   0.055   6.571  16.333 -1.5207 -0.8704 -0.8064
15001TIP3   OH266417   2.522   0.744   0.701 -0.1394 -0.3105 -0.5658
15001TIP3    H166418   2.591   0.692   0.744 -0.4285 -0.9860 -0.8987
15001TIP3    H266419   2.560   0.767   0.616 -0.2855 -0.6239 -0.7209
15002TIP3   OH266420   3.317   1.713  12.727  0.0870  0.1245  0.1163
15002TIP3    H166421   3.341   1.751  12.811  0.7844  0.9052 -0.4195
15002TIP3    H266422   3.233   1.754  12.705  0.9950  1.6907 -0.6200
15003TIP3   OH266423   2.646   0.657  15.896 -0.1433  0.0665 -0.7220
15003TIP3    H166424   2.656   0.585  15.833  0.7248  0.6202 -1.2355
15003TIP3    H266425   2.724   0.711  15.883 -0.8755  1.2037 -0.4569
15004TIP3   OH266426   2.239   5.463  14.096 -0.0519  0.0724 -0.2462
15004TIP3    H166427   2.303   5.532  14.083 -0.6728  0.8630  0.7965
15004TIP3    H266428   2.267   5.418  14.176  0.0594 -0.5638 -0.6342
15005TIP3   OH266429   4.936   0.709   5.160  0.2816 -0.1414  0.1914
15005TIP3    H166430   4.841   0.698   5.158  0.3695 -1.4989  1.6590
15005TIP3    H266431   4.969   0.627   5.197  2.2345 -0.7403 -2.5321
15006TIP3   OH266432   6.277   3.703  17.145  0.7747  0.5900 -0.2558
15006TIP3    H166433   6.203   3.643  17.161  1.3350  0.2026  1.0242
15006TIP3    H266434   6.354   3.647  17.152  1.2292  1.1696 -0.6537
15007TIP3   OH266435   1.651   3.573  14.124 -0.0424  0.4703 -0.0831
15007TIP3    H166436   1.738   3.568  14.164 -0.5463 -1.7812  0.8538
15007TIP3    H266437   1.612   3.651  14.164  1.1118  0.8446  0.3708
15008TIP3   OH266438   6.109   5.545   6.177  0.1323 -0.0304  0.2712
15008TIP3    H166439   6.066   5.480   6.232 -0.6357  0.2473  0.0136
15008TIP3    H266440   6.201   5.520   6.179 -0.2041 -1.4525 -0.2471
15009TIP3   OH266441   6.566   6.085  13.098 -0.1044 -0.4184 -0.4648
15009TIP3    H166442   6.587   6.160  13.042  0.4018 -1.1865 -1.3344
15009TIP3    H266443   6.471   6.081  13.099 -0.2339  1.3229  1.0953
15010TIP3   OH266444   0.608   2.368  15.662 -0.1997 -0.2556 -0.0892
15010TIP3    H166445   0.575   2.310  15.593  0.5404  0.1707 -0.8208
15010TIP3    H266446   0.569   2.453  15.643 -0.8869 -0.3896  0.6902
15011TIP3   OH266447   4.644   6.547  13.146  0.5659  0.2303 -0.5035
15011TIP3    H166448   4.672   6.471  13.198 -1.7188 -1.1438 -1.1131
15011TIP3    H266449   4.565   6.578  13.191 -0.5121  0.0327 -2.1899
15012TIP3   OH266450   0.726   5.986   5.230 -0.6883  0.3117 -0.0725
15012TIP3    H166451   0.682   6.067   5.204 -0.8068  0.3454  0.2362
15012TIP3    H266452   0.718   5.983   5.325  1.0066  0.9125  0.1179
15013TIP3   OH266453   6.522   6.147  11.888 -0.2083  0.7029 -0.5071
15013TIP3    H166454   6.601   6.179  11.930 -0.2793 -1.0011  1.0383
15013TIP3    H266455   6.555   6.097  11.812  0.2288 -0.1200  0.2074
15014TIP3   OH266456   1.346   1.868   5.547  0.5555 -0.1007 -0.1492
15014TIP3    H166457   1.376   1.783   5.579  0.2780 -0.6583 -1.3138
15014TIP3    H266458   1.321   1.916   5.626  0.9676 -1.0013  0.5452
15015TIP3   OH266459   4.586   0.158   1.719 -0.9704 -0.1798 -0.2091
15015TIP3    H166460   4.583   0.199   1.633 -1.2831  2.7434  1.0615
15015TIP3    H266461   4.669   0.189   1.757 -0.7814 -1.5137  0.5151
15016TIP3   OH266462   3.044   1.186   0.024 -0.2991  0.0620  0.1064
15016TIP3    H166463   3.099   1.112  -0.001 -0.3953 -0.0747  0.2901
15016TIP3    H266464   3.105   1.252   0.057 -0.2750 -0.2523  0.7099
15017TIP3   OH266465   3.643   4.955   0.546  0.3995 -0.4027  0.5048
15017TIP3    H166466   3.650   4.889   0.477  0.2533  1.8322 -1.7870
15017TIP3    H266467   3.719   5.012   0.532 -0.3824  0.8868  1.3042
15018TIP3   OH266468   3.928   2.834   2.240 -0.2094 -0.2916  0.2023
15018TIP3    H166469   3.921   2.837   2.145  1.1665  0.5464  0.0923
15018TIP3    H266470   3.890   2.916   2.271  0.7421  0.1633  0.2291
15019TIP3   OH266471   1.938   1.661   4.856  0.7972 -0.5288  0.3300
15019TIP3    H166472   1.969   1.610   4.930  0.9050  1.1258  1.4657
15019TIP3    H266473   1.849   1.688   4.881  1.4157  1.3938  0.6229
15020TIP3   OH266474   2.472   5.116   3.204 -0.0270  0.6499  0.1610
15020TIP3    H166475   2.413   5.190   3.219  0.3849  0.6657  1.9293
15020TIP3    H266476   2.542   5.127   3.268 -0.0223 -1.3318  0.5810
15021TIP3   OH266477   4.241   5.548  16.215  0.5389 -0.3152  0.2978
15021TIP3    H166478   4.309   5.527  16.279  0.6498 -0.5302  0.1087
15021TIP3    H266479   4.182   5.607  16.262  1.0398  0.1463  0.3550
15022TIP3   OH266480   0.322   5.121  16.758 -0.1599  0.2201 -0.0708
15022TIP3    H166481   0.352   5.042  16.802  0.1647  0.9163  0.9833
15022TIP3    H266482   0.291   5.091  16.673 -0.2387 -1.0659  0.3997
15023TIP3   OH266483   6.738   1.815  12.975  0.4431  0.3503 -0.0329
15023TIP3    H166484   6.768   1.785  12.889 -0.0966 -0.2420 -0.0221
15023TIP3    H266485   6.814   1.859  13.013  1.9663 -2.7032  0.7635
15024TIP3   OH266486   0.996   1.750  11.408  0.0358  0.3325  0.3726
15024TIP3    H166487   1.039   1.835  11.408 -0.0742  0.3889 -0.0933
15024TIP3    H266488   1.040   1.701  11.338 -0.0759  0.0974  0.4669
15025TIP3   OH266489   3.566   2.655   6.785  0.3357 -0.3291  0.3475
15025TIP3    H166490   3.661   2.659   6.777  0.2290  0.1420 -0.7180
15025TIP3    H266491   3.549   2.682   6.876  1.0614  1.9816 -0.1471
15026TIP3   OH266492   2.526   0.869   0.169 -0.3468  0.2631 -0.1434
15026TIP3    H166493   2.482   0.844   0.088  1.0654  0.2915 -0.9492
15026TIP3    H266494   2.514   0.963   0.176  2.4542  0.9359 -2.2616
15027TIP3   OH266495   5.163   2.032  14.709  0.8719  0.3454 -0.1588
15027TIP3    H166496   5.185   2.045  14.616 -2.2438  0.3823 -0.9879
15027TIP3    H266497   5.112   2.109  14.732 -2.2767 -1.6975  0.2015
15028TIP3   OH266498   0.616   0.496   0.063 -0.4255 -0.3734  0.0515
15028TIP3    H166499   0.623   0.410   0.023  0.0315 -0.4828  0.3686
15028TIP3    H266500   0.559   0.483   0.138 -0.6614 -0.3222 -0.1177
15029TIP3   OH266501   6.255   2.707  12.172 -0.0084 -0.3346  0.1492
15029TIP3    H166502   6.230   2.713  12.264 -0.0472  1.7721  0.0537
15029TIP3    H266503   6.187   2.653  12.132  0.7620 -2.4769  1.5511
15030TIP3   OH266504   5.534   5.878   4.003  0.2197 -0.6484 -0.4688
15030TIP3    H166505   5.497   5.794   3.977  0.8078 -0.4436 -2.0720
15030TIP3    H266506   5.516   5.937   3.929 -0.4271  0.7313  0.7252
15031TIP3   OH266507   4.228   6.218   4.526  0.4002 -0.2498  0.5933
15031TIP3    H166508   4.264   6.287   4.470  0.0221  0.1004  0.7732
15031TIP3    H266509   4.297   6.199   4.589  0.8981 -0.7687 -0.0952
15032TIP3   OH266510   4.493   4.759  16.438 -0.0638 -0.0201 -0.3920
15032TIP3    H166511   4.519   4.775  16.347 -3.2562  1.5627 -1.1847
15032TIP3    H266512   4.433   4.685  16.433 -0.4840  0.2630  0.3620
15033TIP3   OH266513   2.452   4.232   2.439  0.4480  0.3292 -0.8763
15033TIP3    H166514   2.427   4.140   2.440  0.3052  0.3694 -0.7812
15033TIP3    H266515   2.376   4.277   2.401  0.3540  0.4570 -0.5420
15034TIP3   OH266516   3.110   4.530  16.759  0.1896  0.3383 -0.3277
15034TIP3    H166517   3.179   4.469  16.730  0.2964 -0.3636  1.3150
15034TIP3    H266518   3.028   4.485  16.738  0.2689 -0.5879  1.2450
15035TIP3   OH266519   1.763   5.170  13.198  0.6169  0.6347  0.7768
15035TIP3    H166520   1.808   5.241  13.153  0.1453  0.1291 -0.5301
15035TIP3    H266521   1.746   5.104  13.130  0.2456 -0.3319  1.7709
15036TIP3   OH266522   1.342   2.411  15.651 -0.1244  0.0708  0.0594
15036TIP3    H166523   1.312   2.502  15.647  0.0991  0.1450  0.0775
15036TIP3    H266524   1.426   2.412  15.606  0.3940  0.0787  1.0187
15037TIP3   OH266525   1.759   6.493   2.424  0.0670  0.3289  0.1497
15037TIP3    H166526   1.844   6.486   2.381  0.4913  0.7638  0.8971
15037TIP3    H266527   1.728   6.402   2.430  0.3599  0.1910 -0.3423
15038TIP3   OH266528   2.791   4.964  15.749 -0.3930  0.1025 -0.1725
15038TIP3    H166529   2.874   4.955  15.703 -0.5440  0.9620 -0.6383
15038TIP3    H266530   2.742   5.029  15.699 -0.0415  2.1118  1.8812
15039TIP3   OH266531   4.492   5.487   4.886 -0.3504 -0.2111 -0.9542
15039TIP3    H166532   4.523   5.554   4.825 -0.8532  0.0916 -0.8829
15039TIP3    H266533   4.405   5.517   4.913  0.4920  0.4968  1.1649
15040TIP3   OH266534   5.587   3.016   4.536  0.3574  0.0231 -0.6235
15040TIP3    H166535   5.670   3.063   4.542  0.8119 -0.5409 -1.9766
15040TIP3    H266536   5.531   3.057   4.601  1.5428  0.7431 -0.0249
15041TIP3   OH266537   4.456   5.621  12.687  0.1677 -0.2110  0.0554
15041TIP3    H166538   4.390   5.567  12.731 -0.8859  0.4213 -0.6979
15041TIP3    H266539   4.435   5.710  12.715 -0.5469  0.2089 -1.7110
15042TIP3   OH266540   2.774   4.696  14.889  0.4013  0.4778 -0.4268
15042TIP3    H166541   2.726   4.651  14.819  0.9418  1.9540 -1.8151
15042TIP3    H266542   2.725   4.777  14.902 -0.2701 -0.1824  1.6788
15043TIP3   OH266543   5.761   5.968   2.347  0.0254 -0.1551 -0.3668
15043TIP3    H166544   5.843   6.018   2.346  1.4816 -2.3340  1.0474
15043TIP3    H266545   5.706   6.013   2.411  1.0842 -0.0382  0.4852
15044TIP3   OH266546   5.659   5.718   2.983  0.6105  0.1907 -0.1143
15044TIP3    H166547   5.639   5.764   3.064 -0.1336 -1.2289  0.5456
15044TIP3    H266548   5.746   5.749   2.958  0.1979  1.8192  0.3538
15045TIP3   OH266549   0.346   5.208   0.014 -0.0653 -0.1987  0.5269
15045TIP3    H166550   0.277   5.149   0.046  2.2605 -2.6042  1.4600
15045TIP3    H266551   0.426   5.177   0.056  1.5564  2.8681 -0.0169
15046TIP3   OH266552   3.905   4.392   5.939  0.1040  0.3531 -0.0751
15046TIP3    H166553   3.930   4.484   5.946 -0.0608  0.4231 -0.4031
15046TIP3    H266554   3.975   4.353   5.885 -0.2856  0.4719 -0.6784
15047TIP3   OH266555   4.975   2.755  15.258 -0.1087 -0.1039  0.4308
15047TIP3    H166556   4.953   2.848  15.247  0.1673 -0.2403 -1.7204
15047TIP3    H266557   5.057   2.756  15.307  0.4760  0.8571 -0.5296
15048TIP3   OH266558   2.449   6.470   4.770  0.1163  0.7415 -0.4774
15048TIP3    H166559   2.518   6.465   4.705  0.6419 -1.0814  0.1600
15048TIP3    H266560   2.376   6.421   4.733 -0.0741  0.8567 -0.2633
15049TIP3   OH266561   4.511   0.364   2.206 -0.4797  0.0113 -0.2745
15049TIP3    H166562   4.503   0.408   2.122  0.4473 -1.0119 -0.9322
15049TIP3    H266563   4.562   0.285   2.187 -0.2846 -0.2638  1.2333
15050TIP3   OH266564   0.830   4.227   5.100  0.0847  0.3111  0.2675
15050TIP3    H166565   0.739   4.201   5.115  0.5718 -1.4269  0.4471
15050TIP3    H266566   0.843   4.215   5.006  0.2534  0.1063  0.3168
15051TIP3   OH266567   3.920   5.600   2.946 -0.6685  0.2115 -0.0957
15051TIP3    H166568   3.993   5.661   2.959 -0.0573 -0.7482  1.3524
15051TIP3    H266569   3.949   5.520   2.991 -3.1388  0.2225  1.6963
15052TIP3   OH266570   2.210   0.521  12.633  0.0278  0.0189 -0.2326
15052TIP3    H166571   2.203   0.489  12.543  0.9213 -0.6143 -0.0920
15052TIP3    H266572   2.297   0.493  12.661  0.2714  1.3288  0.3996
15053TIP3   OH266573   6.592   6.167   0.326 -0.3137 -0.0267  0.1634
15053TIP3    H166574   6.646   6.213   0.391 -0.8694 -1.3962  1.6720
15053TIP3    H266575   6.625   6.078   0.327 -0.9140 -0.2682 -0.8242
15054TIP3   OH266576   1.986   6.610   3.171  0.4997 -0.4012 -0.2170
15054TIP3    H166577   1.958   6.670   3.241  1.6489  1.3881 -1.2323
15054TIP3    H266578   1.990   6.524   3.214 -0.5490  0.3279  1.4529
15055TIP3   OH266579   3.390   5.148   0.387  0.3119 -0.2850  0.1962
15055TIP3    H166580   3.351   5.130   0.301  0.5661  1.7364 -0.3875
15055TIP3    H266581   3.370   5.070   0.438 -0.4752 -1.2482 -1.4706
15056TIP3   OH266582   4.999   1.709   2.548  0.0943  0.8713 -0.2983
15056TIP3    H166583   4.996   1.685   2.455  0.9093  2.0921 -0.6629
15056TIP3    H266584   5.002   1.625   2.594 -1.9268  0.2079 -1.2805
15057TIP3   OH266585   3.397   6.227  12.843  0.0256 -0.2242  0.4040
15057TIP3    H166586   3.472   6.264  12.797  0.3653  0.0675  1.1736
15057TIP3    H266587   3.360   6.301  12.891 -0.7636 -0.3648  0.0367
15058TIP3   OH266588   0.607   1.230  15.118  0.6394  0.0632 -0.7791
15058TIP3    H166589   0.696   1.199  15.104  1.3482  2.0554 -0.9774
15058TIP3    H266590   0.607   1.264  15.207  0.1422  0.2700 -0.8543
15059TIP3   OH266591   1.872   0.190  11.678 -0.0109  0.3961  0.2005
15059TIP3    H166592   1.945   0.137  11.709 -1.7026 -1.1456  1.7801
15059TIP3    H266593   1.801   0.128  11.663 -1.1633  1.8748 -0.8522
15060TIP3   OH266594   1.854   4.409   0.284 -0.2843 -0.0762  0.3124
15060TIP3    H166595   1.853   4.443   0.373 -2.2528 -0.1123  0.3472
15060TIP3    H266596   1.826   4.483   0.230 -0.4955 -0.4620 -0.1116
15061TIP3   OH266597   0.167   3.320  16.917  0.2935  0.5380 -0.2252
15061TIP3    H166598   0.088   3.331  16.970  1.0451  0.3180  0.9924
15061TIP3    H266599   0.140   3.341  16.828 -0.8189  1.7462  0.3688
15062TIP3   OH266600   1.874   0.732   2.315  0.0503 -0.2680 -0.0881
15062TIP3    H166601   1.930   0.802   2.280 -0.2680 -0.8306 -1.8231
15062TIP3    H266602   1.936   0.671   2.355  0.4950  0.0983 -0.1952
15063TIP3   OH266603   6.635   1.997   5.028 -0.1506  0.1399 -0.2196
15063TIP3    H166604   6.625   2.008   5.123 -0.3059 -1.4474 -0.0239
15063TIP3    H266605   6.729   2.008   5.013 -0.2963  1.8472 -0.1270
15064TIP3   OH266606   0.264   2.527   4.012 -0.3335 -0.2646  0.2107
15064TIP3    H166607   0.304   2.494   3.932  0.8651 -2.4622  1.6054
15064TIP3    H266608   0.199   2.461   4.036 -1.5004  0.9306  0.4847
15065TIP3   OH266609   3.390   3.772   4.860 -0.2267 -0.2685 -0.3658
15065TIP3    H166610   3.477   3.769   4.821 -0.4968  1.7355 -1.2352
15065TIP3    H266611   3.382   3.861   4.895 -1.0205 -1.1572  1.9399
15066TIP3   OH266612   2.349   2.612   5.654  0.2237 -0.0045 -0.1321
15066TIP3    H166613   2.353   2.518   5.672  0.6151  0.4030  2.1678
15066TIP3    H266614   2.262   2.638   5.683  0.1068  0.3608 -0.7848
15067TIP3   OH266615   2.483   0.787   1.936 -0.7124  0.3431  0.2900
15067TIP3    H166616   2.556   0.821   1.988  0.5935 -0.6084 -0.8397
15067TIP3    H266617   2.511   0.798   1.845 -3.6029  3.4637 -0.4315
15068TIP3   OH266618   1.277   0.848   0.135  0.0006  0.3693  0.0815
15068TIP3    H166619   1.190   0.810   0.126 -1.3282  3.1589  0.0162
15068TIP3    H266620   1.311   0.814   0.218 -0.6316 -1.6164 -0.4308
15069TIP3   OH266621   1.667   3.507  14.865 -0.6112  0.7322  0.4016
15069TIP3    H166622   1.757   3.539  14.857 -0.0811 -0.4890  1.2151
15069TIP3    H266623   1.647   3.468  14.780  0.1275 -0.1928  0.6402
15070TIP3   OH266624   6.001   2.379  16.857 -0.2418 -0.0744 -0.1173
15070TIP3    H166625   6.092   2.407  16.866 -0.4707  0.4691  0.5621
15070TIP3    H266626   6.004   2.284  16.866  0.1923 -0.0043  0.5401
15071TIP3   OH266627   0.692   0.305  13.237 -0.2482  0.2326 -0.4573
15071TIP3    H166628   0.674   0.248  13.311 -1.4825  2.9510  1.4715
15071TIP3    H266629   0.640   0.268  13.165 -0.4257 -1.4317  0.4834
15072TIP3   OH266630   4.424   3.789  15.182 -0.8183  0.0093  0.1083
15072TIP3    H166631   4.378   3.717  15.225 -0.7865  0.8479  1.6375
15072TIP3    H266632   4.364   3.819  15.114 -0.8725 -1.3668 -0.4908
15073TIP3   OH266633   0.854   6.188   0.519 -0.2860  0.9884  0.9327
15073TIP3    H166634   0.907   6.109   0.531  0.9636  1.6690  0.0949
15073TIP3    H266635   0.780   6.176   0.578 -1.0431 -1.5921 -0.4179
15074TIP3   OH266636   4.218   5.666  16.799 -0.1461  0.0303  0.0231
15074TIP3    H166637   4.248   5.627  16.882  0.1810  2.2748  1.0207
15074TIP3    H266638   4.268   5.620  16.732  2.7080  0.9539  1.3702
15075TIP3   OH266639   0.051   5.892   1.530 -0.1751 -0.0410 -0.1228
15075TIP3    H166640   0.093   5.809   1.552 -2.0513 -0.8694  0.6405
15075TIP3    H266641   0.079   5.953   1.599  1.1824 -0.0415 -0.6661
15076TIP3   OH266642   1.050   5.669  10.363 -0.1850 -0.0298  0.1786
15076TIP3    H166643   1.070   5.745  10.309  2.6724 -1.1788 -0.5413
15076TIP3    H266644   0.987   5.619  10.312 -2.0598  1.7131  0.6342
15077TIP3   OH266645   1.490   2.167  11.629  0.0500  0.1233  0.0022
15077TIP3    H166646   1.496   2.147  11.722  0.6851 -0.2204 -0.1116
15077TIP3    H266647   1.445   2.092  11.590 -1.6024  0.9386  0.2488
15078TIP3   OH266648   2.108   0.871  10.092 -0.3360 -0.4895 -0.3629
15078TIP3    H166649   2.191   0.831  10.065 -0.0157  0.4006 -0.7426
15078TIP3    H266650   2.075   0.814  10.161 -0.1931 -1.7302 -1.2884
15079TIP3   OH266651   0.641   6.653   2.799  0.2038 -0.6323 -0.3410
15079TIP3    H166652   0.732   6.622   2.792 -0.0395 -1.0834 -1.9033
15079TIP3    H266653   0.627   6.664   2.893  1.7194 -1.0152 -0.0320
15080TIP3   OH266654   0.561   0.347   4.637  0.0526 -0.2117  0.4177
15080TIP3    H166655   0.578   0.271   4.693  0.4123 -0.2185  0.3056
15080TIP3    H266656   0.497   0.399   4.685 -0.1640 -0.5679  0.5146
15081TIP3   OH266657   5.482   2.037  14.943 -0.0305 -0.1148 -0.1214
15081TIP3    H166658   5.452   2.121  14.977  1.1635  0.4516 -0.4531
15081TIP3    H266659   5.562   2.018  14.992  0.2131 -0.6106 -0.7032
15082TIP3   OH266660   3.309   4.616   4.729  0.3502 -0.5809 -0.6940
15082TIP3    H166661   3.396   4.577   4.732 -0.2662 -2.0049 -0.5941
15082TIP3    H266662   3.321   4.699   4.683  2.0677  0.1404  0.9327
15083TIP3   OH266663   2.479   2.800   4.714  0.0363  0.6261 -0.0093
15083TIP3    H166664   2.551   2.770   4.659 -0.2561  0.0860 -0.1062
15083TIP3    H266665   2.446   2.878   4.671 -1.1623 -0.6180 -1.4523
15084TIP3   OH266666   4.696   4.917   2.422 -0.2133  0.7983 -0.1918
15084TIP3    H166667   4.791   4.906   2.425 -0.3613 -0.7984  3.0415
15084TIP3    H266668   4.683   5.011   2.432  0.9860  1.2133 -2.1065
15085TIP3   OH266669   1.498   3.529   1.185  0.3030 -0.2794  0.8209
15085TIP3    H166670   1.449   3.450   1.162 -1.6477  1.2631 -0.5951
15085TIP3    H266671   1.570   3.531   1.123 -0.8399  0.1103 -0.5243
15086TIP3   OH266672   0.664   6.015  12.839  0.1647 -0.5326  0.2004
15086TIP3    H166673   0.592   6.048  12.786  0.3536 -1.7069 -0.8373
15086TIP3    H266674   0.721   6.091  12.853 -0.3511 -0.0061 -0.5130
15087TIP3   OH266675   3.375   3.149   0.295  0.0266  0.4950 -0.5280
15087TIP3    H166676   3.465   3.140   0.265  0.5522 -0.1850  1.1382
15087TIP3    H266677   3.382   3.156   0.390 -1.6367  1.1564 -0.4251
15088TIP3   OH266678   2.305   5.275   1.519 -0.5705 -0.3576  0.1907
15088TIP3    H166679   2.260   5.355   1.491 -2.1186 -0.3715  2.3307
15088TIP3    H266680   2.287   5.270   1.613  0.1238 -2.8431  0.2528
15089TIP3   OH266681   0.140   3.800  12.251 -0.1007 -0.3552  0.0290
15089TIP3    H166682   0.110   3.889  12.264 -0.1770 -0.0353 -2.0518
15089TIP3    H266683   0.078   3.746  12.299 -0.1772  0.6658  1.1281
15090TIP3   OH266684   0.047   0.414  14.905  0.7698 -0.0856 -0.4880
15090TIP3    H166685   0.021   0.363  14.981 -0.4784  0.4816 -0.5255
15090TIP3    H266686   0.066   0.348  14.838 -0.1133 -0.5343 -0.3129
15091TIP3   OH266687   6.474   3.474  15.996 -0.1221 -0.8712  0.3260
15091TIP3    H166688   6.403   3.497  15.936  0.5526 -2.6492 -1.2278
15091TIP3    H266689   6.532   3.551  15.994 -0.1072 -0.8909 -1.3435
15092TIP3   OH266690   2.825   2.598  13.918 -0.5516 -0.1632  0.0557
15092TIP3    H166691   2.845   2.512  13.881 -1.4656  0.5308 -2.2318
15092TIP3    H266692   2.811   2.655  13.842 -3.6852  1.1317  1.3978
15093TIP3   OH266693   5.015   1.308   6.472  0.0997  0.4015  0.2082
15093TIP3    H166694   5.048   1.287   6.384 -0.6236  0.2369 -0.0354
15093TIP3    H266695   5.038   1.400   6.485 -0.7045  0.7374 -0.5973
15094TIP3   OH266696   3.219   0.534   3.487 -0.2963 -0.0858  0.3330
15094TIP3    H166697   3.276   0.585   3.430  0.7029 -0.5696  0.8659
15094TIP3    H266698   3.157   0.491   3.428 -0.4645  0.8874 -0.2086
15095TIP3   OH266699   6.771   5.125  12.103 -0.6977  0.2684  0.2281
15095TIP3    H166700   6.787   5.045  12.155 -1.5256  1.0965  1.8529
15095TIP3    H266701   6.712   5.177  12.158 -1.7514  1.1636 -1.6497
15096TIP3   OH266702   3.591   0.609  12.795  0.1954  0.4535 -0.4647
15096TIP3    H166703   3.644   0.625  12.717  0.7302  0.6224 -0.0751
15096TIP3    H266704   3.514   0.562  12.763  1.3488 -1.3058 -0.8390
15097TIP3   OH266705   3.277   1.414  10.367 -0.2384  0.1190  0.2242
15097TIP3    H166706   3.208   1.368  10.319 -0.5454 -1.7282  2.2737
15097TIP3    H266707   3.314   1.348  10.426  0.5337  2.0727  2.0746
15098TIP3   OH266708   1.783   2.220  16.841 -0.0130  0.1056  0.3126
15098TIP3    H166709   1.715   2.227  16.775 -0.4073  0.0595  0.7115
15098TIP3    H266710   1.803   2.311  16.864  1.2463  0.1971 -0.9930
15099TIP3   OH266711   3.929   6.561   2.515 -0.2636 -0.1776  0.2296
15099TIP3    H166712   3.895   6.473   2.495 -1.6718  0.5957 -1.0100
15099TIP3    H266713   3.865   6.620   2.476  0.8144  1.4133  0.7913
15100TIP3   OH266714   0.305   2.504   2.229 -0.5380 -0.2195 -0.0040
15100TIP3    H166715   0.221   2.503   2.275  0.3673  0.6579  1.7534
15100TIP3    H266716   0.281   2.512   2.137 -2.3916  0.3118  0.4740
15101TIP3   OH266717   0.581   4.475   1.997 -0.8756  0.4675 -0.3873
15101TIP3    H166718   0.675   4.489   2.010 -1.0005  1.1054 -0.1100
15101TIP3    H266719   0.545   4.470   2.085 -0.9446 -1.0458 -0.4770
15102TIP3   OH266720   6.368   6.063  11.453  0.0503 -0.4082  0.3131
15102TIP3    H166721   6.277   6.044  11.431  0.0146  0.4527 -0.3445
15102TIP3    H266722   6.362   6.128  11.524  0.1200  0.8165 -0.7686
15103TIP3   OH266723   2.850   4.838   1.903  0.5645 -0.3743  0.2589
15103TIP3    H166724   2.921   4.863   1.962  0.1867  0.7470  0.2578
15103TIP3    H266725   2.798   4.918   1.893  0.1513 -0.7815 -0.9289
15104TIP3   OH266726   6.512   4.776  16.743 -0.0024 -0.5573 -0.3042
15104TIP3    H166727   6.527   4.682  16.744  3.3507 -0.1397  1.2028
15104TIP3    H266728   6.550   4.806  16.661  1.9600 -0.2101  0.6830
15105TIP3   OH266729   6.489   1.151  12.839  0.0815  0.0268  0.2673
15105TIP3    H166730   6.564   1.210  12.842 -1.0980  1.7177 -0.9076
15105TIP3    H266731   6.413   1.210  12.844 -1.1552 -1.3898 -0.9480
15106TIP3   OH266732   0.085   6.516   4.226  0.0928  0.2182 -0.3233
15106TIP3    H166733   0.089   6.484   4.136 -2.3761 -0.1936 -0.3730
15106TIP3    H266734   0.002   6.564   4.230 -1.2764 -2.0459  2.3731
15107TIP3   OH266735   5.104   4.163   6.655  0.2270 -0.0898  0.0952
15107TIP3    H166736   5.015   4.126   6.653  0.1942 -0.0809  1.0465
15107TIP3    H266737   5.157   4.101   6.605 -0.1554 -0.5458  0.2504
15108TIP3   OH266738   6.315   6.013  16.932 -0.0244  0.1425 -0.0538
15108TIP3    H166739   6.349   6.102  16.944 -1.1031  0.5769 -0.1540
15108TIP3    H266740   6.294   6.008  16.838  0.9398 -0.5613 -0.2527
15109TIP3   OH266741   0.805   3.834   1.419 -0.0014  0.0900 -0.4283
15109TIP3    H166742   0.779   3.876   1.337 -2.6951  0.2046  0.3714
15109TIP3    H266743   0.781   3.898   1.487  1.1915 -0.4309  0.5200
15110TIP3   OH266744   0.006   0.242  11.868 -0.1909 -0.0909 -0.5768
15110TIP3    H166745  -0.048   0.280  11.937 -0.1154  0.0253 -0.5824
15110TIP3    H266746  -0.057   0.205  11.806 -0.2434 -1.3585  0.2064
15111TIP3   OH266747   1.507   2.502  12.143  0.3067  0.1970 -0.4696
15111TIP3    H166748   1.456   2.442  12.089 -0.8086 -1.9481  2.6758
15111TIP3    H266749   1.562   2.550  12.081 -0.8907 -1.9703 -3.4252
15112TIP3   OH266750   4.111   5.281  12.676 -0.9961 -0.1383 -0.4272
15112TIP3    H166751   4.167   5.228  12.619  0.5771  0.8774  0.1056
15112TIP3    H266752   4.061   5.217  12.726  0.6864 -1.1683  0.0401
15113TIP3   OH266753   2.636   5.518   3.866 -0.3067 -0.2191 -0.3683
15113TIP3    H166754   2.608   5.558   3.784  3.0338 -1.2978 -2.2122
15113TIP3    H266755   2.632   5.424   3.850 -0.3896 -0.4744  1.0209
15114TIP3   OH266756   1.662   0.594  11.294  0.0381 -0.4259 -0.3091
15114TIP3    H166757   1.637   0.677  11.334 -0.3714  0.1777 -1.7700
15114TIP3    H266758   1.745   0.572  11.336  1.3125  1.8647 -1.3946
15115TIP3   OH266759   6.332   6.051   4.231  0.0065  0.0547  0.0507
15115TIP3    H166760   6.380   6.133   4.237 -0.9312  0.5285  1.5258
15115TIP3    H266761   6.373   5.994   4.296  1.1872 -0.9815 -1.5186
15116TIP3   OH266762   0.840   2.999   1.822 -0.4382 -0.4181 -0.6720
15116TIP3    H166763   0.900   3.073   1.814 -0.7271  0.0698  1.2102
15116TIP3    H266764   0.897   2.923   1.835 -0.1609 -0.4730 -2.0510
15117TIP3   OH266765   6.511   5.791   2.446 -0.3107 -0.7354 -0.0520
15117TIP3    H166766   6.550   5.781   2.359  0.0617 -2.3357  0.2722
15117TIP3    H266767   6.530   5.882   2.470  2.1428 -1.0660 -0.4624
15118TIP3   OH266768   1.445   2.816   0.939 -0.2806 -0.1389  0.2210
15118TIP3    H166769   1.387   2.844   1.010  0.9044  0.4788  0.9735
15118TIP3    H266770   1.398   2.841   0.859 -1.0947  0.2626  0.8070
15119TIP3   OH266771   6.665   1.625  16.766  0.3942  0.4280  0.1265
15119TIP3    H166772   6.706   1.701  16.809 -0.5111  1.1813 -0.2960
15119TIP3    H266773   6.652   1.562  16.836 -0.0093  1.1827  0.7506
15120TIP3   OH266774   2.040   1.825   5.616  0.1284 -1.0100 -0.2006
15120TIP3    H166775   2.007   1.913   5.635 -1.2545 -0.9339 -2.5802
15120TIP3    H266776   2.088   1.835   5.534  0.5009 -2.3620 -0.1707
15121TIP3   OH266777   6.078   0.788  16.222  0.0743  0.0136  0.0393
15121TIP3    H166778   6.154   0.811  16.169 -0.6642  0.0370 -1.0381
15121TIP3    H266779   6.021   0.741  16.163 -0.9300  0.3311  0.7256
15122TIP3   OH266780   6.523   1.576   2.699  0.1570  0.3191  0.0585
15122TIP3    H166781   6.531   1.671   2.707  1.5737  0.2486 -0.2753
15122TIP3    H266782   6.568   1.542   2.776  0.8447 -0.0969 -0.5157
15123TIP3   OH266783   1.199   6.055  11.573 -0.4386  0.1925  0.1262
15123TIP3    H166784   1.110   6.066  11.607  0.3184  1.5098  1.8438
15123TIP3    H266785   1.234   6.144  11.568  0.8169 -0.3066 -0.4402
15124TIP3   OH266786   0.082   1.177  11.288 -0.5699 -0.4212 -0.5751
15124TIP3    H166787   0.106   1.092  11.323  2.0236  0.1074 -0.9076
15124TIP3    H266788   0.091   1.237  11.362  1.3943  0.1237 -1.2021
15125TIP3   OH266789   6.613   6.636  12.611 -0.6744 -0.3931  0.0825
15125TIP3    H166790   6.584   6.626  12.702  0.2453  0.6785  0.5293
15125TIP3    H266791   6.544   6.688  12.570 -0.9340 -0.5957  0.2590
15126TIP3   OH266792   5.206   5.236  11.557 -0.7399 -0.1474  0.2719
15126TIP3    H166793   5.252   5.164  11.514 -2.1380 -0.3814 -0.9445
15126TIP3    H266794   5.172   5.198  11.638  0.9691 -0.0200  1.0807
15127TIP3   OH266795   1.627   4.118   5.137 -0.1993  0.3615 -0.0382
15127TIP3    H166796   1.633   4.109   5.041  1.1635  0.3752  0.0201
15127TIP3    H266797   1.706   4.074   5.169  0.1840  1.7154  0.9775
15128TIP3   OH266798   3.444   2.991   5.618 -0.4900 -0.5181  0.4356
15128TIP3    H166799   3.384   3.001   5.692 -0.9804  2.1808 -0.2437
15128TIP3    H266800   3.389   2.959   5.546 -0.2323 -2.0270  0.8638
15129TIP3   OH266801   0.250   1.298   3.215  0.1917 -0.0163  0.1912
15129TIP3    H166802   0.204   1.215   3.233 -0.4154  0.3851  0.5266
15129TIP3    H266803   0.330   1.271   3.170 -0.4115 -0.7368 -0.4887
15130TIP3   OH266804   2.396   4.255  13.614 -0.1865 -0.4475 -0.0528
15130TIP3    H166805   2.414   4.220  13.701  1.4123  0.0790 -0.1304
15130TIP3    H266806   2.450   4.203  13.555  0.8668  0.9266 -0.3715
15131TIP3   OH266807   2.271   0.408   2.411 -0.0985  0.0453 -0.2232
15131TIP3    H166808   2.362   0.415   2.384  0.0109 -1.9650 -0.5523
15131TIP3    H266809   2.221   0.423   2.331 -0.1319  1.8748  0.0973
15132TIP3   OH266810   1.020   5.768   0.966  0.5323  0.3626  0.3458
15132TIP3    H166811   0.999   5.674   0.968 -0.4961  0.5762  0.2761
15132TIP3    H266812   0.934   5.811   0.967  1.0064  1.3134  0.8254
15133TIP3   OH266813   5.937   3.901   0.619 -0.2391 -0.2895  0.1098
15133TIP3    H166814   5.865   3.940   0.668 -0.5575 -0.9312  0.1609
15133TIP3    H266815   6.013   3.955   0.641 -1.2145  2.2670 -2.2409
15134TIP3   OH266816   6.245   2.117   2.877  0.0227  0.3606 -0.0724
15134TIP3    H166817   6.290   2.038   2.907  1.7474  0.6737 -1.6564
15134TIP3    H266818   6.163   2.086   2.841  0.4901 -0.6827 -0.2757
15135TIP3   OH266819   5.647   2.550   1.024  0.0157  0.2976 -0.2900
15135TIP3    H166820   5.663   2.601   0.945  1.0805  1.0592  0.3747
15135TIP3    H266821   5.702   2.472   1.014  0.9878  0.9036  0.1391
15136TIP3   OH266822   0.967   2.105   2.147  0.1706 -0.2012 -0.2627
15136TIP3    H166823   1.058   2.117   2.176  0.3839  0.3849 -1.1260
15136TIP3    H266824   0.924   2.188   2.167  0.1494 -0.0340 -0.9860
15137TIP3   OH266825   3.844   3.044   5.512  0.0635 -0.7302  0.8935
15137TIP3    H166826   3.883   3.122   5.471 -1.5411 -0.3039  0.0660
15137TIP3    H266827   3.873   3.047   5.603  1.1055  0.1074  0.5510
15138TIP3   OH266828   1.189   1.190   2.068  0.7013 -0.0938 -0.4779
15138TIP3    H166829   1.279   1.160   2.079  0.5567 -1.3730 -2.2729
15138TIP3    H266830   1.147   1.172   2.152  1.3420 -2.4676 -0.5900
15139TIP3   OH266831   3.391   5.676  11.710 -0.3044 -0.6003 -0.1171
15139TIP3    H166832   3.344   5.618  11.649 -1.4380  1.0576 -0.8733
15139TIP3    H266833   3.434   5.740  11.654  0.3894 -0.3039  0.7408
15140TIP3   OH266834   4.387   3.808  10.465  0.0233 -0.2164  0.3133
15140TIP3    H166835   4.368   3.743  10.533 -2.0782 -0.5782 -0.5369
15140TIP3    H266836   4.472   3.846  10.491  0.6337 -2.2877  1.5814
15141TIP3   OH266837   2.320   1.669   4.217  0.9554  0.0013  0.5288
15141TIP3    H166838   2.232   1.670   4.255  1.3232 -0.6487  1.4444
15141TIP3    H266839   2.378   1.663   4.293  1.7592 -0.3333 -0.1015
15142TIP3   OH266840   2.664   5.246   0.905  0.0115 -0.1434  0.3353
15142TIP3    H166841   2.741   5.301   0.890 -0.6941  1.0221  0.8724
15142TIP3    H266842   2.621   5.240   0.820  0.6663 -0.7750  0.0403
15143TIP3   OH266843   1.601   5.126  15.713 -0.7864 -0.2061 -0.0510
15143TIP3    H166844   1.696   5.133  15.700 -1.0083  2.3819 -0.6856
15143TIP3    H266845   1.591   5.119  15.808  0.0273 -1.1561 -0.0068
15144TIP3   OH266846   6.051   5.668  16.695  0.5522  0.3153  0.2295
15144TIP3    H166847   6.102   5.689  16.773  1.1654 -1.3990  0.3303
15144TIP3    H266848   5.965   5.643  16.728  0.8375 -0.4892  0.3717
15145TIP3   OH266849   2.683   3.735  16.571  0.2123 -0.2051 -0.2014
15145TIP3    H166850   2.697   3.645  16.542  1.5314  0.5297 -2.0176
15145TIP3    H266851   2.634   3.776  16.500  0.7341  0.8300  0.0173
15146TIP3   OH266852   4.405   0.830  16.314 -0.0228  0.0873  0.3334
15146TIP3    H166853   4.471   0.884  16.269 -0.5635  1.2188  0.8540
15146TIP3    H266854   4.328   0.836  16.259  0.7781 -2.7921 -1.2937
15147TIP3   OH266855   0.340   4.668  14.371  0.0176 -0.2274 -0.2057
15147TIP3    H166856   0.425   4.697  14.337 -0.1293  0.5878  0.0884
15147TIP3    H266857   0.335   4.708  14.458 -1.8604  2.1225 -1.2799
15148TIP3   OH266858   5.253   4.752  12.928  0.5105  0.4767  0.2136
15148TIP3    H166859   5.206   4.835  12.923  0.3971  0.4072  0.1136
15148TIP3    H266860   5.264   4.736  13.021 -2.0039 -0.8037  0.3807
15149TIP3   OH266861   6.640   4.727   2.002 -0.3475  0.4161 -0.0588
15149TIP3    H166862   6.595   4.693   2.079 -0.7710  0.9375 -0.0721
15149TIP3    H266863   6.731   4.735   2.030 -0.5578  0.9339  0.5064
15150TIP3   OH266864   1.622   0.136   2.033  0.0236  0.1573 -0.4834
15150TIP3    H166865   1.526   0.139   2.028  0.0299  1.0450 -0.2489
15150TIP3    H266866   1.641   0.153   2.125  0.4843  3.1477 -1.0307
15151TIP3   OH266867   3.775   4.921  13.745 -0.3223 -0.2057  0.3043
15151TIP3    H166868   3.723   4.854  13.699  0.1936  0.4327 -1.2512
15151TIP3    H266869   3.724   5.001  13.737 -0.1774 -0.0586  0.7914
15152TIP3   OH266870   3.586   5.153   5.326 -0.2866  0.1546 -0.6737
15152TIP3    H166871   3.535   5.229   5.353 -0.5421  0.2802 -1.4913
15152TIP3    H266872   3.577   5.151   5.231  1.5337  0.4210 -0.8967
15153TIP3   OH266873   5.066   6.057   3.879 -0.5634  0.3664  0.5355
15153TIP3    H166874   4.973   6.037   3.891 -0.6398  0.4137  0.0313
15153TIP3    H266875   5.068   6.149   3.852 -0.6546 -0.5013 -2.8863
15154TIP3   OH266876   1.549   5.840  14.073 -0.4571 -0.1052 -0.1897
15154TIP3    H166877   1.639   5.808  14.072 -0.8094 -1.1234 -0.4287
15154TIP3    H266878   1.552   5.918  14.128  0.3237 -0.8788  0.8935
15155TIP3   OH266879   0.037   2.985   0.161  0.4074  0.6363 -0.3280
15155TIP3    H166880   0.098   3.039   0.111  1.6672 -0.0437  0.4070
15155TIP3    H266881   0.059   3.003   0.253 -0.4875  0.3450 -0.0452
15156TIP3   OH266882   3.322   6.160   1.444 -0.0430 -0.0895  0.0107
15156TIP3    H166883   3.417   6.159   1.445 -0.0477 -0.6188  0.4242
15156TIP3    H266884   3.298   6.245   1.481  0.2693 -0.2241  0.5422
15157TIP3   OH266885   2.284   1.833   4.497 -0.3890 -0.1532 -0.7015
15157TIP3    H166886   2.241   1.896   4.439  0.1877 -1.0430 -2.1442
15157TIP3    H266887   2.223   1.760   4.503 -0.0414 -0.4715 -0.9725
15158TIP3   OH266888   2.093   6.035  16.778  0.6252 -0.0858  0.0385
15158TIP3    H166889   2.105   6.078  16.693 -0.2594  0.2395  0.0650
15158TIP3    H266890   2.000   6.013  16.781  0.4018  0.8680  1.3563
15159TIP3   OH266891   0.372   6.341  14.706  0.4575 -0.0377 -0.2496
15159TIP3    H166892   0.319   6.417  14.730  0.9551  0.4648 -0.7222
15159TIP3    H266893   0.308   6.272  14.688  0.0105 -1.0476  4.1939
15160TIP3   OH266894   0.724   4.347   5.785  0.0589 -0.2202 -0.1906
15160TIP3    H166895   0.726   4.253   5.767 -0.9540 -0.6846  1.8508
15160TIP3    H266896   0.638   4.362   5.824 -0.4007  1.8580 -1.8320
15161TIP3   OH266897   6.143   4.886  17.240  0.8943  0.0279 -0.1258
15161TIP3    H166898   6.084   4.931  17.179  1.2388 -0.4840 -0.8513
15161TIP3    H266899   6.223   4.872  17.189  1.3944  0.0973  0.6310
15162TIP3   OH266900   5.172   3.100   4.785 -0.8678 -0.4339 -0.2213
15162TIP3    H166901   5.184   3.015   4.743 -1.1634 -0.4605 -0.2541
15162TIP3    H266902   5.110   3.146   4.728 -0.0231  0.1465 -0.6919
15163TIP3   OH266903   5.233   3.577   4.386  0.5999  0.1807  0.2498
15163TIP3    H166904   5.149   3.531   4.385  0.5480  0.2763  0.2110
15163TIP3    H266905   5.295   3.514   4.349  0.6942 -0.1782  0.9889
15164TIP3   OH266906   5.266   3.741   3.900 -0.0274  0.2343 -0.2182
15164TIP3    H166907   5.345   3.718   3.949 -0.9140 -1.0239  0.6721
15164TIP3    H266908   5.262   3.677   3.829 -0.6679 -0.2341  0.2276
15165TIP3   OH266909   5.069   5.587  11.233  0.5130 -0.4079 -0.5463
15165TIP3    H166910   5.007   5.591  11.160 -0.6259 -0.7645  0.3745
15165TIP3    H266911   5.084   5.493  11.246  0.8863 -0.3375 -0.4647
15166TIP3   OH266912   1.080   2.751  15.439 -0.0924 -0.3375 -0.2422
15166TIP3    H166913   0.988   2.769  15.421 -0.0219 -0.2776 -0.5489
15166TIP3    H266914   1.104   2.684  15.375  0.1004 -0.2844 -0.2253
15167TIP3   OH266915   5.021   1.050  12.069  0.6537  0.1044  0.1292
15167TIP3    H166916   4.995   1.068  11.979  2.8797  0.4599 -0.5100
15167TIP3    H266917   4.994   1.128  12.118 -0.2072  0.0851 -0.3086
15168TIP3   OH266918   4.800   1.233   5.837  0.3877 -0.4346  0.1997
15168TIP3    H166919   4.794   1.148   5.882  0.5498 -0.5481  0.0077
15168TIP3    H266920   4.858   1.216   5.763 -1.2466 -0.6808 -1.0699
15169TIP3   OH266921   5.054   6.690  13.259 -0.4919  0.6967 -0.2169
15169TIP3    H166922   5.103   6.771  13.252 -0.5136  0.7890  0.6597
15169TIP3    H266923   4.983   6.709  13.320  0.2685 -0.3284  1.0527
15170TIP3   OH266924   1.050   2.624  14.386 -0.2459  0.0364 -0.7750
15170TIP3    H166925   1.007   2.611  14.301 -2.0101 -0.7145  0.1720
15170TIP3    H266926   1.039   2.718  14.403 -0.5320  0.0602 -1.0645
15171TIP3   OH266927   0.870   3.258  14.490 -0.3278  0.4489  0.0792
15171TIP3    H166928   0.802   3.196  14.516 -0.6831  0.4900 -0.7013
15171TIP3    H266929   0.934   3.256  14.561 -1.0914  0.3257  0.7667
15172TIP3   OH266930   2.358   6.704   1.290  0.0613 -0.1862 -0.0825
15172TIP3    H166931   2.447   6.721   1.320  0.1835  0.6022 -0.8562
15172TIP3    H266932   2.350   6.609   1.290  0.6714 -0.2475  0.6258
15173TIP3   OH266933   6.079   0.262  11.393 -0.0140  0.2072  0.1934
15173TIP3    H166934   6.175   0.254  11.395  0.1317  1.2497 -1.2689
15173TIP3    H266935   6.063   0.354  11.417 -0.5288  0.5187 -1.2844
15174TIP3   OH266936   5.496   4.267   3.811 -0.1824  0.2172  0.1196
15174TIP3    H166937   5.434   4.211   3.858  0.8634 -0.1817  1.0403
15174TIP3    H266938   5.582   4.231   3.832  0.3411 -0.2734 -2.4522
15175TIP3   OH266939   5.369   2.703   3.813 -0.1139  0.4473 -0.2163
15175TIP3    H166940   5.361   2.640   3.885 -0.5868  0.2541 -0.4382
15175TIP3    H266941   5.341   2.786   3.851 -2.4698 -0.0303 -0.7185
15176TIP3   OH266942   6.209   5.887   0.053  0.0416 -0.2452 -0.9911
15176TIP3    H166943   6.122   5.890   0.013 -0.5126 -0.6315  0.1585
15176TIP3    H266944   6.242   5.800   0.032 -0.2016 -0.4064 -0.7105
15177TIP3   OH266945   3.141   4.660   2.368 -0.0898 -0.4706  0.9131
15177TIP3    H166946   3.118   4.647   2.460 -1.5257 -0.9804  0.5070
15177TIP3    H266947   3.067   4.708   2.330  0.5664 -0.0902  0.0535
15178TIP3   OH266948   1.325   6.438  16.467 -0.5602 -0.1656 -0.1315
15178TIP3    H166949   1.234   6.425  16.441 -0.2436  0.1795 -1.4741
15178TIP3    H266950   1.376   6.396  16.398  0.3098  0.0447  0.3708
15179TIP3   OH266951   6.730   1.352  13.872  0.6378  0.8074 -0.2789
15179TIP3    H166952   6.683   1.312  13.798  1.5925  1.4601 -1.2695
15179TIP3    H266953   6.670   1.342  13.946 -0.2163 -0.1544 -1.0607
15180TIP3   OH266954   0.080   2.083  15.222  0.4621  0.0175 -0.5153
15180TIP3    H166955   0.098   2.176  15.239 -0.7049  0.5488 -1.9496
15180TIP3    H266956  -0.008   2.069  15.259  1.6005 -1.2219  1.9362
15181TIP3   OH266957   1.109   4.376  12.875 -0.4885  0.2731  0.3289
15181TIP3    H166958   1.109   4.373  12.971 -0.0680 -0.6181  0.3146
15181TIP3    H266959   1.157   4.456  12.853  0.9304 -0.4100  0.8629
15182TIP3   OH266960   0.689   4.810   4.549 -0.7721  0.2028 -0.4640
15182TIP3    H166961   0.679   4.733   4.605 -1.0559  1.6081  1.5102
15182TIP3    H266962   0.784   4.817   4.536 -0.7488 -0.5195 -0.7649
15183TIP3   OH266963   5.313   0.071  14.130  0.0249 -0.0521 -0.3722
15183TIP3    H166964   5.238   0.021  14.097  0.2496  0.5362 -1.8637
15183TIP3    H266965   5.388   0.032  14.087  1.0408 -2.5231  3.2442
15184TIP3   OH266966   1.050   1.297  15.712 -0.1376  0.8330  0.4504
15184TIP3    H166967   1.028   1.287  15.619  1.9212 -0.0847  0.0114
15184TIP3    H266968   1.068   1.209  15.743 -1.3979  1.0483  1.9350
15185TIP3   OH266969   4.961   2.713  17.104  0.3611 -0.1321 -1.0716
15185TIP3    H166970   4.954   2.803  17.136  0.1037 -0.2860 -0.6898
15185TIP3    H266971   4.903   2.663  17.160  0.0784 -0.4494 -1.6421
15186TIP3   OH266972   0.976   3.774   3.860 -0.4054 -0.0496  0.0315
15186TIP3    H166973   0.989   3.774   3.766  0.7355  0.5461  0.1663
15186TIP3    H266974   0.946   3.686   3.881 -0.5922 -0.2083 -0.8761
15187TIP3   OH266975   1.938   1.974  12.223  0.3598  0.5610  0.6407
15187TIP3    H166976   1.844   1.984  12.237  0.5116  1.8078  0.8642
15187TIP3    H266977   1.946   1.895  12.169 -0.8746  0.9591 -0.1738
15188TIP3   OH266978   0.511   4.957   4.908  0.2867  0.3921 -0.4604
15188TIP3    H166979   0.483   5.028   4.851 -0.3054  3.0978  2.8334
15188TIP3    H266980   0.607   4.960   4.905  0.3394  2.6297  0.8572
15189TIP3   OH266981   6.534   6.624   5.881  0.0729 -0.1300 -0.5852
15189TIP3    H166982   6.474   6.693   5.909  1.1368  0.5469  0.0758
15189TIP3    H266983   6.598   6.668   5.824 -0.2527 -0.9139 -1.5980
15190TIP3   OH266984   2.745   3.654  16.861  0.5246  0.2753  0.5567
15190TIP3    H166985   2.713   3.674  16.773  0.3960  0.6460  0.6869
15190TIP3    H266986   2.764   3.560  16.859 -0.4185  0.0806  0.4318
15191TIP3   OH266987   5.187   4.051  11.850 -0.5640  0.7218 -0.1634
15191TIP3    H166988   5.124   4.122  11.860 -0.7649  0.4266  0.7785
15191TIP3    H266989   5.137   3.980  11.809 -1.6706 -0.5032  3.0179
15192TIP3   OH266990   5.049   6.738   5.450 -0.5117  0.6457  0.0738
15192TIP3    H166991   4.986   6.795   5.495 -1.5744  1.2117 -1.9635
15192TIP3    H266992   5.028   6.650   5.480 -1.7741  0.9176  0.0448
15193TIP3   OH266993   5.964   6.778   2.710 -0.3176  0.1833  0.0495
15193TIP3    H166994   5.872   6.797   2.690 -0.5520 -1.2692 -0.3903
15193TIP3    H266995   5.970   6.683   2.702  1.1729  0.2426  0.3372
15194TIP3   OH266996   0.464   1.882   4.796  0.4879 -0.0371  0.2181
15194TIP3    H166997   0.479   1.872   4.890  0.6908  0.3341  0.2272
15194TIP3    H266998   0.538   1.934   4.765 -0.8059  1.9819  0.2830
15195TIP3   OH266999   1.959   2.285   1.920 -0.2683  0.1038  0.1651
15195TIP3    H167000   1.937   2.349   1.987 -1.8957 -2.0850  1.8680
15195TIP3    H267001   1.880   2.275   1.868 -0.8095 -1.9866  1.2708
15196TIP3   OH267002   4.855   0.777  12.422 -0.5960 -0.0927  0.1644
15196TIP3    H167003   4.922   0.781  12.354  0.0776 -1.6618  0.6619
15196TIP3    H267004   4.856   0.864  12.462  0.9901  0.0201 -0.0261
15197TIP3   OH267005   6.773   5.649  10.687 -0.0551  0.0345 -0.0758
15197TIP3    H167006   6.751   5.704  10.763  0.7521  1.4120 -0.8017
15197TIP3    H267007   6.820   5.574  10.725  0.6344  0.8667  0.7696
15198TIP3   OH267008   1.295   2.100  13.954 -0.5849  0.1319  0.1761
15198TIP3    H167009   1.244   2.170  13.994 -0.8311 -0.8805  1.7443
15198TIP3    H267010   1.381   2.105  13.995 -0.1317  0.3866 -0.7618
15199TIP3   OH267011   6.216   4.163   3.861  0.3639 -0.1042 -0.0550
15199TIP3    H167012   6.228   4.102   3.934  0.0016 -0.4191 -0.2575
15199TIP3    H267013   6.174   4.239   3.900 -0.4561 -0.5484 -0.0603
15200TIP3   OH267014   3.637   5.939  15.279  0.0631  0.3291 -0.1030
15200TIP3    H167015   3.545   5.956  15.262 -0.0260 -0.3312 -0.2766
15200TIP3    H267016   3.661   5.869  15.218  0.2447 -0.6884  1.1095
15201TIP3   OH267017   3.321   5.696  13.610 -0.1414 -0.4480 -0.8160
15201TIP3    H167018   3.308   5.783  13.571 -2.9845 -0.4170 -0.0789
15201TIP3    H267019   3.395   5.659  13.564  1.4195  2.4992 -0.9187
15202TIP3   OH267020   6.251   5.657  11.088  0.0795 -0.3629  0.0164
15202TIP3    H167021   6.287   5.742  11.060  0.2991 -0.2561  0.6094
15202TIP3    H267022   6.203   5.625  11.012 -0.9760  0.8297  0.1307
15203TIP3   OH267023   1.759   1.787  14.944 -0.0233  0.4750  0.7152
15203TIP3    H167024   1.787   1.875  14.970  0.6957  0.2066  0.8682
15203TIP3    H267025   1.731   1.746  15.026  0.6740  0.1952  0.8208
15204TIP3   OH267026   3.091   5.324   0.262  0.2925  0.3918 -0.4504
15204TIP3    H167027   3.075   5.248   0.206  1.4721  0.4018 -0.8315
15204TIP3    H267028   3.048   5.396   0.217 -1.9334 -0.2363  0.5537
15205TIP3   OH267029   2.588   3.870  11.803 -0.0283 -0.3934 -0.4320
15205TIP3    H167030   2.653   3.804  11.828 -0.4651 -1.2667 -1.5616
15205TIP3    H267031   2.509   3.845  11.852  0.4275  0.6402  0.9022
15206TIP3   OH267032   1.814   2.759  14.098 -0.2878 -0.1744  0.5663
15206TIP3    H167033   1.727   2.733  14.069 -0.9300  1.7113  0.6648
15206TIP3    H267034   1.798   2.826  14.165  1.2098  1.4221 -0.5788
15207TIP3   OH267035   4.268   2.007  12.273  0.0878  0.8403  0.4111
15207TIP3    H167036   4.239   2.072  12.338 -1.2442  0.8059 -0.1213
15207TIP3    H267037   4.327   1.950  12.322 -2.1136 -0.1549  2.0939
15208TIP3   OH267038   2.344   1.955  14.862 -0.3093  0.1492  0.1652
15208TIP3    H167039   2.422   1.954  14.806 -1.1102  1.0842 -1.0219
15208TIP3    H267040   2.271   1.943  14.801 -1.0890 -1.0824  1.3049
15209TIP3   OH267041   1.643   3.988   5.914 -0.5903  0.3783 -0.3262
15209TIP3    H167042   1.695   4.063   5.886  0.1345  0.2645  0.6400
15209TIP3    H267043   1.666   3.977   6.007 -0.9207 -0.8345 -0.3724
15210TIP3   OH267044   3.872   2.109  14.670  0.6940  0.2230 -0.4712
15210TIP3    H167045   3.963   2.138  14.659  0.0858  1.7460 -1.8453
15210TIP3    H267046   3.822   2.160  14.607 -0.8410 -2.2060 -1.3969
15211TIP3   OH267047   6.709   3.090   3.417  0.0402 -0.4041  0.2888
15211TIP3    H167048   6.645   3.159   3.398  0.8308 -0.0505 -1.3615
15211TIP3    H267049   6.688   3.060   3.505 -1.7620  0.3710  0.1561
15212TIP3   OH267050   5.144   3.712   6.333 -0.0180  0.5037  0.7067
15212TIP3    H167051   5.131   3.780   6.400  0.8260  2.4006 -0.9710
15212TIP3    H267052   5.095   3.743   6.257 -0.5837 -1.3961  0.2251
15213TIP3   OH267053   2.988   3.093  12.170 -0.0602 -0.1428  0.3176
15213TIP3    H167054   3.071   3.060  12.204 -0.8009 -1.4126  0.9642
15213TIP3    H267055   2.967   3.167  12.226 -0.3284 -1.0389  1.4192
15214TIP3   OH267056   2.343   3.046   0.897 -0.3216 -0.0975 -0.4317
15214TIP3    H167057   2.432   3.072   0.922 -0.3531 -0.2890 -0.1159
15214TIP3    H267058   2.296   3.038   0.980 -1.1137  1.6610 -0.6502
15215TIP3   OH267059   4.493   0.991  12.558 -0.5810 -0.4953  1.0130
15215TIP3    H167060   4.409   1.028  12.533 -0.3831  1.3488  2.7996
15215TIP3    H267061   4.503   1.014  12.650  3.0575  1.7899  0.2573
15216TIP3   OH267062   6.465   6.039   3.219  0.4730 -0.3011  0.1342
15216TIP3    H167063   6.486   6.110   3.158  0.3623  0.0186  0.4618
15216TIP3    H267064   6.547   5.991   3.229  0.7255  0.1802  0.4246
15217TIP3   OH267065   3.716   1.440   5.617  0.1790 -0.3382 -0.9851
15217TIP3    H167066   3.795   1.386   5.622 -0.2827 -0.9475 -0.1366
15217TIP3    H267067   3.650   1.392   5.667 -0.5229  0.5379 -1.0400
15218TIP3   OH267068   3.203   6.237   0.682 -0.1216  0.2442 -0.5132
15218TIP3    H167069   3.207   6.327   0.651  0.1408  0.4484  0.0829
15218TIP3    H267070   3.294   6.206   0.676 -0.1754  0.0912 -0.5252
15219TIP3   OH267071   5.836   4.073  12.048 -0.3439  0.0195 -0.4569
15219TIP3    H167072   5.759   4.072  11.991  0.7935  2.2766 -2.1787
15219TIP3    H267073   5.890   3.999  12.018  0.6004  1.6175 -2.9724
15220TIP3   OH267074   1.804   0.620   3.771  0.4760 -0.1346 -0.2185
15220TIP3    H167075   1.801   0.656   3.682  2.8808 -0.4372 -0.4987
15220TIP3    H267076   1.893   0.585   3.780 -0.0398 -1.0903  1.9477
15221TIP3   OH267077   1.188   5.521   0.991 -0.7208  1.1061  0.1778
15221TIP3    H167078   1.102   5.500   1.027  0.6401 -1.3113  2.3277
15221TIP3    H267079   1.247   5.520   1.067  1.6439 -0.0275 -1.5461
15222TIP3   OH267080   0.510   2.861   5.465  0.2433 -0.0765 -0.2373
15222TIP3    H167081   0.502   2.955   5.480 -0.6284 -0.4204  1.7568
15222TIP3    H267082   0.445   2.841   5.398 -2.0903  0.2740  1.7816
15223TIP3   OH267083   3.685   3.236  15.122 -0.2254  0.3157  0.3981
15223TIP3    H167084   3.630   3.236  15.200  0.0228  2.3109  0.6008
15223TIP3    H267085   3.625   3.252  15.050 -0.1176  0.9452  0.4488
15224TIP3   OH267086   2.604   1.812  13.941  1.1076  0.2297  0.1635
15224TIP3    H167087   2.673   1.752  13.911  0.8044 -0.2330  0.3711
15224TIP3    H267088   2.650   1.891  13.967  1.5139  0.0979 -0.1417
15225TIP3   OH267089   6.542   5.230  12.992 -0.0203 -0.1166  0.5589
15225TIP3    H167090   6.474   5.191  12.936  0.2246  0.4851 -0.1706
15225TIP3    H267091   6.600   5.157  13.013 -0.9977 -0.6882  1.3655
15226TIP3   OH267092   0.423   0.649  12.132 -0.2727 -0.3831 -0.5643
15226TIP3    H167093   0.346   0.593  12.146  0.2742 -1.2385 -0.9282
15226TIP3    H267094   0.485   0.594  12.085  0.4964  0.3653 -0.4507
15227TIP3   OH267095   5.818   0.172   4.141  0.0549  0.2723 -0.7628
15227TIP3    H167096   5.782   0.239   4.199  0.4541 -0.3337  0.2200
15227TIP3    H267097   5.806   0.090   4.189  1.5647 -0.0900 -0.9515
15228TIP3   OH267098   0.176   5.327   5.471 -0.1843 -0.1438 -0.0792
15228TIP3    H167099   0.167   5.235   5.444  0.6509 -0.1940 -0.2369
15228TIP3    H267100   0.131   5.377   5.404  1.8815 -0.2576 -1.6762
15229TIP3   OH267101   5.908   1.241  10.356 -0.3055 -0.7129  0.1470
15229TIP3    H167102   5.952   1.317  10.395 -0.8207  0.2125 -0.9927
15229TIP3    H267103   5.980   1.187  10.322  0.0330 -0.0961 -0.1447
15230TIP3   OH267104   3.987   3.270   5.461  0.5935  0.4241  0.3306
15230TIP3    H167105   3.924   3.343   5.456  0.1694  0.1395  1.3109
15230TIP3    H267106   4.022   3.263   5.372 -0.4592  0.8665 -0.1395
15231TIP3   OH267107   6.443   4.013  16.966  0.4152  0.1692  0.2624
15231TIP3    H167108   6.404   4.035  16.882 -0.5603 -0.0504  0.6488
15231TIP3    H267109   6.369   3.987  17.021  0.6882  2.7372  2.0005
15232TIP3   OH267110   2.052   2.961  13.441  0.3650  0.4006 -0.3611
15232TIP3    H167111   2.056   3.008  13.524  2.6295 -0.0678 -0.1316
15232TIP3    H267112   2.044   3.029  13.374 -0.1061  0.8577  0.1493
15233TIP3   OH267113   2.516   5.947  13.493 -0.1188  0.0720  0.0690
15233TIP3    H167114   2.421   5.939  13.492 -0.2319  1.1769  0.1662
15233TIP3    H267115   2.544   5.917  13.407 -0.5050 -0.7158  0.2096
15234TIP3   OH267116   2.659   4.482  12.019 -0.0611 -0.0258 -0.0948
15234TIP3    H167117   2.659   4.545  12.091  1.4339 -0.3396  0.1994
15234TIP3    H267118   2.684   4.399  12.059  3.7667  0.3385 -1.3473
15235TIP3   OH267119   1.375   5.435  15.880  0.5915  0.2464 -0.5685
15235TIP3    H167120   1.468   5.445  15.898  0.4662 -0.1787  0.4113
15235TIP3    H267121   1.354   5.507  15.821  1.4950  0.4758 -0.6212
15236TIP3   OH267122   3.983   4.466  15.786  0.3080  0.1740 -0.6318
15236TIP3    H167123   3.921   4.468  15.859  0.2829 -0.1869 -0.6423
15236TIP3    H267124   3.985   4.556  15.754  0.8143  0.4862  0.2406
15237TIP3   OH267125   5.217   1.859  12.260  0.2204  0.2222 -0.5323
15237TIP3    H167126   5.288   1.856  12.324  0.6519 -0.7014 -1.0343
15237TIP3    H267127   5.247   1.803  12.188 -1.5601 -1.2920 -0.1734
15238TIP3   OH267128   5.055   4.145   4.665  0.3269 -0.2795 -0.2150
15238TIP3    H167129   5.068   4.051   4.661  0.8437 -0.2564  0.6101
15238TIP3    H267130   5.144   4.180   4.677 -0.0204  0.2056  1.0196
15239TIP3   OH267131   2.189   1.064  16.856 -0.6742 -0.5150  0.1843
15239TIP3    H167132   2.266   1.044  16.802  0.0264  0.0291  0.9482
15239TIP3    H267133   2.143   1.132  16.808  0.0044  0.0486  0.3226
15240TIP3   OH267134   6.434   1.667  14.937 -0.3049  0.1700  0.5434
15240TIP3    H167135   6.424   1.607  14.863 -2.3026 -2.1744  2.5448
15240TIP3    H267136   6.395   1.749  14.907  0.1508 -0.2738 -1.3936
15241TIP3   OH267137   5.297   1.553   3.783 -0.2327 -0.4265  0.4925
15241TIP3    H167138   5.383   1.534   3.746  0.3479  0.4005  1.3425
15241TIP3    H267139   5.238   1.558   3.708  0.4834 -0.8645 -0.1135
15242TIP3   OH267140   1.926   1.446  13.398 -0.1331 -0.1379 -0.0399
15242TIP3    H167141   1.936   1.353  13.376  0.1813 -0.0293 -0.3732
15242TIP3    H267142   1.888   1.446  13.485 -1.0736 -0.5860 -0.4332
15243TIP3   OH267143   3.202   1.330   3.978 -0.1284  0.1106  0.0253
15243TIP3    H167144   3.267   1.285   3.925  0.4161  1.2860 -0.3213
15243TIP3    H267145   3.193   1.275   4.057 -1.5188 -2.0923 -1.5266
15244TIP3   OH267146   5.774   3.892  15.911  0.4292  0.0519  0.1865
15244TIP3    H167147   5.770   3.851  15.997  2.8155  0.3259  0.5188
15244TIP3    H267148   5.751   3.823  15.850  1.5113 -0.9904  0.9059
15245TIP3   OH267149   4.943   6.171  12.711 -0.0044  0.0048 -0.0747
15245TIP3    H167150   4.936   6.078  12.690 -0.2649 -0.0423  0.2117
15245TIP3    H267151   4.907   6.179  12.799 -0.2345  0.4183 -0.2001
15246TIP3   OH267152   2.387   0.962   0.770  0.5192 -0.2093 -0.3428
15246TIP3    H167153   2.371   0.988   0.679 -3.8835  1.6457  0.7016
15246TIP3    H267154   2.428   0.876   0.763 -0.1647 -0.4233 -4.0935
15247TIP3   OH267155   5.052   6.023   5.317  0.1219 -0.5791  0.0232
15247TIP3    H167156   5.008   5.953   5.366  0.0730 -1.4323 -1.1817
15247TIP3    H267157   4.987   6.053   5.254  1.1365 -1.7675 -1.6990
15248TIP3   OH267158   6.383   1.771  14.454  0.1029  0.3216 -0.1134
15248TIP3    H167159   6.368   1.809  14.367  0.2752 -0.7437 -0.6258
15248TIP3    H267160   6.301   1.785  14.501 -0.5890 -0.5351 -1.0157
15249TIP3   OH267161   5.105   1.677   5.303  0.0616 -0.4903 -0.2433
15249TIP3    H167162   5.176   1.734   5.332  1.1610 -0.7455 -2.2857
15249TIP3    H267163   5.143   1.589   5.301 -0.6460 -0.8040 -0.2704
15250TIP3   OH267164   4.948   3.243   5.354 -0.4168 -0.2020  0.6932
15250TIP3    H167165   4.929   3.315   5.415 -1.2449  1.5501 -1.4689
15250TIP3    H267166   4.865   3.196   5.347 -0.0007 -1.1258  1.7581
15251TIP3   OH267167   5.403   0.986   4.303 -0.6294  0.3674  0.5400
15251TIP3    H167168   5.371   0.896   4.309 -0.9353  0.2994 -1.5339
15251TIP3    H267169   5.425   0.998   4.211  2.7625  1.3229  1.3275
15252TIP3   OH267170   3.180   6.394   2.373  0.5015 -0.3109  0.8378
15252TIP3    H167171   3.088   6.380   2.396 -0.3573  2.2685 -0.6152
15252TIP3    H267172   3.223   6.409   2.457  0.4690 -4.9038  1.9490
15253TIP3   OH267173   5.009   5.689   1.941 -0.0332  0.2818 -0.1533
15253TIP3    H167174   4.943   5.759   1.950 -0.8542  0.0466 -3.2284
15253TIP3    H267175   5.029   5.687   1.848  2.6828 -1.2347  0.3718
15254TIP3   OH267176   1.069   2.899  14.403 -0.5744  0.4578 -0.3441
15254TIP3    H167177   1.139   2.954  14.438  0.2897 -1.4188  1.0959
15254TIP3    H267178   0.991   2.927  14.451 -0.4900  1.4285 -0.7458
15255TIP3   OH267179   2.617   2.683   2.053 -0.0475  0.4885  0.3080
15255TIP3    H167180   2.621   2.591   2.027  1.9651  0.9058 -1.0576
15255TIP3    H267181   2.659   2.686   2.139 -0.0755  0.1366  0.3325
15256TIP3   OH267182   5.927   3.689   5.925  0.0482 -0.7005  0.4086
15256TIP3    H167183   5.930   3.630   5.849  4.2895 -0.1553 -0.1127
15256TIP3    H267184   5.897   3.634   5.997  0.6900 -2.6304 -0.7291
15257TIP3   OH267185   0.737   6.155   2.172  0.7801 -0.3159 -0.0824
15257TIP3    H167186   0.729   6.246   2.200 -1.1314  0.1705 -1.8715
15257TIP3    H267187   0.745   6.105   2.253 -2.0555  1.1384  1.2541
15258TIP3   OH267188   5.955   4.521  17.037 -0.0564  0.7132  0.2511
15258TIP3    H167189   5.888   4.578  16.999  0.0544  0.3033 -0.5852
15258TIP3    H267190   6.031   4.533  16.980  0.3768  0.6756  0.8098
15259TIP3   OH267191   0.846   4.413   3.298 -0.4622 -0.0988  0.4139
15259TIP3    H167192   0.838   4.326   3.336  2.0800 -1.0089 -0.8872
15259TIP3    H267193   0.937   4.438   3.314 -0.3048  1.0110 -1.8619
15260TIP3   OH267194   4.804   0.577   4.912 -0.2407  0.1878  0.1302
15260TIP3    H167195   4.869   0.509   4.897  1.2699  1.4871  0.5831
15260TIP3    H267196   4.805   0.630   4.832  0.2793  1.0138  0.6697
15261TIP3   OH267197   2.476   5.425  16.582  0.3535  0.0212  0.0283
15261TIP3    H167198   2.531   5.468  16.648  0.1125 -0.9260  0.8836
15261TIP3    H267199   2.510   5.455  16.498  1.5391  0.2224  0.5661
15262TIP3   OH267200   6.456   5.187   4.968 -0.1657 -0.0166 -0.0676
15262TIP3    H167201   6.528   5.226   4.919  0.3437 -1.1165 -0.2304
15262TIP3    H267202   6.405   5.140   4.902  0.1061 -0.8933  0.3249
15263TIP3   OH267203   5.537   6.005   0.859 -0.3322 -0.5249 -0.5759
15263TIP3    H167204   5.527   6.068   0.788 -1.1939  1.6281  1.2944
15263TIP3    H267205   5.454   5.957   0.860 -1.5459  1.4302  0.6408
15264TIP3   OH267206   1.867   2.741   4.764 -0.0008  0.9229 -0.3693
15264TIP3    H167207   1.899   2.771   4.849  1.3305  0.5274 -0.7097
15264TIP3    H267208   1.772   2.740   4.773  0.1520 -0.3340  1.5497
15265TIP3   OH267209   6.057   2.011   3.502  0.2778  0.1170 -0.2634
15265TIP3    H167210   6.116   2.084   3.523  1.1352 -0.0229 -1.9851
15265TIP3    H267211   5.983   2.053   3.458  1.2543 -0.0629 -2.2118
15266TIP3   OH267212   5.525   2.259   1.756 -0.2726  0.2017 -0.0006
15266TIP3    H167213   5.594   2.266   1.690 -0.3962 -0.9647 -0.2836
15266TIP3    H267214   5.481   2.344   1.754  1.0014  0.8942  0.0258
15267TIP3   OH267215   3.136   3.276  13.419 -0.4319 -0.4681 -0.1898
15267TIP3    H167216   3.211   3.283  13.359 -0.4251 -1.1954 -0.2816
15267TIP3    H267217   3.172   3.236  13.498 -0.6781 -0.6102 -0.1486
15268TIP3   OH267218   3.775   1.032   4.145 -0.1305  0.4124 -0.0306
15268TIP3    H167219   3.773   0.956   4.203  0.6459  2.0762  2.3509
15268TIP3    H267220   3.851   1.018   4.088  0.4296 -0.2794  0.8634
15269TIP3   OH267221   6.068   5.117  11.039  0.5853 -0.3014 -0.1293
15269TIP3    H167222   6.045   5.189  10.980 -0.6021  0.0632  0.7309
15269TIP3    H267223   6.080   5.042  10.982  1.0220  0.3943 -0.9728
15270TIP3   OH267224   2.358   1.571   1.129  0.4905 -0.0605  0.5518
15270TIP3    H167225   2.355   1.666   1.138  0.7853  0.2389 -1.8294
15270TIP3    H267226   2.424   1.543   1.192  0.7331  1.3563  0.9594
15271TIP3   OH267227   3.001   5.441  16.835 -0.4017 -0.1192 -0.0160
15271TIP3    H167228   2.939   5.514  16.826 -1.3588 -0.6755  1.6129
15271TIP3    H267229   3.001   5.399  16.750 -1.3423  0.6279 -0.4100
15272TIP3   OH267230   1.908   1.428  15.250 -0.1649  0.7839 -0.4297
15272TIP3    H167231   2.004   1.422  15.245 -0.0529 -0.7174  1.8719
15272TIP3    H267232   1.892   1.494  15.318 -0.7910  1.2501 -1.0215
15273TIP3   OH267233   2.026   0.380  11.574  0.2456  0.0813 -0.0919
15273TIP3    H167234   2.081   0.358  11.649  0.7920 -3.0352 -1.2346
15273TIP3    H267235   1.939   0.346  11.598 -0.5385  2.3573  0.5170
15274TIP3   OH267236   0.076   6.646   1.109  0.0829  0.1353  0.2792
15274TIP3    H167237   0.146   6.652   1.044 -0.0439  0.4868  0.1778
15274TIP3    H267238   0.010   6.708   1.080 -0.1413  0.0198  0.5391
15275TIP3   OH267239   1.920   1.792   1.945  0.5000  0.1354 -0.4114
15275TIP3    H167240   2.009   1.757   1.951  0.7629  0.9651  1.5039
15275TIP3    H267241   1.931   1.886   1.961 -0.6202  0.4032 -1.1401
15276TIP3   OH267242   0.221   5.142   0.941  0.3985  0.6652  0.2084
15276TIP3    H167243   0.136   5.102   0.963  0.3130  0.0989 -1.0498
15276TIP3    H267244   0.205   5.188   0.859  0.8780  2.1020  0.8820
15277TIP3   OH267245   1.764   0.022  15.222 -0.0038 -0.0871 -0.3194
15277TIP3    H167246   1.731  -0.063  15.253  0.5491 -0.6585 -1.2531
15277TIP3    H267247   1.807   0.060  15.299  2.0139 -1.8104 -0.5083
15278TIP3   OH267248   4.280   1.891   2.736  0.5902  0.1916 -0.1057
15278TIP3    H167249   4.231   1.873   2.816  0.8239  0.6084  0.1334
15278TIP3    H267250   4.322   1.976   2.752 -1.4752  1.6215 -1.6788
15279TIP3   OH267251   0.436   1.545  12.374  0.2025 -0.7079 -0.4774
15279TIP3    H167252   0.461   1.493  12.450  1.3047 -0.1232 -0.4128
15279TIP3    H267253   0.380   1.488  12.322 -0.3080 -1.2279  0.6081
15280TIP3   OH267254   6.011   6.144   2.261  0.0818 -0.4598 -0.2814
15280TIP3    H167255   6.061   6.168   2.340 -0.2493 -1.8523  0.3931
15280TIP3    H267256   6.059   6.069   2.225 -1.0931 -1.3887  0.0021
15281TIP3   OH267257   5.174   0.598   6.054  0.0795 -0.6262 -0.0103
15281TIP3    H167258   5.246   0.618   6.114  1.0308 -2.0955 -0.5910
15281TIP3    H267259   5.206   0.625   5.968 -0.6213 -0.0505 -0.1020
15282TIP3   OH267260   1.713   1.537  12.721  0.3906  0.0868  0.3575
15282TIP3    H167261   1.648   1.491  12.669 -1.3097  1.1445  1.4317
15282TIP3    H267262   1.792   1.484  12.714 -1.1169 -2.3112  0.5412
15283TIP3   OH267263   6.129   3.720   2.396 -0.4477 -0.1219  0.1737
15283TIP3    H167264   6.035   3.724   2.376 -0.7085  1.2846  1.5131
15283TIP3    H267265   6.162   3.649   2.341 -1.9589  0.4802 -1.6143
15284TIP3   OH267266   0.691   5.062   0.380 -0.1643 -0.1344 -0.1398
15284TIP3    H167267   0.637   5.140   0.395 -0.6945 -0.6211  0.5777
15284TIP3    H267268   0.631   4.988   0.395 -0.4242 -0.7472 -3.5349
15285TIP3   OH267269   6.178   1.832   4.429 -0.1019 -0.5566  0.2829
15285TIP3    H167270   6.204   1.915   4.469 -1.4124  0.6975 -1.3732
15285TIP3    H267271   6.100   1.806   4.478  0.9511 -1.4710  1.5660
15286TIP3   OH267272   0.068   6.570  14.000  0.4050 -0.8499  0.5814
15286TIP3    H167273   0.149   6.522  13.983 -0.1574 -2.3647  1.8921
15286TIP3    H267274   0.010   6.505  14.042 -0.4283  0.9322  2.3564
15287TIP3   OH267275   4.642   3.927  10.552  0.1885 -0.1447  0.0928
15287TIP3    H167276   4.696   4.004  10.539  1.3586 -1.0374 -0.4821
15287TIP3    H267277   4.653   3.905  10.645  1.1232 -0.5382 -0.1056
15288TIP3   OH267278   1.716   3.933  14.290 -0.1934  0.0343 -0.0914
15288TIP3    H167279   1.622   3.934  14.308 -0.1858  0.4418 -0.0660
15288TIP3    H267280   1.754   3.985  14.360 -0.1415  1.4790 -1.1422
15289TIP3   OH267281   2.252   3.443  11.674  0.1925 -0.2736 -0.1648
15289TIP3    H167282   2.255   3.434  11.579  1.6855 -0.6812 -0.0880
15289TIP3    H267283   2.270   3.536  11.690  1.0901 -0.4261 -0.2441
15290TIP3   OH267284   3.898   1.296   3.969 -0.0910 -0.2831  0.0298
15290TIP3    H167285   3.829   1.362   3.982  1.3196  1.5788 -1.3299
15290TIP3    H267286   3.884   1.265   3.879 -0.3787 -1.4648  0.4629
15291TIP3   OH267287   4.462   2.526   1.026  0.0059  0.1422 -0.1752
15291TIP3    H167288   4.441   2.439   1.061  0.9367  0.4727  1.2876
15291TIP3    H267289   4.514   2.567   1.095  0.7801  1.3423 -1.4384
15292TIP3   OH267290   5.012   4.157  11.304 -1.0064 -0.3099  0.5318
15292TIP3    H167291   5.059   4.095  11.249  0.0872  1.8305 -1.0688
15292TIP3    H267292   4.923   4.160  11.268 -0.5564  0.3689 -0.5655
15293TIP3   OH267293   1.151   3.936  12.436 -0.6058  0.2221 -0.3939
15293TIP3    H167294   1.168   3.842  12.429  1.6159  0.6070 -0.8183
15293TIP3    H267295   1.185   3.973  12.355  2.6275  1.8476  1.4707
15294TIP3   OH267296   2.684   5.313  13.105 -0.4158 -0.0794 -1.1612
15294TIP3    H167297   2.620   5.368  13.060 -0.9663  1.2908  1.1606
15294TIP3    H267298   2.633   5.238  13.136 -1.0457  1.1750  0.9780
15295TIP3   OH267299   0.067   4.258  17.222 -0.1426 -0.2708 -0.0559
15295TIP3    H167300   0.117   4.324  17.174 -0.2207 -0.2292 -0.0800
15295TIP3    H267301   0.133   4.211  17.273 -0.1109 -0.0470  0.1096
15296TIP3   OH267302   4.065   5.123   5.795 -0.3552 -0.3239 -0.8892
15296TIP3    H167303   4.091   5.204   5.838  0.2446 -0.0438 -1.7566
15296TIP3    H267304   4.029   5.069   5.866 -0.7215  0.6684 -0.2955
15297TIP3   OH267305   0.429   1.156   0.678 -0.2389 -0.3152 -0.3141
15297TIP3    H167306   0.364   1.206   0.628  0.6240 -0.4110 -1.5696
15297TIP3    H267307   0.398   1.161   0.769 -1.3834  0.5877 -0.7268
15298TIP3   OH267308   1.514   5.837  16.898 -0.3806  0.0420  0.4764
15298TIP3    H167309   1.434   5.789  16.919  0.2266 -0.3687  2.0433
15298TIP3    H267310   1.522   5.901  16.970  0.0808  0.8828 -0.2992
15299TIP3   OH267311   1.407   0.159  16.156  0.2768  0.2684 -0.3135
15299TIP3    H167312   1.412   0.091  16.089 -3.4798 -1.8004  1.2374
15299TIP3    H267313   1.338   0.219  16.124 -0.6575 -0.0428  1.0249
15300TIP3   OH267314   1.916   3.569   0.863 -0.0745  0.6034  0.1430
15300TIP3    H167315   1.996   3.619   0.882  0.0203 -0.1267  1.8421
15300TIP3    H267316   1.857   3.633   0.824  0.3010  1.9196  1.6116
15301TIP3   OH267317   5.221   1.357   2.133  0.1515 -0.4597 -0.5282
15301TIP3    H167318   5.167   1.432   2.154 -0.0545 -0.8729  0.4591
15301TIP3    H267319   5.272   1.385   2.057  0.1629  0.7177 -0.1078
15302TIP3   OH267320   4.078   4.790  16.090 -0.4767  0.1923  0.4028
15302TIP3    H167321   4.048   4.811  16.179 -3.0889  2.6639 -0.8816
15302TIP3    H267322   4.011   4.731  16.056 -0.3583  0.5365 -0.4364
15303TIP3   OH267323   4.756   2.195  11.604 -0.1918 -0.5997  0.0677
15303TIP3    H167324   4.723   2.285  11.606 -0.8779 -0.8029 -1.0964
15303TIP3    H267325   4.831   2.196  11.662  0.2647  0.9176 -0.4867
15304TIP3   OH267326   3.923   4.522   1.557  0.3029 -0.3525  0.2825
15304TIP3    H167327   3.940   4.429   1.572  1.5089 -0.3804 -1.0717
15304TIP3    H267328   3.875   4.525   1.475 -1.2406  0.1472  1.1580
15305TIP3   OH267329   4.060   4.759   2.885  0.2741  0.1039 -0.1580
15305TIP3    H167330   4.088   4.706   2.810 -0.0020 -1.3918  0.7585
15305TIP3    H267331   4.110   4.840   2.876  2.9017 -1.3889 -0.0969
15306TIP3   OH267332   2.653   5.630  11.551 -0.0189  0.1647  0.1391
15306TIP3    H167333   2.653   5.662  11.461 -1.4511 -0.7612 -0.2213
15306TIP3    H267334   2.742   5.601  11.566  0.1011 -0.2005 -1.1830
15307TIP3   OH267335   4.841   1.955   1.329 -0.2765 -0.7269  0.5749
15307TIP3    H167336   4.802   2.007   1.400 -1.0864  0.2771 -0.5764
15307TIP3    H267337   4.888   2.018   1.276  1.2024 -1.6253  0.7442
15308TIP3   OH267338   4.676   1.177  10.711 -0.6459 -0.0471 -0.5127
15308TIP3    H167339   4.642   1.135  10.632 -0.2779 -1.3827  0.0179
15308TIP3    H267340   4.602   1.226  10.746 -1.4488 -1.2498 -0.4762
15309TIP3   OH267341   0.860   2.346   3.435 -0.6146 -0.4734  0.4826
15309TIP3    H167342   0.938   2.299   3.466 -0.7844 -0.6467  0.6448
15309TIP3    H267343   0.852   2.421   3.495  0.0664  0.1663 -0.2020
15310TIP3   OH267344   3.111   6.067  14.982 -0.1478 -0.0942 -0.3300
15310TIP3    H167345   3.160   6.027  15.053  0.8534 -0.8663 -1.4091
15310TIP3    H267346   3.092   5.994  14.922 -0.1669  0.6758 -1.2841
15311TIP3   OH267347   3.067   0.475   3.905 -0.1604  0.6177 -0.3159
15311TIP3    H167348   3.079   0.549   3.846  1.4274 -0.4344 -1.4024
15311TIP3    H267349   2.994   0.426   3.867  1.0181 -0.2019 -1.6826
15312TIP3   OH267350   2.064   4.093   0.744 -0.4928 -0.5582 -0.0170
15312TIP3    H167351   2.072   4.188   0.730 -0.3773 -0.6866 -0.9114
15312TIP3    H267352   1.999   4.085   0.814 -2.2635  0.1356 -1.4793
15313TIP3   OH267353   6.210   4.454   2.566 -0.2538 -0.2156  0.1946
15313TIP3    H167354   6.129   4.412   2.594 -0.7099  1.1189  0.9895
15313TIP3    H267355   6.262   4.462   2.647  0.3411 -0.3645 -0.1690
15314TIP3   OH267356   6.196   2.948   4.754 -0.0221  0.0421 -0.2762
15314TIP3    H167357   6.225   2.974   4.666 -1.4350 -1.4459 -1.2513
15314TIP3    H267358   6.102   2.966   4.754 -0.0503 -0.0630  0.9100
15315TIP3   OH267359   5.505   5.916   4.864  0.3340 -0.4791  0.5991
15315TIP3    H167360   5.528   5.824   4.880 -1.0013 -1.0536 -0.5893
15315TIP3    H267361   5.524   5.930   4.772 -0.2237  0.2167  0.5847
15316TIP3   OH267362   4.070   3.350   0.837  0.0965 -0.3298 -0.0980
15316TIP3    H167363   4.070   3.279   0.773 -1.1553 -0.3544 -0.1015
15316TIP3    H267364   3.991   3.401   0.817  0.4460  0.4868  0.5299
15317TIP3   OH267365   6.232   0.579  12.844 -0.2336 -0.3022 -0.2569
15317TIP3    H167366   6.281   0.627  12.777  0.6832 -1.4204 -0.4271
15317TIP3    H267367   6.236   0.635  12.922  1.7277 -0.5427 -0.1352
15318TIP3   OH267368   5.671   1.372  13.954  0.2696  0.6725  0.0040
15318TIP3    H167369   5.720   1.334  14.027  0.0806 -2.0264 -1.1375
15318TIP3    H267370   5.731   1.368  13.880 -0.9464 -0.8164 -0.9577
15319TIP3   OH267371   1.090   0.364  15.740 -0.0025 -0.0207 -0.0504
15319TIP3    H167372   1.009   0.316  15.720 -0.6536  0.0489  2.1972
15319TIP3    H267373   1.152   0.335  15.673 -1.7575 -0.3718 -1.5943
15320TIP3   OH267374   6.768   2.631  13.384  0.0049  0.0520  0.0802
15320TIP3    H167375   6.859   2.615  13.411 -0.1034 -0.1454  0.3311
15320TIP3    H267376   6.752   2.722  13.409  0.4306  0.3857 -0.8153
15321TIP3   OH267377   0.675   5.553   4.945 -0.4838  0.8113 -0.3771
15321TIP3    H167378   0.642   5.471   4.910 -0.8143  1.2024 -0.9905
15321TIP3    H267379   0.633   5.561   5.031 -2.8566  1.7967 -1.5426
15322TIP3   OH267380   2.036   4.482   4.770  0.0886 -0.2185  0.0024
15322TIP3    H167381   2.054   4.568   4.808 -0.2355 -0.4992  0.8056
15322TIP3    H267382   1.948   4.490   4.734  0.1918 -0.1200 -0.2398
15323TIP3   OH267383   2.892   1.202   3.426  0.2906  0.3454 -0.0351
15323TIP3    H167384   2.961   1.256   3.464  0.3555  0.4294 -0.2708
15323TIP3    H267385   2.822   1.264   3.404  0.3411  0.3243 -0.2505
15324TIP3   OH267386   1.902   2.543   2.003 -0.2441  0.1556 -0.2903
15324TIP3    H167387   1.878   2.550   2.095  1.6543 -1.5604  0.4094
15324TIP3    H267388   1.833   2.590   1.956 -1.5453  0.6035  1.9513
15325TIP3   OH267389   3.515   1.725   1.859 -0.4966 -0.1184  0.5719
15325TIP3    H167390   3.569   1.649   1.840  0.3255  0.1531  1.7283
15325TIP3    H267391   3.427   1.690   1.873 -0.3123 -0.7431  0.1870
15326TIP3   OH267392   4.386   3.426   2.769 -0.5501 -0.1238 -0.0645
15326TIP3    H167393   4.412   3.426   2.862 -0.6702 -0.7248 -0.0329
15326TIP3    H267394   4.453   3.373   2.725  0.2759  1.2534 -0.5455
15327TIP3   OH267395   3.681   5.216   6.273 -0.5196  0.0766 -0.4294
15327TIP3    H167396   3.707   5.126   6.290 -0.1144  0.3605  0.5277
15327TIP3    H267397   3.608   5.232   6.333  2.1036  1.6692  2.7060
15328TIP3   OH267398   2.532   3.385  11.513  0.3252  0.0555 -0.5198
15328TIP3    H167399   2.491   3.404  11.429 -1.4006 -1.4995 -0.1088
15328TIP3    H267400   2.527   3.467  11.562 -2.8656 -0.1321 -0.3174
15329TIP3   OH267401   2.579   2.772   6.100  0.2985  0.1671 -0.0557
15329TIP3    H167402   2.569   2.864   6.124 -1.8053  0.3568 -1.4011
15329TIP3    H267403   2.501   2.730   6.135  1.0381 -1.0572  0.1857
15330TIP3   OH267404   2.599   2.402   3.905 -0.1584  0.0369 -0.2106
15330TIP3    H167405   2.619   2.496   3.896 -1.4749  0.3688  0.1769
15330TIP3    H267406   2.678   2.365   3.944 -0.1651  1.2629  1.0599
15331TIP3   OH267407   5.869   3.205  11.863 -0.3284 -0.3180 -0.0758
15331TIP3    H167408   5.947   3.166  11.901 -0.4175 -2.9846 -2.3249
15331TIP3    H267409   5.801   3.138  11.870 -1.3014  0.4216 -1.6950
15332TIP3   OH267410   0.250   2.509  14.233 -0.0206  0.1878 -0.0746
15332TIP3    H167411   0.222   2.492  14.144  0.4631 -0.2283 -0.1523
15332TIP3    H267412   0.339   2.543  14.224 -0.2557  0.9061  0.2029
15333TIP3   OH267413   4.735   5.785  15.492  0.2141 -0.4256 -0.2046
15333TIP3    H167414   4.794   5.849  15.452 -0.9912  0.6057 -0.3778
15333TIP3    H267415   4.672   5.838  15.540 -1.0560 -1.4619 -0.6886
15334TIP3   OH267416   0.259   1.835   1.292 -0.1439 -0.1695  0.3693
15334TIP3    H167417   0.214   1.826   1.376 -1.3401  0.8627 -0.1200
15334TIP3    H267418   0.344   1.872   1.315 -0.1240 -0.6833  1.1910
15335TIP3   OH267419   1.831   3.170  16.384  0.0871 -0.1389 -0.0671
15335TIP3    H167420   1.743   3.155  16.349 -0.7193  0.3862  1.6506
15335TIP3    H267421   1.889   3.142  16.313 -1.4289 -1.3240 -0.9180
15336TIP3   OH267422   4.357   4.065   2.061 -0.6448  0.1877  0.1880
15336TIP3    H167423   4.265   4.081   2.084 -0.1736  0.4906  2.0827
15336TIP3    H267424   4.388   4.007   2.131  0.6270  0.1482 -0.3912
15337TIP3   OH267425   0.755   5.732  16.169  0.0672  0.0556 -0.0348
15337TIP3    H167426   0.745   5.699  16.080 -0.3106 -0.0614  0.0472
15337TIP3    H267427   0.670   5.714  16.210  0.2434  0.1022  0.3487
15338TIP3   OH267428   6.074   4.716   3.166 -0.3476  0.5340  0.2628
15338TIP3    H167429   6.014   4.644   3.149  2.8534 -2.4415  0.4300
15338TIP3    H267430   6.113   4.736   3.081 -0.1305  1.0342  0.4735
15339TIP3   OH267431   3.878   3.287  12.306  0.1049 -0.6824  0.3368
15339TIP3    H167432   3.792   3.323  12.285  1.8655  3.0600 -1.3995
15339TIP3    H267433   3.915   3.262  12.221  1.7309  0.4763  0.6607
15340TIP3   OH267434   3.193   1.891   3.668  0.5061  0.2215  0.0795
15340TIP3    H167435   3.167   1.982   3.662  1.4410  0.4212 -1.3324
15340TIP3    H267436   3.110   1.842   3.671 -0.0376  0.9721 -1.6995
15341TIP3   OH267437   3.384   4.224   1.324  0.0348 -0.1738  0.3556
15341TIP3    H167438   3.420   4.149   1.277  1.1064 -0.1585  1.1156
15341TIP3    H267439   3.326   4.267   1.261 -0.8126 -1.7728 -0.0183
15342TIP3   OH267440   6.523   3.786   3.788 -0.1852 -0.2012  0.2938
15342TIP3    H167441   6.445   3.823   3.747  0.0226  0.1912  0.2528
15342TIP3    H267442   6.525   3.825   3.875 -0.7611 -1.2149  0.7913
15343TIP3   OH267443   6.077   5.835   4.625 -0.4874 -0.2609 -0.6503
15343TIP3    H167444   6.081   5.754   4.678 -1.3034 -0.8948 -1.5199
15343TIP3    H267445   6.091   5.805   4.535  2.5136  1.0041 -0.7138
15344TIP3   OH267446   3.484   1.186  13.698  0.0775  0.0769 -0.5293
15344TIP3    H167447   3.483   1.213  13.789  1.5401  0.1799 -0.5176
15344TIP3    H267448   3.462   1.092  13.700  2.1314 -0.4356  0.1612
15345TIP3   OH267449   0.367   1.808  13.499 -0.5874 -0.0823  0.0084
15345TIP3    H167450   0.343   1.721  13.469 -1.0561  0.5656 -1.6274
15345TIP3    H267451   0.362   1.804  13.594  1.3477 -2.3923  0.1096
15346TIP3   OH267452   0.891   4.924   4.254  0.2162  0.2374  0.2595
15346TIP3    H167453   0.950   4.848   4.258 -0.0004  0.0782  0.4820
15346TIP3    H267454   0.917   4.979   4.328  0.5460  0.5103 -0.0569
15347TIP3   OH267455   6.138   1.066   2.781 -0.1492  0.0259  1.0321
15347TIP3    H167456   6.216   1.056   2.836  0.5960  0.4863  0.0972
15347TIP3    H267457   6.148   1.154   2.743 -0.2455 -0.5686 -0.4152
15348TIP3   OH267458   6.580   6.035  11.636  0.0065 -0.2261  0.3441
15348TIP3    H167459   6.501   6.066  11.592  0.6486  2.7283  1.0974
15348TIP3    H267460   6.569   5.940  11.640 -2.6828 -0.0646 -1.0884
15349TIP3   OH267461   1.585   1.029   5.018 -0.1825 -0.0184 -0.0363
15349TIP3    H167462   1.524   1.078   5.073  1.0693  1.8266 -0.2082
15349TIP3    H267463   1.570   0.937   5.042 -3.5235  0.2613 -0.6365
15350TIP3   OH267464   4.511   0.365  16.673  0.3409  0.5288  0.1483
15350TIP3    H167465   4.509   0.270  16.680  0.0936  0.4629 -0.7050
15350TIP3    H267466   4.425   0.389  16.640  0.3177  1.0723  0.5926
15351TIP3   OH267467   5.328   5.583   4.741 -0.4806 -0.3762  0.4282
15351TIP3    H167468   5.254   5.524   4.725 -1.4291 -0.3117  3.7258
15351TIP3    H267469   5.289   5.659   4.784  1.2575  0.6829  0.2091
15352TIP3   OH267470   6.657   2.275  12.978 -0.7415 -0.1858 -0.3303
15352TIP3    H167471   6.690   2.199  13.027 -0.0653  1.0978  1.2870
15352TIP3    H267472   6.678   2.255  12.886  1.4063 -1.0098  0.2833
15353TIP3   OH267473   2.176   2.355  15.805  0.2859 -0.1128 -0.2850
15353TIP3    H167474   2.110   2.421  15.826 -0.7632 -1.5684  1.2737
15353TIP3    H267475   2.228   2.346  15.885  1.1963 -0.3314 -0.8764
15354TIP3   OH267476   3.408   0.684  13.984 -0.6551 -0.0887  0.3190
15354TIP3    H167477   3.344   0.691  14.054  1.6354 -0.7821  2.6680
15354TIP3    H267478   3.439   0.773  13.972  1.8499 -0.3537  3.3361
15355TIP3   OH267479   6.549   1.748   5.295  0.0849 -0.0573 -0.0286
15355TIP3    H167480   6.578   1.712   5.211  0.1933 -0.8959  0.3588
15355TIP3    H267481   6.545   1.672   5.354 -0.0464  0.5097  0.7099
15356TIP3   OH267482   5.267   2.386   1.615  0.3074  0.5156 -0.1939
15356TIP3    H167483   5.188   2.432   1.644  0.6530  0.2064  1.3274
15356TIP3    H267484   5.338   2.428   1.663  1.1006  0.7694 -1.5261
15357TIP3   OH267485   2.886   4.616  15.428 -0.0719  0.3663  0.2411
15357TIP3    H167486   2.964   4.577  15.467 -0.0467 -0.1316 -0.2954
15357TIP3    H267487   2.920   4.673  15.359 -0.2104 -0.7428 -0.7783
15358TIP3   OH267488   5.260   4.850  12.593 -0.1752 -0.1097 -0.1054
15358TIP3    H167489   5.335   4.899  12.561  0.5222 -1.8673 -1.3533
15358TIP3    H267490   5.291   4.759  12.598 -2.6637 -1.2396 -2.5239
15359TIP3   OH267491   0.380   2.079  12.215  0.2429 -0.3958 -0.1539
15359TIP3    H167492   0.461   2.119  12.184  0.8080 -0.9044  0.6327
15359TIP3    H267493   0.406   1.992  12.246 -0.8883 -1.2532 -1.4662
15360TIP3   OH267494   4.017   6.466   0.498  0.7328  0.0464 -0.4539
15360TIP3    H167495   4.042   6.397   0.560  0.5719 -0.8850 -1.3924
15360TIP3    H267496   4.094   6.522   0.492  1.0634 -0.3586 -0.0901
15361TIP3   OH267497   1.945   4.497   3.895  0.2184 -0.1517 -0.2158
15361TIP3    H167498   1.956   4.526   3.986  1.2996 -0.3910 -0.2578
15361TIP3    H267499   2.029   4.456   3.873 -0.5827 -1.5508 -0.7891
15362TIP3   OH267500   3.755   1.694   0.432 -0.0766 -0.6626 -0.0258
15362TIP3    H167501   3.713   1.683   0.346  1.3693 -1.2625 -0.6881
15362TIP3    H267502   3.799   1.779   0.426 -1.4589  0.1470  0.8086
15363TIP3   OH267503   3.201   1.232  16.161  0.2703  0.1545 -0.6859
15363TIP3    H167504   3.251   1.185  16.094  1.7373 -2.2397  1.8817
15363TIP3    H267505   3.266   1.282  16.210 -0.2673 -0.5287  0.7920
15364TIP3   OH267506   6.163   2.431  11.604  0.0238 -0.1882 -0.2464
15364TIP3    H167507   6.188   2.468  11.688 -0.2222  0.7197 -0.5610
15364TIP3    H267508   6.243   2.390  11.571  0.3485  0.2154  0.0318
15365TIP3   OH267509   4.654   2.805  14.421  0.0848  0.1525  0.2714
15365TIP3    H167510   4.626   2.770  14.506  1.2844  0.1726  0.6902
15365TIP3    H267511   4.573   2.835  14.380 -0.5573 -0.1780  1.2583
15366TIP3   OH267512   1.417   6.296   5.131  0.1901  0.4801  0.5261
15366TIP3    H167513   1.410   6.388   5.104  0.8022  0.5299  0.5138
15366TIP3    H267514   1.445   6.300   5.222 -3.1039  0.3267  1.6760
15367TIP3   OH267515   2.473   6.774   4.161  0.5391  0.4653  0.5286
15367TIP3    H167516   2.511   6.763   4.249 -1.4201  1.1365  1.5311
15367TIP3    H267517   2.378   6.776   4.177  0.1281  0.2723 -1.6672
15368TIP3   OH267518   0.899   3.713   0.735  0.6080  0.5870 -0.4441
15368TIP3    H167519   0.823   3.745   0.782  0.6345  0.7757 -0.5299
15368TIP3    H267520   0.916   3.779   0.668 -0.1456 -0.2592 -1.4953
15369TIP3   OH267521   3.750   0.084  11.201 -0.4302 -0.3224 -0.1179
15369TIP3    H167522   3.784   0.137  11.129 -0.8539  0.2069  0.0613
15369TIP3    H267523   3.685   0.027  11.160  0.4411 -1.1327 -0.4098
15370TIP3   OH267524   1.062   1.035   2.272  0.4706  0.0723 -0.7047
15370TIP3    H167525   1.107   1.007   2.352  0.0885  2.7161  0.5470
15370TIP3    H267526   1.029   0.954   2.233 -0.5230 -1.2388  2.5663
15371TIP3   OH267527   5.939   6.251   0.205  0.1464 -0.1184  0.4169
15371TIP3    H167528   5.991   6.330   0.190 -0.0117 -0.5030 -2.8283
15371TIP3    H267529   6.004   6.183   0.220  0.4363  0.1009  0.1752
15372TIP3   OH267530   5.297   4.864   1.350 -0.0833 -0.3422  0.1246
15372TIP3    H167531   5.227   4.915   1.393  0.4790  0.5719 -0.0055
15372TIP3    H267532   5.281   4.774   1.377 -3.2546 -0.7352 -2.4472
15373TIP3   OH267533   6.716   5.145  14.878 -0.1777 -0.0916  0.5904
15373TIP3    H167534   6.729   5.073  14.816  0.4844  0.7358 -0.2596
15373TIP3    H267535   6.633   5.126  14.921 -0.8456 -0.4802 -0.8359
15374TIP3   OH267536   6.274   5.943  14.075 -0.3783 -0.2133 -0.2071
15374TIP3    H167537   6.205   6.007  14.088  0.9745  1.5239 -1.0898
15374TIP3    H267538   6.322   5.941  14.159  0.8464  1.5915 -0.8125
15375TIP3   OH267539   1.422   0.164   2.598 -0.3339  0.2924  0.3906
15375TIP3    H167540   1.479   0.225   2.644  0.1792  1.1190 -1.2519
15375TIP3    H267541   1.459   0.078   2.618  0.1140  0.6580  1.1652
15376TIP3   OH267542   3.787   2.638  11.932  0.3346  0.3212 -0.4686
15376TIP3    H167543   3.851   2.631  12.002 -0.4624  0.6133  0.3035
15376TIP3    H267544   3.724   2.568  11.949  0.4589  0.0062 -1.2462
15377TIP3   OH267545   4.686   1.282   4.606  0.1528  0.0709  0.0726
15377TIP3    H167546   4.686   1.265   4.700  1.7050 -0.0021  0.0713
15377TIP3    H267547   4.603   1.244   4.575  0.1680 -0.9513  1.2134
15378TIP3   OH267548   0.998   5.663  15.306  0.0856  0.1527 -0.0008
15378TIP3    H167549   1.087   5.699  15.304  0.3544 -0.5145 -0.8368
15378TIP3    H267550   1.008   5.572  15.278 -0.7642 -0.1599  0.6681
15379TIP3   OH267551   0.059   5.330  13.440 -0.2745  0.7235  0.3488
15379TIP3    H167552   0.060   5.288  13.526 -0.8488  0.4582  0.2286
15379TIP3    H267553   0.147   5.316  13.406 -0.5101 -0.5843  0.2242
15380TIP3   OH267554   4.687   3.963  16.905  0.0756 -0.4309 -0.5760
15380TIP3    H167555   4.740   3.920  16.971 -1.0882 -1.6745 -0.3979
15380TIP3    H267556   4.694   3.906  16.828  0.0944  0.1164 -0.9832
15381TIP3   OH267557   3.805   2.781  12.788 -0.0587  0.1575 -0.1760
15381TIP3    H167558   3.759   2.781  12.705  0.7457 -0.6711 -0.6374
15381TIP3    H267559   3.774   2.860  12.833  0.7666  1.5551 -1.9613
15382TIP3   OH267560   0.885   1.367   0.201  0.2659 -0.2669  0.2424
15382TIP3    H167561   0.966   1.371   0.252  1.1535 -0.9329 -1.0696
15382TIP3    H267562   0.850   1.280   0.217  0.3303 -0.3307  0.0393
15383TIP3   OH267563   3.960   3.866  15.723  0.0917  0.1679  0.3018
15383TIP3    H167564   3.967   3.951  15.768  0.6525  0.1974  0.1746
15383TIP3    H267565   4.016   3.876  15.646 -2.3438  0.7859 -1.4847
15384TIP3   OH267566   4.440   0.548  11.992 -0.4362 -0.2285 -0.2625
15384TIP3    H167567   4.505   0.482  11.967 -1.3869 -0.9713 -0.8380
15384TIP3    H267568   4.476   0.588  12.071  0.4444 -1.0260 -0.2389
15385TIP3   OH267569   5.592   5.454   2.985  0.2059  0.6206  0.4590
15385TIP3    H167570   5.543   5.472   2.905 -0.5131 -1.5194  0.3588
15385TIP3    H267571   5.635   5.537   3.006 -1.9054  2.0495 -0.5171
15386TIP3   OH267572   6.165   5.524  13.212 -0.2592  0.0039 -0.1337
15386TIP3    H167573   6.223   5.449  13.223 -2.0642 -1.4611 -0.2447
15386TIP3    H267574   6.220   5.600  13.236  1.3277 -1.4046  0.9233
15387TIP3   OH267575   1.225   6.336  12.492  0.5235  0.5065 -0.4263
15387TIP3    H167576   1.284   6.382  12.432 -0.4552  2.3753 -0.0152
15387TIP3    H267577   1.154   6.303  12.436  0.1320  1.3696 -0.4474
15388TIP3   OH267578   5.608   0.902  13.161 -0.8658 -0.4791 -0.1077
15388TIP3    H167579   5.541   0.931  13.099 -1.4022 -0.5660  0.4210
15388TIP3    H267580   5.575   0.929  13.246  0.5404  0.9049  0.0427
15389TIP3   OH267581   4.203   4.595   0.358  0.0942 -0.0323 -0.1205
15389TIP3    H167582   4.187   4.685   0.383  4.7403  0.6033  1.5641
15389TIP3    H267583   4.297   4.592   0.339 -0.0929 -4.2557 -1.3910
15390TIP3   OH267584   1.807   6.089  17.236  0.1033  0.2693  0.2631
15390TIP3    H167585   1.820   6.151  17.307 -0.9120 -0.8200  1.4508
15390TIP3    H267586   1.818   6.141  17.156  0.9410  1.5881  1.2015
15391TIP3   OH267587   5.286   5.231  15.987 -0.0084  0.1710  0.6733
15391TIP3    H167588   5.288   5.187  15.903  0.3967  0.2732  0.6263
15391TIP3    H267589   5.203   5.278  15.988 -0.1843 -0.1413  0.4909
15392TIP3   OH267590   6.645   5.081  10.477  0.1327  0.2383 -0.3245
15392TIP3    H167591   6.679   4.995  10.451  1.2875  0.4365  0.4723
15392TIP3    H267592   6.562   5.062  10.520 -0.0238 -0.3992 -0.8858
15393TIP3   OH267593   5.185   5.983  10.798  0.0124  0.0233 -0.4314
15393TIP3    H167594   5.216   6.073  10.787 -0.1925  0.1785  0.2045
15393TIP3    H267595   5.224   5.935  10.725  1.0110  0.3999 -0.1675
15394TIP3   OH267596   6.389   5.212  10.739  0.6594  0.8503 -0.7522
15394TIP3    H167597   6.301   5.195  10.773  0.5651  0.6529 -1.0896
15394TIP3    H267598   6.374   5.258  10.656  0.8829  1.1121 -0.6510
15395TIP3   OH267599   0.359   0.505   3.550  0.1979 -0.2040  0.0812
15395TIP3    H167600   0.270   0.481   3.523  0.1377  0.6375 -0.4906
15395TIP3    H267601   0.356   0.506   3.645 -0.3749 -0.2878  0.0656
15396TIP3   OH267602   6.210   4.991  14.878  0.2092 -0.3923 -0.0870
15396TIP3    H167603   6.274   4.925  14.851  2.0040  1.5913 -0.9026
15396TIP3    H267604   6.236   5.016  14.966  0.5754  0.4449 -0.4309
15397TIP3   OH267605   4.956   3.661   2.527 -0.0324  0.3430 -0.2596
15397TIP3    H167606   5.005   3.609   2.590  1.3019 -0.8477 -2.1687
15397TIP3    H267607   4.884   3.605   2.499  0.0805  0.3933 -0.6609
15398TIP3   OH267608   3.107   4.492   4.590 -0.6007 -0.2134 -0.0752
15398TIP3    H167609   3.049   4.568   4.578 -0.6690 -0.3853 -0.8623
15398TIP3    H267610   3.189   4.529   4.622 -1.5968 -0.0996  2.5528
15399TIP3   OH267611   1.099   5.430  10.857 -0.1357  0.8087 -0.0677
15399TIP3    H167612   1.070   5.474  10.937  1.2180  1.8802 -0.1317
15399TIP3    H267613   1.122   5.501  10.797 -1.2633  0.0266 -1.4852
15400TIP3   OH267614   2.169   1.066   5.558  0.3799 -0.1623  0.6116
15400TIP3    H167615   2.183   0.978   5.523 -2.1143 -0.4762  0.1814
15400TIP3    H267616   2.234   1.120   5.512  0.4386 -1.3998 -0.8618
15401TIP3   OH267617   5.315   4.408  16.575  0.0793  0.5778 -0.2120
15401TIP3    H167618   5.401   4.409  16.532  1.3457  1.1345  2.1672
15401TIP3    H267619   5.288   4.500  16.577 -0.6943  0.3843 -1.1208
15402TIP3   OH267620   3.764   5.095  16.389 -0.4997  0.0534  0.0388
15402TIP3    H167621   3.831   5.119  16.325 -0.4505  0.6702  0.3087
15402TIP3    H267622   3.810   5.039  16.452 -0.6851 -1.0244 -0.7586
15403TIP3   OH267623   3.524   0.876  11.955 -0.0732 -0.2557 -0.9364
15403TIP3    H167624   3.489   0.959  11.987  1.1092 -0.1002  0.0508
15403TIP3    H267625   3.573   0.900  11.876  0.8681  0.1315 -0.2577
15404TIP3   OH267626   2.805   2.057  13.257 -0.2718  0.1052 -0.0065
15404TIP3    H167627   2.799   2.051  13.353  0.0578 -1.5528 -0.0545
15404TIP3    H267628   2.764   1.975  13.226 -0.8039  0.8380 -1.3074
15405TIP3   OH267629   6.414   0.385  14.012 -0.4639 -0.1389  0.0241
15405TIP3    H167630   6.487   0.442  14.034 -1.0277 -0.2921  2.6016
15405TIP3    H267631   6.451   0.321  13.951  0.8067  1.3996 -0.8906
15406TIP3   OH267632   1.177   0.932  16.846  0.1215 -0.5325 -0.2451
15406TIP3    H167633   1.114   0.885  16.901  0.1568 -1.4531 -0.9544
15406TIP3    H267634   1.131   0.942  16.762 -0.2907  1.6665  0.1945
15407TIP3   OH267635   0.877   3.305  15.658  0.4125 -0.0249  0.9415
15407TIP3    H167636   0.929   3.284  15.581  0.9091 -1.0392  1.5394
15407TIP3    H267637   0.887   3.230  15.716 -1.4093 -0.0637  1.2508
15408TIP3   OH267638   1.999   0.037   3.395 -0.9731 -0.2502 -0.4120
15408TIP3    H167639   1.991   0.086   3.314 -0.2319  0.6547  0.0437
15408TIP3    H267640   2.076   0.074   3.438 -0.3042 -1.9193 -0.1131
15409TIP3   OH267641   2.460   5.076   1.912 -0.6787  0.7094  0.0538
15409TIP3    H167642   2.528   5.020   1.874  0.1099  0.9002  1.1379
15409TIP3    H267643   2.382   5.056   1.861  0.3911  1.1883 -1.8790
15410TIP3   OH267644   0.960   2.967   2.830 -0.1012 -0.0992 -0.1437
15410TIP3    H167645   0.942   2.874   2.818  0.3622 -0.3643  1.0941
15410TIP3    H267646   0.967   2.978   2.925  0.9446  0.9828 -0.3239
15411TIP3   OH267647   2.587   0.374  12.278 -0.1746  0.0574 -0.6312
15411TIP3    H167648   2.557   0.458  12.246  1.0439  0.5035 -0.6791
15411TIP3    H267649   2.508   0.323  12.292 -0.8874  0.9371 -1.3571
15412TIP3   OH267650   2.548   5.281   1.161 -0.4943  0.1387  0.0483
15412TIP3    H167651   2.457   5.298   1.137 -0.5730 -0.4946 -0.1119
15412TIP3    H267652   2.593   5.268   1.077 -0.3612 -0.0661  0.1508
15413TIP3   OH267653   3.544   1.783  11.265 -0.0924  0.3033  0.0955
15413TIP3    H167654   3.566   1.854  11.325  0.1156 -1.9296  2.9130
15413TIP3    H267655   3.614   1.783  11.200  2.0658  0.3842  2.2624
15414TIP3   OH267656   4.783   0.038  15.060 -0.2025  0.0231  0.1348
15414TIP3    H167657   4.750  -0.027  14.998 -0.7335  0.3394  0.0786
15414TIP3    H267658   4.735   0.021  15.141  2.0723 -1.8523  1.2030
15415TIP3   OH267659   6.362   3.113   6.063  0.5377  1.1216 -0.0605
15415TIP3    H167660   6.408   3.112   6.147 -0.4063  0.9804  0.4645
15415TIP3    H267661   6.284   3.166   6.078  0.0187  0.5568 -0.6594
15416TIP3   OH267662   0.039   1.564  11.482 -0.0219  0.3479  0.9531
15416TIP3    H167663   0.036   1.470  11.498 -2.1262  0.1713 -0.0658
15416TIP3    H267664   0.058   1.572  11.388 -0.1536  0.9128  0.9707
15417TIP3   OH267665   0.747   0.285   4.094 -0.5012 -0.2972  0.0964
15417TIP3    H167666   0.766   0.209   4.149  1.5125  0.0645 -0.0377
15417TIP3    H267667   0.651   0.289   4.092 -0.6457 -1.7725  1.5398
15418TIP3   OH267668   5.012   0.090  14.275  0.4476  0.1630 -0.4888
15418TIP3    H167669   5.028   0.160  14.212 -1.6123 -0.4590 -1.7858
15418TIP3    H267670   5.010   0.134  14.360 -0.4091  1.6261 -1.2329
15419TIP3   OH267671   5.605   1.349   5.906 -0.4902 -0.1753 -0.7294
15419TIP3    H167672   5.619   1.431   5.952 -1.4282 -0.2750 -0.2416
15419TIP3    H267673   5.662   1.286   5.950  1.9185  0.6280 -2.4792
15420TIP3   OH267674   4.666   6.709  12.909 -0.7675 -0.3369  0.3900
15420TIP3    H167675   4.589   6.766  12.903 -1.0233 -0.7429 -0.5037
15420TIP3    H267676   4.654   6.661  12.991 -0.1514  1.4072  1.5439
15421TIP3   OH267677   1.088   4.415   0.806 -0.7714 -0.3894  0.3155
15421TIP3    H167678   1.177   4.428   0.837 -0.6874 -1.3251  0.5090
15421TIP3    H267679   1.054   4.345   0.862 -2.4167  1.4500  1.7891
15422TIP3   OH267680   2.544   5.059  12.771  0.3120  1.1800 -0.3176
15422TIP3    H167681   2.612   5.029  12.833 -0.9350  0.5625  0.8052
15422TIP3    H267682   2.462   5.044  12.818 -0.8400 -1.1109 -2.8231
15423TIP3   OH267683   1.819   4.607  12.417  0.0613 -0.7667 -0.3249
15423TIP3    H167684   1.882   4.679  12.410 -0.8268  0.1400  0.4933
15423TIP3    H267685   1.868   4.535  12.457  0.5786 -0.0750  0.3210
15424TIP3   OH267686   4.984   2.679   2.394  0.3929  0.1684 -0.1841
15424TIP3    H167687   4.981   2.670   2.299  0.7570  1.5404 -0.3439
15424TIP3    H267688   4.989   2.773   2.410 -1.1367  0.0614  1.2461
15425TIP3   OH267689   1.140   6.652   4.950  0.2926 -0.7221  0.2371
15425TIP3    H167690   1.158   6.745   4.935 -1.0232  0.0491  2.7659
15425TIP3    H267691   1.226   6.611   4.947  1.2641  1.0455  1.5229
15426TIP3   OH267692   6.153   5.224  12.165  0.4824 -0.7846 -1.0694
15426TIP3    H167693   6.122   5.274  12.090 -0.6097 -0.2112 -0.2843
15426TIP3    H267694   6.130   5.278  12.241  1.2524 -1.4888 -0.3064
15427TIP3   OH267695   5.428   3.499   2.665  0.1386  0.0718  0.2610
15427TIP3    H167696   5.471   3.562   2.607  0.7974  0.3980  1.0861
15427TIP3    H267697   5.364   3.551   2.714 -0.1914 -0.1427  0.0634
15428TIP3   OH267698   1.307   4.610  13.934 -1.1235  0.0188 -0.2073
15428TIP3    H167699   1.270   4.621  14.022  2.3388  3.6011  1.0523
15428TIP3    H267700   1.376   4.545  13.945  0.1704  1.3928  0.1528
15429TIP3   OH267701   2.876   4.371  15.684  0.3828  0.1092 -0.0061
15429TIP3    H167702   2.930   4.450  15.684 -0.2702  0.5900  1.1544
15429TIP3    H267703   2.852   4.359  15.776 -1.4946 -0.0697 -0.4794
15430TIP3   OH267704   4.256   4.620  13.224 -0.0522 -0.7268 -0.7251
15430TIP3    H167705   4.216   4.706  13.219 -0.7189 -1.0002 -0.1852
15430TIP3    H267706   4.193   4.561  13.181  0.8957 -0.7931 -2.1098
15431TIP3   OH267707   4.997   0.581   1.362  0.2168 -0.4617 -0.2287
15431TIP3    H167708   4.932   0.529   1.410 -0.2930  0.2275 -0.1459
15431TIP3    H267709   5.081   0.548   1.391 -0.0962 -1.5597 -0.5328
15432TIP3   OH267710   3.670   2.082  12.674  0.3228  0.7353 -0.0853
15432TIP3    H167711   3.663   2.154  12.737  2.7517 -0.7590  2.0951
15432TIP3    H267712   3.657   2.003  12.727  0.8889 -0.5502 -1.7786
15433TIP3   OH267713   0.656   2.442  12.422 -0.1222 -0.3677 -0.1748
15433TIP3    H167714   0.692   2.470  12.338 -0.4706  1.5641  0.2795
15433TIP3    H267715   0.731   2.410  12.471  0.3823  0.2031 -0.5619
15434TIP3   OH267716   0.219   6.110   0.201 -0.0397 -0.5998  0.4066
15434TIP3    H167717   0.178   6.196   0.205 -0.2179 -0.6580 -0.0737
15434TIP3    H267718   0.172   6.065   0.130  2.3790  0.1478 -1.8330
15435TIP3   OH267719   0.078   2.243   4.544  0.0223 -0.0920 -0.1232
15435TIP3    H167720   0.128   2.169   4.578  1.4173  0.4411 -0.9230
15435TIP3    H267721   0.124   2.268   4.463 -1.9783 -0.0309 -1.3077
15436TIP3   OH267722   1.536   4.999   0.288  0.2371 -0.0146 -0.3254
15436TIP3    H167723   1.566   4.930   0.229  1.2717 -0.9052  1.1622
15436TIP3    H267724   1.472   4.955   0.344  0.3124  0.4327  0.1154
15437TIP3   OH267725   4.367   0.557  12.699 -0.1793  0.1448  0.2019
15437TIP3    H167726   4.432   0.504  12.652 -0.3543  0.0480  0.0693
15437TIP3    H267727   4.397   0.556  12.790 -0.3240 -0.4030  0.2487
15438TIP3   OH267728   5.711   2.050   6.078  0.1479 -0.4263  0.5891
15438TIP3    H167729   5.680   2.099   6.154  1.5961  1.1613  0.2149
15438TIP3    H267730   5.746   1.969   6.114  0.2718  0.0449  1.5467
15439TIP3   OH267731   2.388   2.652  14.726  0.6696  0.0339 -0.0129
15439TIP3    H167732   2.456   2.707  14.764  0.8163 -0.2281  0.1014
15439TIP3    H267733   2.398   2.664  14.631  0.3382  0.6440  0.0207
15440TIP3   OH267734   6.243   1.716   4.023  0.3378 -0.0887 -0.1807
15440TIP3    H167735   6.300   1.778   3.978  1.6949 -0.9429  0.3121
15440TIP3    H267736   6.193   1.769   4.084 -0.0538  0.7979 -1.2394
15441TIP3   OH267737   5.242   6.469   2.650 -0.0473  0.4018  0.5696
15441TIP3    H167738   5.241   6.563   2.634 -0.9780  0.5547  1.4434
15441TIP3    H267739   5.256   6.460   2.744  1.9011 -0.3957  0.2604
15442TIP3   OH267740   1.332   5.619   6.064 -0.6674 -0.0689 -0.0761
15442TIP3    H167741   1.360   5.691   6.120 -1.4804  0.0515  0.1859
15442TIP3    H267742   1.276   5.565   6.120 -0.9257 -0.3265 -0.5722
15443TIP3   OH267743   3.976   4.458  13.376 -0.3303  0.1085  0.4147
15443TIP3    H167744   3.946   4.478  13.287 -0.1584  0.3831  0.4154
15443TIP3    H267745   3.908   4.402  13.412 -0.3173 -0.1499  0.0487
15444TIP3   OH267746   2.418   1.651  16.410 -0.3207 -0.4082 -0.1984
15444TIP3    H167747   2.509   1.621  16.408  0.2128  0.9558  1.5038
15444TIP3    H267748   2.387   1.628  16.498 -1.5940 -0.7332 -0.7089
15445TIP3   OH267749   2.679   1.977  11.394 -0.4224  0.4704  0.5650
15445TIP3    H167750   2.708   2.005  11.307 -1.5416 -0.6173 -0.1842
15445TIP3    H267751   2.756   1.990  11.450  1.0988 -1.0066 -1.0482
15446TIP3   OH267752   2.388   3.574  17.199  0.3477  0.7398  0.0894
15446TIP3    H167753   2.478   3.565  17.229  0.3777 -0.1355 -0.2195
15446TIP3    H267754   2.351   3.643  17.253  0.6910 -0.1040  1.4470
15447TIP3   OH267755   5.161   0.274   3.958 -0.2031  0.4318 -0.3082
15447TIP3    H167756   5.194   0.364   3.955 -0.6776  0.5783 -1.3528
15447TIP3    H267757   5.225   0.223   3.908  1.1869 -0.2262  1.9403
15448TIP3   OH267758   1.078   4.797  12.090  0.5157 -0.5117 -0.1655
15448TIP3    H167759   1.046   4.767  12.175 -0.5385  0.1142 -0.3391
15448TIP3    H267760   1.060   4.890  12.088  2.4171 -0.0956 -0.2568
15449TIP3   OH267761   4.419   3.424  16.244 -0.3438  0.1303 -0.6408
15449TIP3    H167762   4.373   3.406  16.327  1.6876 -0.4538  0.4168
15449TIP3    H267763   4.452   3.513  16.255  1.5944 -0.6275  0.0540
15450TIP3   OH267764   1.864   5.974  15.174 -0.1453  0.0885  0.8598
15450TIP3    H167765   1.890   5.942  15.260  1.2421  0.4781  0.6126
15450TIP3    H267766   1.826   5.898  15.130 -0.2002 -0.2909  1.5539
15451TIP3   OH267767   3.643   5.711  16.637  0.2744 -0.1929  0.4245
15451TIP3    H167768   3.588   5.710  16.559  0.7529  1.0507  0.0510
15451TIP3    H267769   3.582   5.704  16.710 -0.2685 -0.1979 -0.0277
15452TIP3   OH267770   6.187   5.003   0.448 -0.0432 -0.3911 -0.0860
15452TIP3    H167771   6.260   4.948   0.475 -0.3536 -0.6102  0.3238
15452TIP3    H267772   6.125   4.942   0.406 -0.4431 -0.3864  0.4805
15453TIP3   OH267773   3.971   2.157   2.160 -0.0863  0.4673 -0.1931
15453TIP3    H167774   4.049   2.155   2.104 -0.2162 -0.6438 -0.3469
15453TIP3    H267775   3.944   2.066   2.166 -2.0248  0.9521 -1.0107
15454TIP3   OH267776   0.110   5.099  11.280  0.3096 -0.0199  0.0355
15454TIP3    H167777   0.077   5.153  11.208  2.2520  0.2786 -0.6982
15454TIP3    H267778   0.140   5.018  11.238  1.2879  0.0776  0.5041
15455TIP3   OH267779   0.213   4.133  13.035 -0.0723 -0.1446  0.5635
15455TIP3    H167780   0.123   4.160  13.056 -0.5642  0.3426 -1.8147
15455TIP3    H267781   0.208   4.038  13.028 -0.1230 -0.2228  1.4956
15456TIP3   OH267782   4.216   3.102   0.637 -0.1497  0.1728  0.3127
15456TIP3    H167783   4.216   3.166   0.566 -3.5124 -0.5731 -0.5764
15456TIP3    H267784   4.307   3.097   0.666  0.8948  2.4240 -2.1797
15457TIP3   OH267785   2.784   0.343  13.288 -0.4865  0.5003  0.0040
15457TIP3    H167786   2.848   0.319  13.221  0.4860  1.1232  0.6895
15457TIP3    H267787   2.718   0.393  13.241 -0.3722  0.0276 -0.6791
15458TIP3   OH267788   4.423   1.490  11.559  0.2754 -0.3534 -0.3915
15458TIP3    H167789   4.381   1.537  11.486  1.3266  0.0535 -0.7505
15458TIP3    H267790   4.377   1.407  11.563 -2.1136  0.9117  0.7031
15459TIP3   OH267791   6.190   4.512   4.852  0.6088  0.2332 -0.5302
15459TIP3    H167792   6.188   4.416   4.856  0.2781  0.1953 -1.3730
15459TIP3    H267793   6.109   4.535   4.806  0.9662  0.8886 -0.8362
15460TIP3   OH267794   6.574   6.498   0.199  0.5056 -0.0493  0.2897
15460TIP3    H167795   6.508   6.490   0.267  1.3462  0.8039  1.2350
15460TIP3    H267796   6.524   6.507   0.118 -0.5056 -1.3073  0.7446
15461TIP3   OH267797   2.701   6.615   0.697 -0.4663 -0.2819  0.1305
15461TIP3    H167798   2.742   6.632   0.782  0.1774  1.1907 -0.4476
15461TIP3    H267799   2.764   6.558   0.652  1.6925  2.8221 -1.1740
15462TIP3   OH267800   6.158   4.239   4.928 -0.2190  0.1414  0.2725
15462TIP3    H167801   6.222   4.188   4.978  0.8426  0.9672 -0.1966
15462TIP3    H267802   6.083   4.181   4.918  0.4714 -0.8708  0.8091
15463TIP3   OH267803   5.409   0.324  10.960  0.2064 -0.3063  0.1103
15463TIP3    H167804   5.493   0.327  11.005  0.8449  0.6064 -1.0665
15463TIP3    H267805   5.398   0.232  10.936  0.0887 -0.7146  1.6448
15464TIP3   OH267806   2.211   3.491  14.897  0.0410 -0.1744  0.5619
15464TIP3    H167807   2.209   3.396  14.895 -0.7874 -0.1477 -0.3772
15464TIP3    H267808   2.119   3.517  14.907  0.4039  0.5096  2.5825
15465TIP3   OH267809   5.245   2.567   4.033  0.5063 -0.0892  0.0022
15465TIP3    H167810   5.235   2.537   4.123 -1.5612  1.0356  0.2207
15465TIP3    H267811   5.161   2.608   4.012  1.6483  1.5505 -1.7315
15466TIP3   OH267812   1.349   0.554  11.970 -0.2142 -0.6321 -0.5275
15466TIP3    H167813   1.364   0.605  12.049 -0.6179 -0.1622 -0.7507
15466TIP3    H267814   1.270   0.591  11.931 -0.8985 -1.8617 -0.3544
15467TIP3   OH267815   4.969   5.343  14.616  0.3387 -1.3527  0.0432
15467TIP3    H167816   4.906   5.361  14.686 -0.0064 -0.2331 -0.5292
15467TIP3    H267817   4.944   5.257  14.583 -1.6354 -0.4815 -0.9026
15468TIP3   OH267818   2.530   4.206  15.739  0.3191 -0.5235  0.3427
15468TIP3    H167819   2.539   4.292  15.698  0.8092 -1.2295 -1.0805
15468TIP3    H267820   2.534   4.224  15.833 -2.1407  1.2920  0.1978
15469TIP3   OH267821   5.865   1.539  11.235  0.1971  0.5040 -0.6693
15469TIP3    H167822   5.919   1.541  11.313 -0.1192  2.2905 -0.4701
15469TIP3    H267823   5.922   1.572  11.165  0.8022 -1.9956 -1.4697
15470TIP3   OH267824   2.165   4.213   2.018  0.4489  0.2167 -0.3198
15470TIP3    H167825   2.193   4.297   2.056 -0.9525  1.1969 -1.3781
15470TIP3    H267826   2.164   4.229   1.924 -1.1740 -0.5538 -0.4605
15471TIP3   OH267827   0.708   2.778   4.523 -0.2835  0.3013 -0.3517
15471TIP3    H167828   0.668   2.860   4.493  0.7021  0.0845 -2.4534
15471TIP3    H267829   0.660   2.709   4.476 -0.0606 -0.2138  0.1686
15472TIP3   OH267830   6.015   0.313  11.022  0.3686 -0.7835 -0.1697
15472TIP3    H167831   5.983   0.403  11.014 -2.3550 -1.2329  3.2803
15472TIP3    H267832   6.099   0.321  11.066 -1.0250  0.1531  2.5785
15473TIP3   OH267833   2.795   0.227  10.029 -0.1440 -0.2818 -0.1207
15473TIP3    H167834   2.733   0.282  10.077 -0.2377 -0.2063 -0.3295
15473TIP3    H267835   2.879   0.270  10.041 -0.3916  0.5659 -1.2614
15474TIP3   OH267836   1.799   4.174   5.798 -0.1244 -0.3363 -0.1051
15474TIP3    H167837   1.884   4.135   5.778 -0.0181  0.0252 -0.3653
15474TIP3    H267838   1.809   4.266   5.775 -0.4997 -0.2348  0.1277
15475TIP3   OH267839   1.119   1.685  14.667 -0.1283 -0.3950 -0.6037
15475TIP3    H167840   1.064   1.616  14.705 -0.2566 -0.8360 -1.5462
15475TIP3    H267841   1.203   1.676  14.711 -0.2909 -0.8519 -0.3777
15476TIP3   OH267842   4.680   0.074   4.180 -0.2264 -0.1554 -0.0453
15476TIP3    H167843   4.680   0.052   4.273 -0.7186  2.8224  0.7565
15476TIP3    H267844   4.743   0.146   4.172 -1.7290  1.0739 -1.5947
15477TIP3   OH267845   1.183   5.666  11.818  0.2362  0.1040  0.1707
15477TIP3    H167846   1.180   5.647  11.911  1.3404 -2.3979 -0.2334
15477TIP3    H267847   1.098   5.707  11.799 -0.6678 -0.8143  1.9766
15478TIP3   OH267848   0.489   1.666  16.519  0.2732  0.4813  0.2179
15478TIP3    H167849   0.499   1.751  16.561  0.3885 -0.5325  2.3561
15478TIP3    H267850   0.576   1.628  16.520 -0.1460 -0.4885  1.1830
15479TIP3   OH267851   2.129   2.958   5.094  0.0929 -0.0442 -0.2573
15479TIP3    H167852   2.211   2.965   5.144  0.1975  1.5511 -0.5897
15479TIP3    H267853   2.085   2.882   5.131  2.3993 -1.8969 -1.1051
15480TIP3   OH267854   2.412   1.410  12.743 -0.1684  0.6957  0.3285
15480TIP3    H167855   2.431   1.376  12.656  2.4422 -0.2487  1.1703
15480TIP3    H267856   2.326   1.375  12.765  1.1881 -3.3335  0.0437
15481TIP3   OH267857   6.567   5.508  15.240 -0.0842 -0.4704  0.2741
15481TIP3    H167858   6.625   5.465  15.177 -1.5109 -1.5446 -0.3698
15481TIP3    H267859   6.549   5.594  15.202  0.6151 -0.3586  0.1925
15482TIP3   OH267860   1.990   0.980   3.128  0.0256  0.0117  0.2082
15482TIP3    H167861   2.071   1.026   3.149  0.6590 -0.0606 -1.8809
15482TIP3    H267862   1.994   0.900   3.180  1.6138 -0.2758 -0.2945
15483TIP3   OH267863   3.456   0.632   1.227 -0.7587 -0.4583 -0.2738
15483TIP3    H167864   3.429   0.624   1.318 -0.8322 -0.7175 -0.3178
15483TIP3    H267865   3.388   0.685   1.186  0.4842  1.7765  0.3543
15484TIP3   OH267866   4.958   4.726  16.777 -0.5679  0.8175 -0.1131
15484TIP3    H167867   4.870   4.756  16.756 -0.2202  0.0777 -3.1815
15484TIP3    H267868   4.946   4.638  16.812 -1.0481  0.2271 -1.6812
15485TIP3   OH267869   0.712   0.590  15.629 -0.0141  0.6363 -0.1682
15485TIP3    H167870   0.652   0.656  15.664 -0.7351  0.8087 -1.6460
15485TIP3    H267871   0.659   0.511  15.620  0.0049  0.7276 -1.2755
15486TIP3   OH267872   4.557   2.517   4.624 -0.7067 -0.3673 -0.0263
15486TIP3    H167873   4.505   2.437   4.615 -0.1495 -0.8051  0.5347
15486TIP3    H267874   4.493   2.588   4.629 -1.1894 -0.7009 -1.2253
15487TIP3   OH267875   3.057   1.317   3.171  0.6302 -0.4320 -0.0766
15487TIP3    H167876   3.009   1.310   3.089 -2.1174  1.2492  1.2282
15487TIP3    H267877   3.146   1.342   3.146  0.4220 -1.8348 -2.5505
15488TIP3   OH267878   5.087   6.381  10.907  0.0239 -0.0601  0.6941
15488TIP3    H167879   5.158   6.335  10.863 -1.1484  1.4001 -3.1754
15488TIP3    H267880   5.008   6.349  10.864 -1.4802  0.1494  3.1527
15489TIP3   OH267881   1.917   1.530  14.714  0.7010 -0.4031  0.5520
15489TIP3    H167882   1.824   1.508  14.720  0.5387  0.4664  1.4155
15489TIP3    H267883   1.961   1.445  14.706 -0.1868 -0.7989 -0.3533
15490TIP3   OH267884   1.314   4.241  16.360  0.6377 -0.0622  0.2677
15490TIP3    H167885   1.380   4.190  16.407  0.5368  0.1476  0.6449
15490TIP3    H267886   1.250   4.266  16.427 -0.3104 -1.0191 -0.2484
15491TIP3   OH267887   2.730   6.586  14.053  0.6263  0.5514  0.1026
15491TIP3    H167888   2.669   6.536  13.998 -0.4825  2.6927 -0.7447
15491TIP3    H267889   2.724   6.544  14.139 -1.2761  0.0573 -0.2207
15492TIP3   OH267890   4.965   4.402   2.427 -0.9444 -0.0421 -0.1438
15492TIP3    H167891   4.969   4.447   2.343  1.6803 -0.8206 -0.5185
15492TIP3    H267892   4.909   4.326   2.412  1.9130 -1.9259 -2.1935
15493TIP3   OH267893   1.762   5.741  16.045  0.0261 -0.2420  0.0658
15493TIP3    H167894   1.702   5.759  16.117 -0.2452  1.9912 -0.6561
15493TIP3    H267895   1.724   5.664  16.002  0.0155 -1.4136  2.0374
15494TIP3   OH267896   3.334   0.808  14.656  0.9959 -0.1799  0.2138
15494TIP3    H167897   3.282   0.729  14.669 -0.5220  1.0376  1.9308
15494TIP3    H267898   3.353   0.808  14.562 -1.1508 -1.2658 -0.2788
15495TIP3   OH267899   5.867   4.386   0.468 -0.0972 -0.1297 -0.6995
15495TIP3    H167900   5.839   4.445   0.398 -1.5677  2.1034  1.5997
15495TIP3    H267901   5.803   4.314   0.466 -1.3235  0.9210 -0.4682
15496TIP3   OH267902   3.397   4.204  16.413 -0.0707  0.3638  0.3763
15496TIP3    H167903   3.390   4.186  16.319 -0.7736  1.6099  0.1746
15496TIP3    H267904   3.465   4.272  16.419 -1.6141  1.9643  0.5141
15497TIP3   OH267905   4.896   0.285  14.809  0.2132 -0.1740 -0.0784
15497TIP3    H167906   4.916   0.192  14.802  2.8213  0.1908  1.2457
15497TIP3    H267907   4.887   0.315  14.719  0.3619 -1.4950 -0.5454
15498TIP3   OH267908   2.072   4.765   5.595 -0.5351 -0.5193 -0.1779
15498TIP3    H167909   2.076   4.790   5.502 -0.1994  0.1709  0.0131
15498TIP3    H267910   2.150   4.711   5.608 -0.2437 -0.0990 -0.1555
15499TIP3   OH267911   0.426   2.475   3.285 -0.6166 -0.4967  0.0674
15499TIP3    H167912   0.372   2.398   3.304 -0.5501 -1.9280 -4.4065
15499TIP3    H267913   0.363   2.543   3.260 -0.5361  0.0051  1.1607
15500TIP3   OH267914   6.122   0.789  17.028  0.1902 -0.0444 -0.0855
15500TIP3    H167915   6.104   0.748  17.112 -0.8042  0.0848 -0.2117
15500TIP3    H267916   6.086   0.728  16.963 -0.0280  0.3563 -0.3491
15501TIP3   OH267917   0.530   1.175   2.142  0.1984 -0.1895  0.3120
15501TIP3    H167918   0.488   1.207   2.222 -1.5096  0.0285 -0.6145
15501TIP3    H267919   0.589   1.246   2.117 -2.7513  2.0155 -1.1256
15502TIP3   OH267920   6.261   1.625   1.159 -0.2166  0.1738  0.8185
15502TIP3    H167921   6.262   1.720   1.160  0.9749  0.1719  1.1606
15502TIP3    H267922   6.292   1.601   1.072  0.4739  0.1125  1.0705
15503TIP3   OH267923   1.004   4.340  14.548 -0.0118 -0.3791 -0.5525
15503TIP3    H167924   0.985   4.419  14.599 -1.0443 -0.2580 -1.0953
15503TIP3    H267925   0.950   4.349  14.470  1.6608 -0.4631 -1.7896
15504TIP3   OH267926   6.401   0.938  10.705  0.0345 -0.0648 -0.2171
15504TIP3    H167927   6.472   0.889  10.746  0.8387  1.6977  0.5665
15504TIP3    H267928   6.441   0.982  10.630 -0.3895  0.3349 -0.2142
15505TIP3   OH267929   2.638   6.532  11.244 -0.0958  0.3959  0.3858
15505TIP3    H167930   2.633   6.589  11.321  0.7745  3.4836 -1.6556
15505TIP3    H267931   2.718   6.481  11.257  0.3297  1.2610  1.2816
15506TIP3   OH267932   2.379   2.518   4.702 -0.3688 -0.6827  0.6795
15506TIP3    H167933   2.354   2.465   4.626  0.4335 -2.4273  1.5533
15506TIP3    H267934   2.348   2.606   4.682 -0.5539 -1.1836 -1.4640
15507TIP3   OH267935   1.266   3.488   4.004  0.0545  0.5073  0.0580
15507TIP3    H167936   1.188   3.501   4.058  0.1374  1.7301 -0.0914
15507TIP3    H267937   1.338   3.522   4.057  0.0399  2.4136 -1.0887
15508TIP3   OH267938   3.222   2.872  11.655 -0.2208 -0.5344  0.1380
15508TIP3    H167939   3.144   2.829  11.620  1.1167 -1.4801 -1.8576
15508TIP3    H267940   3.219   2.960  11.618  0.3546 -1.0180 -1.0967
15509TIP3   OH267941   6.577   5.917  17.003 -0.6407 -0.3391  0.9082
15509TIP3    H167942   6.485   5.942  16.997 -0.8599 -1.0679  1.1436
15509TIP3    H267943   6.580   5.827  16.972  0.2659  0.2124 -0.7200
15510TIP3   OH267944   5.080   3.858   0.358  0.0949 -0.1434  0.3410
15510TIP3    H167945   5.122   3.884   0.276 -2.2487  1.4958 -0.4544
15510TIP3    H267946   5.111   3.921   0.423  1.0365 -0.7084  0.4488
15511TIP3   OH267947   5.073   1.634   0.757 -0.0170  0.7805  0.3835
15511TIP3    H167948   5.004   1.683   0.714 -1.0772  0.1429  1.3088
15511TIP3    H267949   5.077   1.670   0.846  0.4274  0.3986  0.5260
15512TIP3   OH267950   3.355   5.409  12.419 -0.7889  0.3921 -0.3584
15512TIP3    H167951   3.412   5.333  12.408  0.5822  1.5463 -1.6156
15512TIP3    H267952   3.344   5.417  12.514  0.1716 -0.5549 -0.1468
15513TIP3   OH267953   6.146   3.879  12.221  0.0150 -0.1222 -0.8184
15513TIP3    H167954   6.223   3.872  12.278 -0.5471 -1.0872 -0.1503
15513TIP3    H267955   6.088   3.938  12.268  0.4166  0.7957 -1.4351
15514TIP3   OH267956   0.230   6.782  15.553  0.0098 -0.0469  0.3054
15514TIP3    H167957   0.289   6.851  15.522  0.5918 -0.4237  0.5438
15514TIP3    H267958   0.177   6.760  15.476 -0.2272  0.7077  0.2504
15515TIP3   OH267959   4.909   3.509   1.042  0.4597 -1.1679 -0.0669
15515TIP3    H167960   4.952   3.434   1.002 -0.0112 -1.6255  0.2874
15515TIP3    H267961   4.831   3.474   1.084  0.9950 -0.7323  1.3552
15516TIP3   OH267962   5.216   2.404   1.282  0.5169 -0.2221  0.6774
15516TIP3    H167963   5.286   2.453   1.239 -0.0525 -0.3305 -0.4050
15516TIP3    H267964   5.149   2.471   1.301  0.3639 -0.3292  0.5212
15517TIP3   OH267965   2.015   1.072  17.119 -0.2218 -0.3343 -0.2620
15517TIP3    H167966   2.080   1.086  17.188 -1.0317  1.7184  0.1548
15517TIP3    H267967   2.064   1.031  17.048  0.8543 -1.5631  1.1247
15518TIP3   OH267968   3.021   5.398  16.052 -0.1492 -0.1461  0.2839
15518TIP3    H167969   2.982   5.407  16.139 -1.7656  0.0771 -0.4153
15518TIP3    H267970   3.002   5.307  16.028  0.9383 -0.4271  0.4377
15519TIP3   OH267971   0.369   0.457  16.316  0.2469 -0.3865 -0.6033
15519TIP3    H167972   0.403   0.380  16.272 -0.1690 -0.7115 -0.3635
15519TIP3    H267973   0.406   0.531  16.268  0.7771 -0.7352 -0.7335
15520TIP3   OH267974   4.404   2.692   1.956 -0.0410  0.3926  0.2856
15520TIP3    H167975   4.353   2.674   2.035  0.3474  0.3748  0.5352
15520TIP3    H267976   4.487   2.646   1.970 -0.3487 -0.4610 -0.5773
15521TIP3   OH267977   5.648   3.992  13.091  0.0268  0.7433 -0.8446
15521TIP3    H167978   5.599   3.921  13.132 -0.2560  0.2224 -2.0190
15521TIP3    H267979   5.635   4.067  13.148 -0.3633  0.0618 -0.0121
15522TIP3   OH267980   3.352   0.477   4.354 -0.4686 -0.1745  0.0368
15522TIP3    H167981   3.319   0.439   4.435 -0.1771 -0.1928  0.1473
15522TIP3    H267982   3.366   0.570   4.375  0.0502 -0.2744  0.1462
15523TIP3   OH267983   4.168   1.198   2.458  0.4341 -0.0569 -0.3326
15523TIP3    H167984   4.168   1.283   2.503 -0.6545 -1.4534  2.5761
15523TIP3    H267985   4.252   1.158   2.483  0.1991 -0.4981 -0.2360
15524TIP3   OH267986   6.515   0.855  12.958 -0.1579 -0.0356  0.1375
15524TIP3    H167987   6.478   0.942  12.941  1.1809  0.4974 -0.2016
15524TIP3    H267988   6.440   0.802  12.986 -0.9864  1.2507  0.4644
15525TIP3   OH267989   3.865   2.271   0.692 -0.0204 -0.3345  0.3848
15525TIP3    H167990   3.902   2.261   0.603  1.4945 -0.2744  0.9686
15525TIP3    H267991   3.771   2.263   0.680  0.1474 -0.2125 -1.2548
15526TIP3   OH267992   5.764   4.384  11.041  0.3751 -0.2259 -0.3856
15526TIP3    H167993   5.806   4.382  11.127  0.9164  0.2752 -0.6279
15526TIP3    H267994   5.837   4.393  10.979 -0.0705  0.3904 -0.8311
15527TIP3   OH267995   0.341   2.060  15.348 -0.1852 -0.2180 -0.2208
15527TIP3    H167996   0.247   2.062  15.329  0.1010 -0.9999 -1.8827
15527TIP3    H267997   0.370   1.976  15.312  1.0538 -0.2625  0.8271
15528TIP3   OH267998   6.057   5.326   4.020 -0.5279 -0.4232  0.2237
15528TIP3    H167999   6.079   5.412   3.985  0.4111 -0.8087 -0.1756
15528TIP3    H268000   6.068   5.267   3.945 -2.3360 -0.7460  0.1752
15529TIP3   OH268001   2.841   2.822   2.985  0.1458 -0.5090 -0.4340
15529TIP3    H168002   2.846   2.745   2.928  1.2660 -0.6677 -0.1537
15529TIP3    H268003   2.927   2.864   2.976  0.2889 -0.4451  1.0089
15530TIP3   OH268004   5.102   0.881   1.108 -0.3847 -0.0014  0.0373
15530TIP3    H168005   5.024   0.869   1.163 -0.0407 -0.1450  0.5034
15530TIP3    H268006   5.068   0.888   1.019 -0.9249 -0.1502  0.2289
15531TIP3   OH268007   0.192   4.360   1.158  0.3830 -0.2245  0.1309
15531TIP3    H168008   0.115   4.316   1.122  0.3249 -0.4787  0.5634
15531TIP3    H268009   0.202   4.323   1.246 -1.9059  3.1749  2.0722
15532TIP3   OH268010   4.596   4.033   5.255 -0.2992 -0.5892  0.2141
15532TIP3    H168011   4.640   3.954   5.285 -0.9187 -0.7151  0.7995
15532TIP3    H268012   4.667   4.094   5.235  0.1491 -0.8807  0.9038
15533TIP3   OH268013   2.981   3.638  14.510  0.0345  0.3847  0.4802
15533TIP3    H168014   2.951   3.636  14.600 -1.0596  0.0199  0.1252
15533TIP3    H268015   2.988   3.731  14.488 -0.7502  0.4761  0.6085
15534TIP3   OH268016   0.823   5.261  14.231 -0.3620 -0.0779  0.1106
15534TIP3    H168017   0.816   5.247  14.137  2.0651  1.9790 -0.4901
15534TIP3    H268018   0.805   5.175  14.269 -1.0097 -1.0636 -2.2361
15535TIP3   OH268019   4.500   0.886   1.040  0.0879 -0.1558 -0.0190
15535TIP3    H168020   4.446   0.891   1.119  0.8288 -0.1942  0.4979
15535TIP3    H268021   4.447   0.836   0.978 -0.0729 -1.0669  0.8252
15536TIP3   OH268022   2.122   4.105  16.144  0.0568 -0.1237 -0.4770
15536TIP3    H168023   2.127   4.199  16.128 -0.0952  0.1677  1.0054
15536TIP3    H268024   2.083   4.069  16.064  0.2677  1.0402 -1.1337
15537TIP3   OH268025   1.676   3.286  12.399 -0.8666 -0.5821 -0.6726
15537TIP3    H168026   1.658   3.288  12.305 -0.4720 -1.5117 -0.7842
15537TIP3    H268027   1.688   3.193  12.418 -0.9162 -0.3915  0.2938
15538TIP3   OH268028   2.174   0.991   3.600 -0.0350  0.6863  0.5433
15538TIP3    H168029   2.257   1.037   3.609  0.2806  0.0671  0.8816
15538TIP3    H268030   2.139   1.021   3.517  0.8121  0.5155  0.1092
15539TIP3   OH268031   5.767   2.298  16.982 -0.7277 -0.0839 -0.3823
15539TIP3    H168032   5.837   2.340  16.932 -0.0569 -1.2755 -0.4740
15539TIP3    H268033   5.713   2.371  17.012 -0.3227  0.7520 -1.5995
15540TIP3   OH268034   3.318   6.743   1.417 -0.2192  0.0398 -0.0753
15540TIP3    H168035   3.270   6.802   1.359 -0.5045  0.4240  0.5503
15540TIP3    H268036   3.342   6.797   1.492 -1.4204 -0.8899  1.0218
15541TIP3   OH268037   4.489   4.780   6.233  0.6840  0.1794 -0.2912
15541TIP3    H168038   4.502   4.695   6.276 -1.6792 -0.6464 -1.0268
15541TIP3    H268039   4.476   4.842   6.305 -1.1339 -0.7997  0.3127
15542TIP3   OH268040   1.089   5.301  12.114  0.0448  0.2343 -0.1443
15542TIP3    H168041   1.014   5.270  12.166  0.6329  1.4544  1.5391
15542TIP3    H268042   1.162   5.245  12.142 -0.0320 -0.3808 -1.1359
15543TIP3   OH268043   3.153   6.053  15.332 -0.5983 -0.5340 -0.4416
15543TIP3    H168044   3.086   5.990  15.360 -0.2572 -1.3776 -1.4698
15543TIP3    H268045   3.212   6.002  15.277  0.1867  0.4961 -0.5724
15544TIP3   OH268046   4.334   4.211   2.708 -0.1872 -0.0555 -0.5690
15544TIP3    H168047   4.363   4.272   2.640 -1.3802  0.8353 -0.3077
15544TIP3    H268048   4.256   4.170   2.670 -1.5210  1.2394  0.6293
15545TIP3   OH268049   4.615   1.170  11.005  0.1122  0.6477  0.3817
15545TIP3    H168050   4.547   1.224  10.964  0.2044  0.7003  0.2959
15545TIP3    H268051   4.578   1.145  11.090 -0.1479  0.3983  0.1965
15546TIP3   OH268052   2.825   2.316  15.386  0.0723 -0.0659 -0.9171
15546TIP3    H168053   2.768   2.366  15.446  0.1948 -1.2031  0.1796
15546TIP3    H268054   2.773   2.307  15.306 -0.7578  0.0571 -0.4017
15547TIP3   OH268055   4.389   4.174  14.302 -0.0871  0.3222 -0.2003
15547TIP3    H168056   4.477   4.140  14.286 -0.5870 -1.5675  0.8367
15547TIP3    H268057   4.352   4.188  14.215  0.0382 -2.1774 -0.7081
15548TIP3   OH268058   2.346   6.125   2.106 -0.2000  0.0487 -0.2247
15548TIP3    H168059   2.313   6.065   2.174 -0.3057  1.0202  0.6003
15548TIP3    H268060   2.441   6.119   2.114 -0.1465  2.1428  1.8915
15549TIP3   OH268061   6.106   2.603   0.765 -0.2366  0.5388 -0.4225
15549TIP3    H168062   6.172   2.591   0.697  0.3961 -1.8191  0.5177
15549TIP3    H268063   6.114   2.696   0.789  1.7566  0.6604 -1.2986
15550TIP3   OH268064   5.811   3.263  13.688 -0.8769 -0.5504 -0.2722
15550TIP3    H168065   5.858   3.249  13.606 -0.4411 -0.7954  0.0106
15550TIP3    H268066   5.735   3.204  13.683 -2.3770  1.3779 -1.6433
15551TIP3   OH268067   1.499   1.496  13.006 -0.2413  0.2788 -0.3482
15551TIP3    H168068   1.564   1.459  13.065  0.1103  0.1141 -0.8353
15551TIP3    H268069   1.448   1.556  13.061  0.7483  0.9233 -0.1051
15552TIP3   OH268070   3.739   3.154  16.200  0.2624  0.2792 -0.3030
15552TIP3    H168071   3.653   3.116  16.218 -0.7754  2.8543  0.5391
15552TIP3    H268072   3.791   3.080  16.168 -1.7816 -1.6824  0.6243
15553TIP3   OH268073   1.939   3.533   4.272  0.4412 -0.0061 -0.1702
15553TIP3    H168074   2.025   3.494   4.258 -0.2249 -0.9502 -1.9208
15553TIP3    H268075   1.879   3.459   4.274 -0.4517  0.6989  0.2095
15554TIP3   OH268076   0.266   5.390   4.188  0.0929 -0.7544  0.1313
15554TIP3    H168077   0.240   5.319   4.246  0.3038 -0.9779 -0.0448
15554TIP3    H268078   0.248   5.357   4.100 -2.0855  0.3104  0.1005
15555TIP3   OH268079   1.272   3.434  13.252  0.0786 -0.1095 -0.5024
15555TIP3    H168080   1.329   3.463  13.181 -0.0737  1.1097 -0.1433
15555TIP3    H268081   1.331   3.395  13.316  0.2553 -0.8826 -1.1188
15556TIP3   OH268082   4.317   3.638  14.656 -0.4481  0.1194  0.6792
15556TIP3    H168083   4.260   3.678  14.590 -1.8342  0.3353  1.9762
15556TIP3    H268084   4.278   3.662  14.740  0.2620 -1.6566  1.5639
15557TIP3   OH268085   2.618   1.067   4.504 -0.4266  0.2080 -0.0440
15557TIP3    H168086   2.568   1.004   4.451 -0.6879 -0.2308  0.7094
15557TIP3    H268087   2.641   1.136   4.442  0.4534 -0.9477 -1.0615
15558TIP3   OH268088   4.162   0.506   4.902  0.5120 -0.2177 -0.7288
15558TIP3    H168089   4.068   0.525   4.897  0.3735 -1.2562 -3.5874
15558TIP3    H268090   4.170   0.438   4.969 -0.4985  1.0996  0.7986
15559TIP3   OH268091   3.599   5.635   3.308  0.0170  0.0299  0.3758
15559TIP3    H168092   3.694   5.646   3.305 -0.1397  1.5529  0.3262
15559TIP3    H268093   3.580   5.614   3.399  0.1913  2.1881  0.9512
15560TIP3   OH268094   2.415   4.892   1.437 -0.3701 -0.0158  0.5720
15560TIP3    H168095   2.456   4.806   1.435  0.5483  0.4063  0.6905
15560TIP3    H268096   2.473   4.945   1.492  0.5101  1.3625 -1.5620
15561TIP3   OH268097   2.939   0.983   2.213  0.1202  0.0398 -0.2575
15561TIP3    H168098   2.901   1.061   2.253  0.2422  0.5038 -1.0348
15561TIP3    H268099   3.029   0.981   2.246  0.3917  0.7310 -0.9148
15562TIP3   OH268100   5.872   1.045   4.174  0.3598  0.2939 -0.3039
15562TIP3    H168101   5.806   1.058   4.106  0.8889  0.0589 -0.8701
15562TIP3    H268102   5.848   1.109   4.242 -1.0379 -0.4794 -0.0275
15563TIP3   OH268103   3.282   6.079  16.831  0.2023  0.2792  0.1402
15563TIP3    H168104   3.365   6.042  16.801  0.0428 -0.4622  0.5767
15563TIP3    H268105   3.231   6.094  16.751  1.1524  1.7865 -0.2317
15564TIP3   OH268106   1.944   0.305   1.276 -0.2452  0.2573  0.4275
15564TIP3    H168107   1.891   0.289   1.355 -1.4062 -2.3094 -0.7568
15564TIP3    H268108   2.025   0.257   1.291  0.1919  1.0660  0.6846
15565TIP3   OH268109   1.279   0.893  10.157  0.1288  0.1166  0.1132
15565TIP3    H168110   1.246   0.898  10.247 -0.8268 -0.6515 -0.1898
15565TIP3    H268111   1.356   0.951  10.157  1.2092 -1.2196  1.8787
15566TIP3   OH268112   6.274   2.299  13.457  0.0856 -0.0402  0.2563
15566TIP3    H168113   6.362   2.280  13.491  0.3973 -0.5124 -0.7797
15566TIP3    H268114   6.281   2.387  13.422  0.5719 -0.5773 -1.0901
15567TIP3   OH268115   3.736   1.370  15.843 -0.2359 -0.4744 -0.4696
15567TIP3    H168116   3.825   1.400  15.827  0.4113 -0.0414  3.0888
15567TIP3    H268117   3.680   1.442  15.814  0.7806  0.5669  0.1018
15568TIP3   OH268118   0.451   4.548   6.227  0.3650 -0.2581 -0.2511
15568TIP3    H168119   0.398   4.469   6.240 -1.2142  0.8362  0.2348
15568TIP3    H268120   0.451   4.562   6.132  1.3892 -1.2922 -0.4282
15569TIP3   OH268121   4.963   6.585  16.492 -0.4761  0.2196  0.9599
15569TIP3    H168122   4.963   6.516  16.559  0.3486  1.3882  2.2274
15569TIP3    H268123   4.983   6.665  16.541  2.8694  0.7871 -1.0106
15570TIP3   OH268124   3.622   0.599   5.978 -0.0525 -0.3244  0.4891
15570TIP3    H168125   3.678   0.599   5.900 -0.9028 -1.3813 -0.1536
15570TIP3    H268126   3.616   0.506   6.002 -1.3045 -0.2032  0.6908
15571TIP3   OH268127   3.517   5.463   3.545  0.2012  0.1176 -0.7664
15571TIP3    H168128   3.542   5.373   3.569 -0.8898  0.2070  0.7843
15571TIP3    H268129   3.519   5.511   3.627 -1.1320  1.0654 -1.2706
15572TIP3   OH268130   6.221   3.280   4.956  0.0589 -0.4856 -0.4341
15572TIP3    H168131   6.283   3.235   4.899 -1.0343 -1.0121 -1.2379
15572TIP3    H268132   6.248   3.256   5.045  1.5878  0.0970 -0.7225
15573TIP3   OH268133   1.798   5.305  14.518 -0.5373 -0.4663  0.2595
15573TIP3    H168134   1.773   5.218  14.547 -1.2195 -0.3855 -0.0727
15573TIP3    H268135   1.734   5.328  14.451  1.0067 -0.6558 -1.3740
15574TIP3   OH268136   5.007   0.854  14.480 -0.7056 -0.6694 -0.1651
15574TIP3    H168137   5.040   0.927  14.533 -0.4107 -2.3562  2.0901
15574TIP3    H268138   5.030   0.878  14.390 -0.0796  1.7107  0.5442
15575TIP3   OH268139   1.353   4.545   2.259  0.9543  0.0260 -0.0032
15575TIP3    H168140   1.290   4.485   2.298  1.4152 -0.3467  0.1765
15575TIP3    H268141   1.301   4.602   2.203  0.1167  1.1703  1.8227
15576TIP3   OH268142   1.798   3.244  14.435  0.5639  0.3868  0.1052
15576TIP3    H168143   1.742   3.291  14.496  0.8885  2.1301 -0.8900
15576TIP3    H268144   1.881   3.292  14.436  1.1093 -0.4952 -0.5397
15577TIP3   OH268145   1.712   4.043  13.297  0.4639 -0.8375  0.1641
15577TIP3    H168146   1.734   4.128  13.259 -0.7410 -0.5863 -0.0262
15577TIP3    H268147   1.774   4.032  13.369  0.8518  0.0464 -0.0245
15578TIP3   OH268148   1.806   4.377   4.218 -0.4195 -0.4199  0.4605
15578TIP3    H168149   1.870   4.442   4.188 -0.7428 -0.5353 -0.4993
15578TIP3    H268150   1.856   4.320   4.277 -0.0763  0.5437  1.1455
15579TIP3   OH268151   6.716   3.731  12.534  0.2867 -0.2500 -0.3354
15579TIP3    H168152   6.775   3.723  12.609  0.7896  0.3101 -0.6697
15579TIP3    H268153   6.749   3.669  12.470  0.2412 -0.2644 -0.3450
15580TIP3   OH268154   5.538   5.014  16.979  0.2717 -0.0839 -0.1858
15580TIP3    H168155   5.565   4.927  17.011 -1.7604 -1.1798 -1.2626
15580TIP3    H268156   5.593   5.028  16.902 -1.2899 -1.8017 -1.7246
15581TIP3   OH268157   4.390   0.030   0.310 -0.2888 -0.1615  0.4888
15581TIP3    H168158   4.481   0.012   0.331  0.4663  0.7208 -1.7308
15581TIP3    H268159   4.371   0.112   0.357  0.1027 -0.2382  0.7923
15582TIP3   OH268160   2.689   6.750   4.637  0.2260  0.7765 -0.1920
15582TIP3    H168161   2.684   6.654   4.634 -0.7052  0.8379 -2.2431
15582TIP3    H268162   2.622   6.776   4.700  0.2969  0.0988  0.1698
15583TIP3   OH268163   6.069   3.523   1.917  0.4560 -0.0282 -0.4625
15583TIP3    H168164   5.981   3.520   1.955  0.8946 -1.4706  0.5299
15583TIP3    H268165   6.086   3.616   1.903 -0.3782  0.4662  1.4217
15584TIP3   OH268166   1.850   0.834  16.020  0.2719  0.4770  0.7913
15584TIP3    H168167   1.894   0.919  16.023  2.0594 -0.4282  2.4634
15584TIP3    H268168   1.859   0.799  16.109 -0.4929 -1.4215  0.1696
15585TIP3   OH268169   0.686   6.038   0.021  0.2765  0.0086  0.0586
15585TIP3    H168170   0.680   5.944   0.009  0.9990 -0.0720  0.2843
15585TIP3    H268171   0.595   6.068   0.025  0.0129 -0.4783 -1.5062
15586TIP3   OH268172   0.928   6.515   5.992  0.1708  0.2564  0.6278
15586TIP3    H168173   0.848   6.520   6.045 -0.8001 -2.1119 -0.4881
15586TIP3    H268174   0.996   6.488   6.054 -0.4915 -0.3815  1.0886
15587TIP3   OH268175   5.310   6.178  14.262 -0.1428  0.1437 -0.0768
15587TIP3    H168176   5.368   6.133  14.323  0.2033 -0.8484 -1.0935
15587TIP3    H268177   5.368   6.233  14.210 -0.1981 -0.3078 -0.6239
15588TIP3   OH268178   3.426   5.654  14.140  0.5551  0.6279  0.2864
15588TIP3    H168179   3.343   5.694  14.165  0.5300  1.4630 -1.0038
15588TIP3    H268180   3.486   5.677  14.211  0.0282  1.2183  0.5559
15589TIP3   OH268181   0.190   5.160  11.830  0.3158 -0.3395 -0.2483
15589TIP3    H168182   0.199   5.213  11.910  0.0861 -1.4272  0.5196
15589TIP3    H268183   0.134   5.087  11.856  0.5678 -0.9294 -1.3042
15590TIP3   OH268184   4.619   5.611   1.749  0.4556  0.0098  0.4213
15590TIP3    H168185   4.580   5.526   1.728 -1.9908  1.0047  0.5444
15590TIP3    H268186   4.650   5.644   1.665 -0.2936 -0.2364  0.0312
15591TIP3   OH268187   4.543   5.666   0.132 -0.0409 -0.0900  0.5633
15591TIP3    H168188   4.491   5.588   0.149  0.8597 -0.4410  1.8325
15591TIP3    H268189   4.512   5.730   0.195  0.6865 -0.1305  0.9695
15592TIP3   OH268190   1.130   6.359   3.305 -0.3681  0.2330  0.1198
15592TIP3    H168191   1.057   6.405   3.266 -0.5579 -0.7901 -0.7740
15592TIP3    H268192   1.093   6.276   3.335  0.3615 -0.1689 -0.0706
15593TIP3   OH268193   2.632   1.836  11.736 -0.0281  0.1613 -0.2599
15593TIP3    H168194   2.638   1.916  11.684 -1.3489  0.2031 -0.3717
15593TIP3    H268195   2.692   1.775  11.693 -0.7013  0.3639 -1.5381
15594TIP3   OH268196   5.864   1.016  12.689  0.0029  0.3944  0.3846
15594TIP3    H168197   5.921   0.969  12.749 -1.4548  0.6922  2.1073
15594TIP3    H268198   5.775   0.998  12.721 -0.6973  2.7567 -0.0191
15595TIP3   OH268199   5.863   0.932  15.314  0.3541  0.1015 -0.3133
15595TIP3    H168200   5.780   0.958  15.354  0.8508  1.6075 -0.2172
15595TIP3    H268201   5.918   0.904  15.387 -0.0667 -0.9133 -0.3792
15596TIP3   OH268202   5.483   1.855   1.449 -0.1446  0.1487  0.3399
15596TIP3    H168203   5.388   1.846   1.453 -0.2658  0.3102 -1.4689
15596TIP3    H268204   5.517   1.769   1.474 -0.8102 -0.2168  0.0059
15597TIP3   OH268205   6.117   0.668  13.898 -0.1101 -0.1837 -0.4275
15597TIP3    H168206   6.207   0.687  13.922 -0.6212  0.3260  1.2795
15597TIP3    H268207   6.087   0.606  13.966 -0.6695 -1.3684 -1.6994
15598TIP3   OH268208   6.507   4.516  15.124  0.3838 -0.1018 -0.4087
15598TIP3    H168209   6.564   4.467  15.066 -1.7241 -2.4057 -0.6835
15598TIP3    H268210   6.442   4.556  15.066 -0.8702 -1.2116  0.1878
15599TIP3   OH268211   3.894   0.124  14.717 -0.8506 -0.1868  0.1774
15599TIP3    H168212   3.935   0.051  14.670 -0.2062 -0.9292  1.8361
15599TIP3    H268213   3.963   0.190  14.722 -0.7393 -0.3274  0.5375
15600TIP3   OH268214   2.222   6.362   6.151  0.3953 -0.0006  0.8898
15600TIP3    H168215   2.244   6.325   6.236  2.4035 -0.1554  0.3723
15600TIP3    H268216   2.307   6.372   6.107 -0.4449  1.4724 -0.5226
15601TIP3   OH268217   6.587   3.364  13.628  0.0705 -0.1469  0.4268
15601TIP3    H168218   6.611   3.316  13.708  0.8602  1.2005  1.0221
15601TIP3    H268219   6.554   3.296  13.569 -0.2275 -1.2164  1.7725
15602TIP3   OH268220   6.429   1.606  10.959  0.1355  0.1158  0.1633
15602TIP3    H168221   6.511   1.653  10.972 -0.4880  0.6310  2.9102
15602TIP3    H268222   6.372   1.669  10.916  0.7998  0.1308 -0.7272
15603TIP3   OH268223   3.620   3.856  12.364  0.4598 -0.1063  0.3889
15603TIP3    H168224   3.681   3.871  12.435  0.9323 -0.5749  0.0846
15603TIP3    H268225   3.622   3.761  12.349 -1.3441 -0.3348  1.2692
15604TIP3   OH268226   3.519   6.735  15.316  0.3836  0.3371 -0.0060
15604TIP3    H168227   3.431   6.772  15.322 -0.7741 -2.0008 -1.5020
15604TIP3    H268228   3.564   6.789  15.251 -0.3832  0.7262 -0.2187
15605TIP3   OH268229   1.811   4.773   5.689  0.1308 -0.2306 -0.6843
15605TIP3    H168230   1.905   4.783   5.678  0.0852  0.5100 -0.4396
15605TIP3    H268231   1.788   4.697   5.635  0.6325  0.4694 -1.9156
15606TIP3   OH268232   5.612   2.991  14.223  0.3584  0.5131 -0.1307
15606TIP3    H168233   5.593   2.991  14.129  1.2942  2.5613 -0.3632
15606TIP3    H268234   5.683   3.054  14.234  0.4441  0.1333  1.9299
15607TIP3   OH268235   0.000   1.468   5.293 -0.6379  0.1041 -0.2304
15607TIP3    H168236   0.062   1.529   5.332 -1.4810 -1.2962  3.7216
15607TIP3    H268237   0.055   1.405   5.247  0.4671  1.5824 -1.0420
15608TIP3   OH268238   3.505   5.863  15.835 -0.0663 -0.3576 -0.1161
15608TIP3    H168239   3.467   5.902  15.913 -0.0469  0.6275 -0.5805
15608TIP3    H268240   3.576   5.807  15.867 -1.2327 -1.4163  0.6857
15609TIP3   OH268241   6.437   3.207  10.153  0.1281  0.2176 -0.1221
15609TIP3    H168242   6.357   3.219  10.102 -1.1123 -1.0294  1.4189
15609TIP3    H268243   6.431   3.272  10.223 -0.8703 -1.5219  1.4906
15610TIP3   OH268244   5.884   3.360   2.839 -0.5480  0.2877  0.2170
15610TIP3    H168245   5.872   3.269   2.812 -2.2041  1.0887 -1.9527
15610TIP3    H268246   5.969   3.360   2.883  0.7330 -1.8239 -2.0091
15611TIP3   OH268247   0.914   5.333   0.587 -0.0797  0.2485 -0.3312
15611TIP3    H168248   0.988   5.391   0.568  0.7722 -0.5351  0.4246
15611TIP3    H268249   0.912   5.273   0.513  0.4220 -0.0738 -0.0953
15612TIP3   OH268250   6.164   3.456  17.112 -0.3270 -0.1522  0.3577
15612TIP3    H168251   6.079   3.464  17.068  0.1847  0.7564 -0.5107
15612TIP3    H268252   6.228   3.453  17.040  0.4673  0.3982  1.0209
15613TIP3   OH268253   2.606   5.509  13.982 -0.6394  0.4716  0.4588
15613TIP3    H168254   2.621   5.425  14.026 -1.0321 -0.3869 -0.9522
15613TIP3    H268255   2.555   5.560  14.044 -1.0828 -0.6471  1.0532
15614TIP3   OH268256   4.701   1.271  12.810 -0.0587  0.1546  0.1384
15614TIP3    H168257   4.671   1.259  12.720  0.0519  0.3218  0.0791
15614TIP3    H268258   4.725   1.363  12.816 -2.4922  0.7969  1.0779
15615TIP3   OH268259   4.380   6.104   0.430  0.0283  0.1881  0.1961
15615TIP3    H168260   4.454   6.164   0.446 -0.0445  1.6337 -3.6414
15615TIP3    H268261   4.332   6.146   0.358 -2.1116 -2.8138 -0.2723
15616TIP3   OH268262   0.620   4.905  15.115 -0.5874 -0.4259  0.0756
15616TIP3    H168263   0.614   4.991  15.073 -2.6056 -0.2646  0.5963
15616TIP3    H268264   0.554   4.852  15.071  1.2228 -2.0519 -0.8672
15617TIP3   OH268265   3.269   3.856  16.520  0.0080 -0.6230  0.0843
15617TIP3    H168266   3.261   3.769  16.479 -0.6995 -0.8461  0.6660
15617TIP3    H268267   3.323   3.841  16.597 -2.0834 -1.0799  1.5615
15618TIP3   OH268268   5.118   1.131  13.869 -0.0347  0.0208  0.0824
15618TIP3    H168269   5.051   1.197  13.855 -0.7426 -0.4832  0.9540
15618TIP3    H268270   5.069   1.052  13.893  0.8791 -0.2682  1.0792
15619TIP3   OH268271   4.936   4.138  13.402  0.0476  0.1422  0.3982
15619TIP3    H168272   5.012   4.081  13.410 -1.1643 -1.5232  0.6543
15619TIP3    H268273   4.901   4.146  13.491 -1.8410 -1.7665 -0.0692
15620TIP3   OH268274   2.348   2.427  15.347  0.3187  0.1867  0.3004
15620TIP3    H168275   2.414   2.485  15.309  1.9118 -1.7443 -0.0782
15620TIP3    H268276   2.265   2.464  15.320  1.3065  1.4539 -1.1873
15621TIP3   OH268277   5.001   6.741  15.373  0.3204  0.3976  0.3271
15621TIP3    H168278   4.959   6.676  15.316  0.9695 -0.0388  0.3350
15621TIP3    H268279   5.017   6.816  15.316  1.8612 -0.3990 -0.3472
15622TIP3   OH268280   6.442   1.447   6.201  0.4075  0.3107  0.1398
15622TIP3    H168281   6.515   1.390   6.175  0.0275  0.8109 -2.2860
15622TIP3    H268282   6.364   1.392   6.194  0.1435  0.8225 -1.2831
15623TIP3   OH268283   1.262   3.040   1.362 -0.3956  0.0291 -0.5951
15623TIP3    H168284   1.283   3.001   1.277 -0.1525  0.0192 -0.5309
15623TIP3    H268285   1.178   3.084   1.347  0.1874  0.9970 -1.1588
15624TIP3   OH268286   5.866   5.448  16.769  0.2753 -0.2600 -0.0134
15624TIP3    H168287   5.794   5.468  16.709 -0.9710 -1.1483  1.1195
15624TIP3    H268288   5.944   5.449  16.714 -0.7986 -0.9023 -1.6294
15625TIP3   OH268289   0.928   6.257  10.475  0.2989  0.3321  0.1004
15625TIP3    H168290   0.877   6.211  10.542  0.4095 -0.9570 -0.6662
15625TIP3    H268291   0.915   6.350  10.495 -0.2746 -0.0076  1.4504
15626TIP3   OH268292   2.157   1.219   0.392  0.3890 -0.1780  0.1849
15626TIP3    H168293   2.169   1.311   0.415  2.5437 -0.0406 -1.1319
15626TIP3    H268294   2.158   1.218   0.297 -0.6112 -1.4895  0.1605
15627TIP3   OH268295   4.489   3.859   4.155  0.1460 -0.6190 -0.5837
15627TIP3    H168296   4.400   3.873   4.123  0.2028  1.7032  0.0919
15627TIP3    H268297   4.488   3.891   4.245  1.6708 -0.4799 -0.5904
15628TIP3   OH268298   1.735   3.814   1.908  0.3212 -0.2853 -0.2604
15628TIP3    H168299   1.659   3.862   1.877  0.9715  1.1980  0.3429
15628TIP3    H268300   1.703   3.725   1.923 -1.4152  0.4104  0.4446
15629TIP3   OH268301   5.058   5.274   2.369  0.2107  0.3573  0.1320
15629TIP3    H168302   5.075   5.281   2.463  0.4900  1.5532  0.0110
15629TIP3    H268303   5.092   5.356   2.333 -1.1317  0.5269 -0.8259
15630TIP3   OH268304   3.829   5.609  11.623  0.3686 -0.0421 -0.2852
15630TIP3    H168305   3.858   5.686  11.671  1.1120 -0.1679 -0.5292
15630TIP3    H268306   3.833   5.635  11.531  0.5252 -0.3440 -0.3636
15631TIP3   OH268307   6.140   1.831   5.774  0.2914  0.6022  0.2012
15631TIP3    H168308   6.097   1.809   5.692  0.6795  1.6324 -0.2914
15631TIP3    H268309   6.073   1.874   5.827  0.4730  1.4444 -0.2378
15632TIP3   OH268310   6.374   3.597  13.577 -0.3329  0.4837 -0.6451
15632TIP3    H168311   6.450   3.654  13.564 -0.5533  0.8704 -0.2648
15632TIP3    H268312   6.412   3.511  13.596  0.0835  1.0713  1.4852
15633TIP3   OH268313   0.529   1.804  14.719 -0.2777  0.5845 -0.0957
15633TIP3    H168314   0.582   1.882  14.735 -0.2958  0.6744 -0.4641
15633TIP3    H268315   0.453   1.837  14.670  0.4677  0.1059 -1.6195
15634TIP3   OH268316   3.881   1.704   4.052 -0.2046  0.5346  0.2880
15634TIP3    H168317   3.902   1.779   3.997 -0.9476 -0.5750 -1.6158
15634TIP3    H268318   3.966   1.663   4.069 -0.0041  0.6025 -0.5015
15635TIP3   OH268319   1.909   0.699  11.730  0.1083  0.0172 -0.3165
15635TIP3    H168320   2.000   0.714  11.755  0.6955 -0.6207 -1.9202
15635TIP3    H268321   1.874   0.641  11.798  0.3483  1.6262  1.2610
15636TIP3   OH268322   2.191   4.255   3.098 -0.1506  0.3812  0.2997
15636TIP3    H168323   2.269   4.290   3.141  1.5286 -1.7063 -0.8602
15636TIP3    H268324   2.137   4.222   3.170  1.6174 -1.1281  1.0160
15637TIP3   OH268325   6.236   2.260   2.583  0.2027 -0.1760 -0.0450
15637TIP3    H168326   6.324   2.295   2.565 -0.1086  0.0089 -1.3538
15637TIP3    H268327   6.250   2.166   2.597  0.7042 -0.0123  0.5986
15638TIP3   OH268328   4.914   0.413  15.510  0.3626  0.6085  0.1688
15638TIP3    H168329   4.889   0.354  15.439  0.8783  0.0879  0.4179
15638TIP3    H268330   5.007   0.429  15.496  0.1788  1.5834 -0.0491
15639TIP3   OH268331   3.396   0.665   1.540  0.8039  0.1225 -0.6146
15639TIP3    H168332   3.384   0.595   1.604  1.3740  0.2216 -0.3904
15639TIP3    H268333   3.410   0.744   1.593 -0.8191  0.5995 -0.8585
15640TIP3   OH268334   4.881   0.227   3.728  0.8512  0.0180  0.2203
15640TIP3    H168335   4.825   0.152   3.748 -0.7160  1.4331  1.4782
15640TIP3    H268336   4.877   0.235   3.633  1.6874 -1.8942 -0.0362
15641TIP3   OH268337   3.587   0.964   1.434  0.6114 -0.1264  0.4443
15641TIP3    H168338   3.629   0.985   1.350  1.1720 -1.0833  0.4695
15641TIP3    H268339   3.494   0.951   1.411  0.7344 -0.2402 -0.0131
15642TIP3   OH268340   3.165   0.607  12.801  0.1399  0.0294  0.1498
15642TIP3    H168341   3.220   0.615  12.723 -1.3037 -0.6058 -0.9868
15642TIP3    H268342   3.207   0.664  12.865  1.9575 -0.2326 -0.7282
15643TIP3   OH268343   4.319   6.739   4.993  0.2128 -0.0966 -0.5137
15643TIP3    H168344   4.274   6.699   5.068  0.7094 -2.0567 -1.2186
15643TIP3    H268345   4.376   6.805   5.032 -0.4678 -0.1959  0.7131
15644TIP3   OH268346   4.796   1.691   1.234 -0.4406 -0.2219  0.4470
15644TIP3    H168347   4.848   1.683   1.154 -0.9792 -0.8469  0.1452
15644TIP3    H268348   4.820   1.776   1.271 -0.8097  0.4708 -0.8394
15645TIP3   OH268349   1.483   0.095  11.139 -0.1611  0.1612 -0.2282
15645TIP3    H168350   1.567   0.082  11.184 -0.0912  0.2922 -0.3205
15645TIP3    H268351   1.457   0.184  11.162  0.0317  0.3460 -0.7020
15646TIP3   OH268352   1.446   0.272  11.945 -0.0441  0.6823  0.4768
15646TIP3    H168353   1.407   0.354  11.975 -2.7147 -0.5039  0.5470
15646TIP3    H268354   1.382   0.205  11.969  1.1375 -1.1940 -1.3077
15647TIP3   OH268355   4.763   1.821   3.472  0.4402  0.0294  0.2326
15647TIP3    H168356   4.702   1.748   3.471  1.0284 -0.5730 -2.7136
15647TIP3    H268357   4.838   1.789   3.522  1.1002 -1.8715 -1.7926
15648TIP3   OH268358   5.842   2.611   2.147 -0.2583 -0.1620 -0.3249
15648TIP3    H168359   5.894   2.621   2.067  0.5224  2.4423  0.4020
15648TIP3    H268360   5.757   2.650   2.124 -0.2150  0.0962 -0.0493
15649TIP3   OH268361   6.607   6.231  11.277  0.8021 -0.3821 -0.4091
15649TIP3    H168362   6.636   6.246  11.367  0.7678  0.2274 -0.4955
15649TIP3    H268363   6.539   6.297  11.263 -0.2163 -1.3893 -0.4123
15650TIP3   OH268364   1.435   3.051  14.951  0.3731 -0.0424  0.4457
15650TIP3    H168365   1.395   3.137  14.962 -2.2511 -0.8971 -1.4733
15650TIP3    H268366   1.495   3.061  14.877 -0.8592 -0.0780 -0.5946
15651TIP3   OH268367   2.396   3.796   3.138  0.0880  0.4010 -0.3641
15651TIP3    H168368   2.310   3.837   3.148 -1.1307 -1.7108 -1.4263
15651TIP3    H268369   2.447   3.827   3.213 -2.1482  0.4282  1.2241
15652TIP3   OH268370   2.229   1.646  14.758 -0.0288  0.5097 -0.4203
15652TIP3    H168371   2.161   1.586  14.790  0.3223 -0.2900 -1.1261
15652TIP3    H268372   2.182   1.728  14.740 -0.9982 -0.2766 -1.6654
15653TIP3   OH268373   2.608   5.925   3.885  0.3393  0.1395  0.1502
15653TIP3    H168374   2.546   5.945   3.815  0.6308  0.8374  0.0805
15653TIP3    H268375   2.575   5.844   3.924 -0.1591  0.0661 -0.4062
15654TIP3   OH268376   4.808   6.026  11.761  0.5006  0.4688  0.2332
15654TIP3    H168377   4.803   6.095  11.827  0.9493  0.0066  0.7614
15654TIP3    H268378   4.793   6.071  11.678 -1.9899  0.7827  0.7575
15655TIP3   OH268379   4.824   6.304  14.276 -0.4563 -0.2617  0.1562
15655TIP3    H168380   4.888   6.296  14.205 -1.0383 -2.2865 -0.2032
15655TIP3    H268381   4.877   6.312  14.355  0.3125  5.0887 -0.5128
15656TIP3   OH268382   2.347   6.150  11.740  0.8241 -0.2653  0.0910
15656TIP3    H168383   2.439   6.174  11.734  1.0481 -0.9583  0.6333
15656TIP3    H268384   2.301   6.232  11.754  1.5131 -0.0795  1.4131
15657TIP3   OH268385   3.124   2.835  17.221  0.4179 -0.2136 -0.2822
15657TIP3    H168386   3.079   2.844  17.138 -1.6893  0.1899  0.8382
15657TIP3    H268387   3.172   2.917  17.232 -0.0828  0.1358 -0.6634
15658TIP3   OH268388   2.261   0.772   1.555  0.5651 -0.0763 -0.2472
15658TIP3    H168389   2.327   0.822   1.507  1.2683 -0.8380 -0.0869
15658TIP3    H268390   2.197   0.837   1.582 -0.3513  0.2981 -2.9845
15659TIP3   OH268391   5.248   5.981   1.638  0.0654 -0.5712  0.1714
15659TIP3    H168392   5.179   5.916   1.627 -0.3375 -0.0754 -0.2777
15659TIP3    H268393   5.212   6.044   1.700 -0.2804  0.2183 -0.8173
15660TIP3   OH268394   2.401   6.697  11.338 -0.1593 -0.2467  0.5453
15660TIP3    H168395   2.363   6.641  11.270  0.8437 -0.5108  0.1852
15660TIP3    H268396   2.429   6.776  11.292 -2.1145  0.8619  1.1470
15661TIP3   OH268397   1.608   4.082  17.000  0.1063  0.2343  0.1406
15661TIP3    H168398   1.661   4.161  17.011  2.0584 -0.6966 -1.8033
15661TIP3    H268399   1.646   4.019  17.061  0.8305 -0.2152 -0.7486
15662TIP3   OH268400   2.178   0.433  12.387 -0.4019 -0.1948 -0.4737
15662TIP3    H168401   2.124   0.372  12.336 -0.5289 -0.2625 -0.2582
15662TIP3    H268402   2.239   0.469  12.323 -2.0944  1.5458 -1.2172
15663TIP3   OH268403   3.669   5.191  15.194  0.3610  0.3236 -0.5878
15663TIP3    H168404   3.649   5.108  15.150 -0.2328 -0.3491  0.8452
15663TIP3    H268405   3.741   5.229  15.145  1.8069 -1.8858 -0.2869
15664TIP3   OH268406   6.151   2.171   1.145  0.0186 -0.1433 -0.5753
15664TIP3    H168407   6.078   2.149   1.087 -0.4245 -0.2534  0.0158
15664TIP3    H268408   6.202   2.090   1.150  0.2720 -0.0192 -1.1161
15665TIP3   OH268409   3.287   1.726   6.200 -0.2953 -0.4100  0.1735
15665TIP3    H168410   3.316   1.673   6.126 -1.2363 -0.4697 -0.1781
15665TIP3    H268411   3.232   1.667   6.252 -3.7406  0.7969 -1.7064
15666TIP3   OH268412   0.854   4.973  13.136 -0.6802 -0.1725  0.3009
15666TIP3    H168413   0.775   4.930  13.167 -0.9352 -1.1710 -1.5836
15666TIP3    H268414   0.909   4.902  13.103  1.3179  0.4328  2.1286
15667TIP3   OH268415   0.188   2.651  16.265 -0.0464  0.1659 -0.0465
15667TIP3    H168416   0.183   2.734  16.313  0.8263  1.5326 -2.1976
15667TIP3    H268417   0.220   2.674  16.178  2.4871 -2.6763 -0.0724
15668TIP3   OH268418   6.451   4.031  11.071  0.3593  0.0133  0.4562
15668TIP3    H168419   6.502   4.087  11.012 -0.6612  1.4535  0.8919
15668TIP3    H268420   6.478   4.058  11.159 -0.8796  0.5768  0.6872
15669TIP3   OH268421   3.919   3.771   3.149  0.0698  0.2287 -0.4895
15669TIP3    H168422   3.842   3.730   3.110  0.0459  0.1128 -0.3223
15669TIP3    H268423   3.904   3.766   3.243  0.3460  0.0783 -0.4523
15670TIP3   OH268424   2.331   6.322  16.586 -0.7299  0.1984  0.1804
15670TIP3    H168425   2.307   6.409  16.619  0.3416 -0.7890  4.0224
15670TIP3    H268426   2.380   6.282  16.657 -1.1526 -3.6177 -1.4457
15671TIP3   OH268427   4.294   0.328   2.886  0.3146  0.3960 -0.0706
15671TIP3    H168428   4.301   0.319   2.981 -0.7569 -0.2136 -0.0254
15671TIP3    H268429   4.200   0.330   2.869  0.4796 -0.0664 -1.1669
15672TIP3   OH268430   1.738   2.110   4.462  0.1069  0.4035 -0.3333
15672TIP3    H168431   1.654   2.064   4.466  0.1633  0.1656 -1.3907
15672TIP3    H268432   1.715   2.200   4.440  0.0745  0.5864  0.4275
15673TIP3   OH268433   0.220   2.460  11.586  0.2983  0.4296 -0.2543
15673TIP3    H168434   0.290   2.425  11.531  0.9245  1.3581 -0.0638
15673TIP3    H268435   0.140   2.442  11.537  0.7903  0.5701 -1.1224
15674TIP3   OH268436   2.377   3.683  14.762  0.9061 -0.1943  0.0287
15674TIP3    H168437   2.336   3.600  14.786 -1.1274  0.9952  0.9276
15674TIP3    H268438   2.349   3.698  14.672 -0.9632  0.7144  0.7047
15675TIP3   OH268439   5.744   6.233   0.938 -0.6758  0.1260  0.0646
15675TIP3    H168440   5.686   6.160   0.914 -1.8035  0.6103  1.2040
15675TIP3    H268441   5.763   6.276   0.854  0.5759 -1.8410 -0.7243
15676TIP3   OH268442   0.510   0.767  11.389 -0.2575  0.2061  0.1937
15676TIP3    H168443   0.470   0.682  11.372  1.7676 -0.6492 -0.6762
15676TIP3    H268444   0.537   0.763  11.481 -0.6426  0.1118  0.3023
15677TIP3   OH268445   1.071   5.952  13.505 -0.5156 -0.2630  0.2573
15677TIP3    H168446   1.138   5.952  13.436 -0.4748 -2.8913  0.2009
15677TIP3    H268447   1.075   5.864  13.543 -1.6224  0.6045  2.5925
15678TIP3   OH268448   0.894   6.291  15.925  0.1309 -0.3492 -0.5976
15678TIP3    H168449   0.809   6.333  15.913  1.0344  1.3469 -1.4409
15678TIP3    H268450   0.928   6.280  15.837  1.6444  0.9167 -0.2111
15679TIP3   OH268451   4.686   5.136   3.431  0.6928 -0.1405  0.0898
15679TIP3    H168452   4.624   5.117   3.501  1.1520  0.9964  0.8258
15679TIP3    H268453   4.651   5.089   3.355  0.2752 -1.5067  1.0972
15680TIP3   OH268454   6.513   1.699   5.865  0.0093  0.9226  0.0627
15680TIP3    H168455   6.491   1.680   5.774 -2.1483  0.7645  0.5657
15680TIP3    H268456   6.519   1.794   5.869  1.6101  0.8666 -0.5315
15681TIP3   OH268457   3.782   1.797  16.173  0.5188 -0.3265 -0.4948
15681TIP3    H168458   3.691   1.801  16.142  0.6569  0.5400 -0.8055
15681TIP3    H268459   3.774   1.775  16.266 -0.1027  1.2939 -0.1231
15682TIP3   OH268460   5.249   5.880   3.118 -0.2107  0.3261  0.2836
15682TIP3    H168461   5.181   5.935   3.155 -0.0254  1.9875 -1.6717
15682TIP3    H268462   5.201   5.814   3.067 -0.3891 -0.4988  1.4708
15683TIP3   OH268463   3.195   0.792  11.584  0.2979 -0.3916 -1.0747
15683TIP3    H168464   3.231   0.720  11.636 -0.6636  0.0395  0.2429
15683TIP3    H268465   3.262   0.860  11.588  0.1358 -0.2715 -0.1728
15684TIP3   OH268466   0.834   1.006  13.150 -0.0594 -0.2791 -0.0828
15684TIP3    H168467   0.759   0.962  13.111 -0.1617  0.1530 -0.3926
15684TIP3    H268468   0.892   1.025  13.075 -1.7681  3.5887 -0.6731
15685TIP3   OH268469   6.149   2.582  11.352  0.1835  0.1538  0.2571
15685TIP3    H168470   6.144   2.596  11.447 -0.3637  0.6991  0.1543
15685TIP3    H268471   6.097   2.653  11.314 -0.1446 -0.4389 -0.4254
15686TIP3   OH268472   3.949   3.940   4.218 -0.0918  0.4810  0.4541
15686TIP3    H168473   3.923   3.944   4.310 -1.1685  0.8988  0.1473
15686TIP3    H268474   3.947   4.031   4.189 -2.2318  0.1479 -0.6259
15687TIP3   OH268475   4.451   5.032   1.989 -0.1743  0.0676  0.1470
15687TIP3    H168476   4.414   4.948   2.015  0.7772 -0.9647 -1.6317
15687TIP3    H268477   4.508   5.057   2.061  0.3555 -1.3687  0.2560
15688TIP3   OH268478   5.994   2.807   4.208  0.0630  0.1523 -0.4269
15688TIP3    H168479   5.911   2.777   4.244 -0.4438  1.6781 -0.2545
15688TIP3    H268480   5.985   2.795   4.114 -0.7177  1.1124 -0.4923
15689TIP3   OH268481   2.912   6.385   2.493 -0.0259 -0.6470 -0.8309
15689TIP3    H168482   2.856   6.336   2.553  0.4479 -0.7676 -0.4763
15689TIP3    H268483   2.857   6.401   2.416 -0.8645  0.1174 -0.0907
15690TIP3   OH268484   5.223   3.103  13.143 -0.0125  0.1718 -0.7944
15690TIP3    H168485   5.137   3.068  13.122  0.0082 -1.2075  1.1144
15690TIP3    H268486   5.219   3.121  13.237  1.8110 -0.0337 -0.6387
15691TIP3   OH268487   4.434   5.435   2.331  0.1259 -0.1593  0.1977
15691TIP3    H168488   4.423   5.521   2.372 -0.5433 -0.4615  0.6701
15691TIP3    H268489   4.445   5.455   2.238 -1.4441  0.3857  0.0958
15692TIP3   OH268490   0.435   0.143   0.774 -0.1519 -0.4620 -0.1699
15692TIP3    H168491   0.443   0.053   0.741  1.7823 -0.9134  1.3091
15692TIP3    H268492   0.365   0.182   0.722 -0.7057 -2.6681 -1.1954
15693TIP3   OH268493   5.447   4.563  11.648  0.0193 -0.1369 -0.4872
15693TIP3    H168494   5.522   4.535  11.701 -2.6852 -1.9598  2.7273
15693TIP3    H268495   5.432   4.491  11.587  0.0786 -0.4069 -0.1862
15694TIP3   OH268496   2.211   4.959  11.987  0.2563  0.4416  0.2650
15694TIP3    H168497   2.294   4.961  11.939 -0.1861  0.1694 -0.5240
15694TIP3    H268498   2.176   5.048  11.976  0.1222  0.3588  0.0307
15695TIP3   OH268499   3.427   6.450  11.055  0.2849 -0.0451 -0.1933
15695TIP3    H168500   3.466   6.415  10.975 -0.7391 -1.1942 -0.2306
15695TIP3    H268501   3.424   6.375  11.114 -2.6206 -0.2872 -0.5073
15696TIP3   OH268502   5.082   2.587   0.596 -0.2572 -0.2832 -0.4726
15696TIP3    H168503   5.070   2.676   0.628  1.0750  0.0338 -0.7672
15696TIP3    H268504   5.126   2.598   0.511 -1.8645 -1.1643 -1.4855
15697TIP3   OH268505   5.622   6.700   2.108 -0.2098 -0.5504 -0.6983
15697TIP3    H168506   5.632   6.622   2.164  1.6999 -0.5289 -0.9467
15697TIP3    H268507   5.529   6.721   2.113 -0.6764 -2.5243 -0.1766
15698TIP3   OH268508   6.076   0.984   1.026 -0.4371 -0.0226 -0.5878
15698TIP3    H168509   6.062   0.890   1.030  0.3565 -0.1284 -0.0659
15698TIP3    H268510   6.080   1.003   0.932 -0.3709 -0.5451 -0.6951
15699TIP3   OH268511   2.209   0.460   4.901 -0.8295 -0.0798 -0.6846
15699TIP3    H168512   2.134   0.432   4.953 -1.1408  1.0583 -0.4907
15699TIP3    H268513   2.176   0.465   4.811 -1.6834  2.5343 -0.3329
15700TIP3   OH268514   0.889   2.631   2.489 -0.1142  0.0192  0.9048
15700TIP3    H168515   0.902   2.726   2.494 -0.3555  0.0883  0.3435
15700TIP3    H268516   0.963   2.594   2.536  0.2032  0.4809  0.7772
15701TIP3   OH268517   0.155   0.565   0.841 -0.4455 -0.3080  0.2553
15701TIP3    H168518   0.245   0.565   0.872 -0.2063 -3.9863 -0.0317
15701TIP3    H268519   0.154   0.630   0.771  1.8421  0.1785  0.5893
15702TIP3   OH268520   1.331   1.715  14.426 -0.0776 -0.0277  0.0071
15702TIP3    H168521   1.285   1.704  14.509 -0.6508 -0.9030 -0.4023
15702TIP3    H268522   1.310   1.804  14.397 -0.0946  0.1819  0.6638
15703TIP3   OH268523   4.182   3.215   5.054 -0.2867 -0.1144  0.3586
15703TIP3    H168524   4.160   3.290   4.998  0.1158 -1.5688 -1.8483
15703TIP3    H268525   4.097   3.179   5.079 -0.4946 -0.5533 -0.9030
15704TIP3   OH268526   0.634   6.283  12.408 -0.1478 -0.2592  0.1399
15704TIP3    H168527   0.626   6.374  12.380  0.8971  0.2172  1.2833
15704TIP3    H268528   0.546   6.246  12.397 -0.3816  0.6339 -1.1355
15705TIP3   OH268529   3.893   6.116   0.728 -0.2753  0.0459  0.1488
15705TIP3    H168530   3.886   6.121   0.633 -1.4799 -0.5953  0.1867
15705TIP3    H268531   3.835   6.185   0.760 -1.4660 -1.0370  0.4170
15706TIP3   OH268532   3.078   1.098  12.331 -0.1996 -0.0465 -0.2039
15706TIP3    H168533   2.983   1.087  12.337 -0.3534  0.5002 -1.3197
15706TIP3    H268534   3.112   1.010  12.322 -0.3680 -0.4795  2.5571
15707TIP3   OH268535   6.391   4.644  14.262  0.1766 -0.4107  0.0633
15707TIP3    H168536   6.448   4.611  14.331  1.2927 -3.7285 -2.2083
15707TIP3    H268537   6.302   4.624  14.293  0.6126 -1.2055  0.8439
15708TIP3   OH268538   3.526   1.632   3.745 -0.0872  0.1442 -0.5157
15708TIP3    H168539   3.502   1.553   3.696  0.7063 -0.7721  0.5024
15708TIP3    H268540   3.528   1.702   3.680 -1.0539 -0.6256 -1.3945
15709TIP3   OH268541   2.558   5.400   2.258  0.4370  0.3715  0.5576
15709TIP3    H168542   2.565   5.495   2.251  0.7348  0.2747 -0.6586
15709TIP3    H268543   2.631   5.375   2.314  1.1741  0.7391 -0.2243
15710TIP3   OH268544   1.172   5.097  15.532  0.1352  0.1757  0.0994
15710TIP3    H168545   1.214   5.142  15.605  0.4918  0.0283 -0.0156
15710TIP3    H268546   1.229   5.113  15.457 -0.2427  0.3463 -0.1518
15711TIP3   OH268547   5.261   1.753   1.890 -0.3603  0.4699 -0.0798
15711TIP3    H168548   5.349   1.778   1.918 -0.6212 -0.0892  1.3513
15711TIP3    H268549   5.202   1.809   1.941 -0.8912 -1.6130  1.7655
15712TIP3   OH268550   4.046   5.343  15.524  0.1606 -0.1386  0.2986
15712TIP3    H168551   4.041   5.347  15.429 -0.8730 -0.7589  0.3137
15712TIP3    H268552   3.963   5.381  15.554  0.6315  0.3981  0.9697
15713TIP3   OH268553   5.474   3.115  16.077  0.2327  0.0558 -0.0902
15713TIP3    H168554   5.483   3.205  16.045 -2.3932 -0.1174 -1.5665
15713TIP3    H268555   5.552   3.070  16.043  1.3428  1.6162  0.2765
15714TIP3   OH268556   1.409   1.914  12.020  0.1341 -0.0956  0.3813
15714TIP3    H168557   1.331   1.955  12.058  0.2159  0.7551 -0.3179
15714TIP3    H268558   1.433   1.973  11.948  0.0855 -1.5498 -0.8599
15715TIP3   OH268559   6.479   3.560   0.217  0.1136 -0.0634  0.0020
15715TIP3    H168560   6.467   3.648   0.182 -1.2204 -0.4333 -0.5419
15715TIP3    H268561   6.421   3.505   0.164  1.4172 -1.3907 -0.1217
15716TIP3   OH268562   6.572   2.734  12.166  0.1519  0.1141  0.0895
15716TIP3    H168563   6.499   2.717  12.226 -0.8799  0.7335 -0.9428
15716TIP3    H268564   6.549   2.686  12.086 -0.4181  2.3114 -1.1433
15717TIP3   OH268565   1.079   2.404  11.643 -0.3417 -0.0323 -0.3053
15717TIP3    H168566   1.015   2.419  11.573 -0.9244  0.2069  0.2581
15717TIP3    H268567   1.128   2.486  11.649  1.1051 -0.7599 -1.7984
15718TIP3   OH268568   0.898   1.399   4.203 -0.0609  0.0238 -0.9869
15718TIP3    H168569   0.881   1.380   4.111  0.3269  1.1778 -1.3097
15718TIP3    H268570   0.862   1.324   4.250  1.4532 -1.5363 -2.1935
15719TIP3   OH268571   4.756   4.350   2.138  0.6229 -0.7602 -0.1686
15719TIP3    H168572   4.804   4.431   2.157  0.5375 -0.7803  0.1276
15719TIP3    H268573   4.767   4.297   2.216 -0.2319 -0.5994  0.0691
15720TIP3   OH268574   6.591   4.830   5.044 -0.2037 -0.1884 -0.3485
15720TIP3    H168575   6.658   4.763   5.060 -0.5370 -1.2469 -2.9208
15720TIP3    H268576   6.553   4.806   4.960 -1.7688  2.1189 -0.3817
15721TIP3   OH268577   0.003   1.596   3.221  0.5312 -0.1471  0.2370
15721TIP3    H168578   0.072   1.549   3.268  1.1085 -0.2719 -0.7034
15721TIP3    H268579   0.046   1.629   3.142  0.2236  2.2406  0.9855
15722TIP3   OH268580   3.110   3.244   2.036  0.0864 -0.7280 -0.6418
15722TIP3    H168581   3.136   3.163   1.992 -2.7123 -2.7562  1.0754
15722TIP3    H268582   3.082   3.216   2.123  1.7986  2.5775  1.1670
15723TIP3   OH268583   3.891   0.634   0.390 -0.4813 -0.4956 -0.4905
15723TIP3    H168584   3.927   0.705   0.338 -1.6110 -0.1033 -0.7751
15723TIP3    H268585   3.836   0.677   0.455 -0.0893 -1.0456  0.2096
15724TIP3   OH268586   2.953   1.738   1.971 -0.0713  0.0651 -0.1524
15724TIP3    H168587   3.023   1.676   1.951  2.0624  2.0840  0.5541
15724TIP3    H268588   2.957   1.803   1.901 -1.5518 -0.0133 -0.3334
15725TIP3   OH268589   3.417   3.362  16.161  0.5743 -0.6301  0.1159
15725TIP3    H168590   3.485   3.344  16.225  0.1676  0.5204  0.9081
15725TIP3    H268591   3.341   3.390  16.213  0.1195 -0.0118 -0.8354
15726TIP3   OH268592   4.769   4.706  12.156  0.3560 -0.2760  0.6254
15726TIP3    H168593   4.727   4.784  12.194 -0.6704 -0.9693  0.9634
15726TIP3    H268594   4.801   4.736  12.071 -0.0091  0.5267  0.7557
15727TIP3   OH268595   3.974   0.903   0.343  0.2457 -0.0765  0.3764
15727TIP3    H168596   3.990   0.896   0.437  0.9492  3.6023  0.6625
15727TIP3    H268597   4.041   0.963   0.311 -1.6916  1.0308 -1.9306
15728TIP3   OH268598   5.716   1.494   3.943  0.0479 -0.0934  0.0394
15728TIP3    H168599   5.674   1.570   3.984  0.5635 -0.2306  0.8585
15728TIP3    H268600   5.697   1.421   4.002 -0.1990 -0.5436 -0.5905
15729TIP3   OH268601   0.801   2.770  13.788 -0.5917  0.6201 -0.2226
15729TIP3    H168602   0.750   2.824  13.729 -0.4330  0.2261 -0.7347
15729TIP3    H268603   0.884   2.817  13.799 -0.5090  0.5534 -0.5517
15730TIP3   OH268604   6.494   2.557   3.999  0.4890 -0.3554 -0.4528
15730TIP3    H168605   6.440   2.478   3.992 -0.5569  0.2191  0.7408
15730TIP3    H268606   6.446   2.623   3.948 -0.6750  0.5055  1.6424
15731TIP3   OH268607   2.080   3.303  16.971 -0.6928  0.5778  0.0425
15731TIP3    H168608   2.025   3.249  17.027 -1.5742  1.1101 -0.2848
15731TIP3    H268609   2.035   3.388  16.968  0.1404  1.0127 -0.2453
15732TIP3   OH268610   0.221   0.228   0.579  0.1003 -0.1365 -0.0621
15732TIP3    H168611   0.176   0.297   0.627  0.0073  0.0920 -0.4708
15732TIP3    H268612   0.151   0.174   0.543  0.1469  0.1344 -0.5741
15733TIP3   OH268613   3.242   4.553   3.020  0.3074 -0.5324 -0.2882
15733TIP3    H168614   3.284   4.597   2.947  0.6559 -2.3103 -1.2208
15733TIP3    H268615   3.247   4.615   3.093  3.0156 -0.0155 -0.8339
15734TIP3   OH268616   0.298   0.947   3.455  0.2713  0.5047  0.1021
15734TIP3    H168617   0.243   0.945   3.533 -0.3374  2.1426 -0.2565
15734TIP3    H268618   0.373   0.891   3.477  0.0270  0.7949  1.7909
15735TIP3   OH268619   3.764   4.420   4.536  0.1078  0.3298  0.0709
15735TIP3    H168620   3.846   4.435   4.490 -0.3298 -0.8044 -1.1494
15735TIP3    H268621   3.757   4.325   4.543 -1.3502  0.3801 -0.3462
15736TIP3   OH268622   1.950   2.279   2.668  0.2024 -0.0140 -0.1721
15736TIP3    H168623   2.018   2.310   2.608  0.9715  0.2690  0.8160
15736TIP3    H268624   1.918   2.358   2.712  0.4066 -0.3199  0.5501
15737TIP3   OH268625   2.287   1.831  14.212  0.7953 -0.4339  0.2358
15737TIP3    H168626   2.221   1.897  14.190  0.8865 -0.5975 -0.5577
15737TIP3    H268627   2.318   1.857  14.299  0.0278 -0.0846  0.4234
15738TIP3   OH268628   0.255   5.405  17.111  0.3762 -0.4370  0.9145
15738TIP3    H168629   0.283   5.332  17.166  0.2712  0.4621  2.2175
15738TIP3    H268630   0.335   5.456  17.096  0.6905 -1.3785 -0.9646
15739TIP3   OH268631   5.228   6.736   2.773  0.2957 -0.5536 -0.3547
15739TIP3    H168632   5.149   6.776   2.736  0.7938 -0.0175 -0.8490
15739TIP3    H268633   5.213   6.737   2.868 -0.1127 -0.0775 -0.4193
15740TIP3   OH268634   4.511   1.868   0.558 -0.5466 -0.1214  1.1377
15740TIP3    H168635   4.518   1.776   0.584 -1.3016 -0.4946  0.0797
15740TIP3    H268636   4.497   1.865   0.464  2.2105  1.1957  0.5952
15741TIP3   OH268637   3.570   5.213   3.670 -0.0398  0.1882 -0.1043
15741TIP3    H168638   3.648   5.254   3.707 -0.6397 -0.0160  1.4633
15741TIP3    H268639   3.525   5.174   3.745 -1.4812  0.0066 -1.0186
15742TIP3   OH268640   4.036   2.225  13.769  0.2150 -0.0653  0.3387
15742TIP3    H168641   4.093   2.221  13.692  0.2479 -0.6624  0.3941
15742TIP3    H268642   4.042   2.316  13.798  1.3583 -0.1770  0.5019
15743TIP3   OH268643   4.557   4.707   2.505  0.1065  1.2257 -0.3069
15743TIP3    H168644   4.629   4.769   2.493  0.5562  0.8267  0.2750
15743TIP3    H268645   4.553   4.658   2.424 -0.2378  1.9890 -0.7699
15744TIP3   OH268646   3.182   1.033   0.476  0.7890 -0.0005 -0.0012
15744TIP3    H168647   3.214   0.963   0.420  1.0271 -0.6411  0.9163
15744TIP3    H268648   3.091   1.009   0.494  0.9724 -0.2761  0.5973
15745TIP3   OH268649   4.646   1.331   6.315  0.1599  0.0566 -0.5074
15745TIP3    H168650   4.730   1.377   6.309 -0.1255  0.6486 -0.0491
15745TIP3    H268651   4.620   1.340   6.406  0.4885 -1.7491 -0.1937
15746TIP3   OH268652   0.626   2.822  12.708 -0.0703  0.2222  0.3878
15746TIP3    H168653   0.640   2.864  12.793  3.2919  4.5193 -1.8716
15746TIP3    H268654   0.700   2.761  12.699  1.2906  1.8849 -0.3895
15747TIP3   OH268655   4.753   5.005   0.339  0.6302 -0.6484  0.0767
15747TIP3    H168656   4.741   5.100   0.333  0.6946 -0.7415 -2.8244
15747TIP3    H268657   4.682   4.976   0.397 -0.3280  0.9990 -0.1887
15748TIP3   OH268658   0.730   2.153  15.010  0.1363  0.1365  0.3836
15748TIP3    H168659   0.781   2.205  14.947  0.8618 -0.2178  0.6666
15748TIP3    H268660   0.725   2.066  14.970 -0.5475  0.2580  0.1967
15749TIP3   OH268661   2.012   2.423  12.685  0.4683  0.5008 -0.4204
15749TIP3    H168662   1.953   2.463  12.622 -1.0173  0.6046  0.9871
15749TIP3    H268663   2.040   2.495  12.741 -1.7245 -0.2219  1.7416
15750TIP3   OH268664   0.010   3.411  14.881  0.2674 -0.4481  0.1734
15750TIP3    H168665   0.033   3.330  14.835  0.5920 -0.8029  0.9470
15750TIP3    H268666  -0.082   3.426  14.858 -0.3512 -2.0266  1.4386
15751TIP3   OH268667   3.792   3.279  10.737 -0.2840  0.1530 -0.9873
15751TIP3    H168668   3.758   3.227  10.664 -0.8243  0.4013 -0.9156
15751TIP3    H268669   3.844   3.348  10.696  0.7184 -0.6163 -1.0766
15752TIP3   OH268670   6.117   1.984  15.756 -0.0294  0.4659  0.4328
15752TIP3    H168671   6.089   2.025  15.838 -0.2544 -1.2613  1.2509
15752TIP3    H268672   6.194   1.932  15.779  0.6230  0.8898 -0.7125
15753TIP3   OH268673   1.255   3.046   0.227 -0.4434  0.0083  0.2210
15753TIP3    H168674   1.185   3.112   0.228  0.8272  1.4292  0.1157
15753TIP3    H268675   1.325   3.086   0.175  0.8053 -0.9569  1.0906
15754TIP3   OH268676   0.046   2.520  12.601 -0.1078 -0.7362  0.4353
15754TIP3    H168677   0.139   2.499  12.613  0.2128 -0.0542 -0.7034
15754TIP3    H268678   0.046   2.606  12.559 -1.3006 -0.0878  1.6813
15755TIP3   OH268679   1.801   2.288  12.032 -0.1781  0.0745 -0.8614
15755TIP3    H168680   1.890   2.258  12.016  0.6131  2.2044 -0.8787
15755TIP3    H268681   1.770   2.235  12.104  1.2800 -0.4253 -0.5626
15756TIP3   OH268682   1.617   2.719  16.862 -0.1411  0.3440  0.3863
15756TIP3    H168683   1.641   2.712  16.770  0.9824  1.1938  0.6029
15756TIP3    H268684   1.522   2.729  16.861  0.0712  2.9918 -0.8457
15757TIP3   OH268685   3.870   1.794   5.126 -0.4647 -0.2844 -0.1337
15757TIP3    H168686   3.917   1.748   5.195  0.3526 -2.1883 -1.8675
15757TIP3    H268687   3.778   1.778   5.145 -0.2639 -0.5676  0.6414
15758TIP3   OH268688   3.145   3.781  13.823  0.2670 -0.2134 -0.4610
15758TIP3    H168689   3.202   3.858  13.811 -0.4384  0.4552  0.3215
15758TIP3    H268690   3.060   3.818  13.844 -0.1280 -1.2254 -0.2524
15759TIP3   OH268691   0.218   1.611  10.492 -0.1546 -0.1813  0.5971
15759TIP3    H168692   0.140   1.644  10.537  0.2015  0.3020  0.8659
15759TIP3    H268693   0.202   1.517  10.484 -0.8824 -0.0531  0.4135
15760TIP3   OH268694   2.235   0.474  17.158  0.3800 -0.4212  0.5115
15760TIP3    H168695   2.307   0.461  17.096 -0.7435  2.3755 -1.5781
15760TIP3    H268696   2.156   0.450  17.110 -0.4652  1.1162  1.0666
15761TIP3   OH268697   3.921   2.912   1.303 -0.0263  0.0401  0.1104
15761TIP3    H168698   3.841   2.955   1.275 -0.2870 -0.8823 -0.6029
15761TIP3    H268699   3.962   2.881   1.222  0.1226 -1.0855  0.5946
15762TIP3   OH268700   4.025   5.535  12.642 -0.8999  0.6923 -0.0006
15762TIP3    H168701   4.093   5.568  12.583 -1.4402  0.9495 -0.4835
15762TIP3    H268702   4.073   5.477  12.703 -0.1990  1.1374 -0.1152
15763TIP3   OH268703   1.840   4.808   4.903  0.2289  0.2526  0.2947
15763TIP3    H168704   1.849   4.713   4.909 -0.6275  0.1496  0.0708
15763TIP3    H268705   1.746   4.823   4.891  0.4260  1.0945 -0.3078
15764TIP3   OH268706   1.764   1.808   0.429 -0.1953 -0.1300 -0.2635
15764TIP3    H168707   1.703   1.754   0.479 -0.6207  0.3213 -0.2746
15764TIP3    H268708   1.728   1.807   0.340 -1.7917  2.3274  0.2507
15765TIP3   OH268709   3.005   2.221  14.497  0.6090  0.0760 -0.0431
15765TIP3    H168710   2.967   2.244  14.413 -0.0704  2.2896  0.7965
15765TIP3    H268711   2.953   2.147  14.528 -1.2359  1.2773 -0.1646
15766TIP3   OH268712   0.177   5.488   2.649 -0.6122 -0.5056 -0.9733
15766TIP3    H168713   0.161   5.406   2.696 -1.0534  0.0795 -0.0799
15766TIP3    H268714   0.090   5.521   2.628 -0.5258  0.7753  0.5251
15767TIP3   OH268715   5.829   3.942  14.265  0.5294 -0.1393  0.2457
15767TIP3    H168716   5.851   4.009  14.329  1.3335 -0.1119 -0.0382
15767TIP3    H268717   5.735   3.951  14.250  0.7741  1.5503 -0.4785
15768TIP3   OH268718   3.164   6.285   6.434  0.2101  0.7339 -0.0244
15768TIP3    H168719   3.224   6.224   6.392  0.2139  0.8283 -0.1559
15768TIP3    H268720   3.133   6.342   6.363 -1.0053 -0.1015 -0.1951
15769TIP3   OH268721   2.892   1.227   5.022  0.2102 -0.5282  0.1100
15769TIP3    H168722   2.981   1.195   5.009 -0.7256 -3.4403  0.2243
15769TIP3    H268723   2.844   1.152   5.056 -2.1473  1.1560  0.7528
15770TIP3   OH268724   1.590   4.003   3.529  0.1439  0.4408 -0.2422
15770TIP3    H168725   1.563   4.076   3.472 -0.2963  1.4877  1.2453
15770TIP3    H268726   1.591   3.927   3.471 -4.7623  0.5079 -0.8467
15771TIP3   OH268727   1.787   0.912  11.606  0.0047  0.3822 -0.1914
15771TIP3    H168728   1.863   0.966  11.584  0.6567  0.3103  1.7075
15771TIP3    H268729   1.824   0.828  11.634 -0.6747  0.6358  1.6000
15772TIP3   OH268730   4.537   1.296   2.240 -0.0928 -0.2917 -0.4562
15772TIP3    H168731   4.450   1.257   2.250 -0.3020  0.4792  0.9817
15772TIP3    H268732   4.597   1.222   2.244 -0.5562 -0.6158  1.0228
15773TIP3   OH268733   1.806   0.102   1.119  0.4568 -0.0187  0.0408
15773TIP3    H168734   1.852   0.028   1.157  0.7433  0.4298  0.5839
15773TIP3    H268735   1.823   0.174   1.179 -0.3967  0.3167 -0.1065
15774TIP3   OH268736   4.085   5.963  11.782 -0.3501  0.0521  0.2952
15774TIP3    H168737   4.150   5.919  11.727 -0.6021 -0.9455  0.7561
15774TIP3    H268738   4.135   5.992  11.859 -0.1260  0.8503 -0.1441
15775TIP3   OH268739   2.896   5.469  15.723 -0.1543  0.2584  0.1314
15775TIP3    H168740   2.884   5.374  15.728 -1.2117  0.3504 -0.3176
15775TIP3    H268741   2.900   5.488  15.629 -0.8518  0.7405  0.1840
15776TIP3   OH268742   5.614   0.992  12.794 -0.1102 -0.1541  0.1792
15776TIP3    H168743   5.552   0.994  12.721  0.8119 -1.0381 -0.6539
15776TIP3    H268744   5.558   0.983  12.872 -1.1035  0.7190 -0.4082
15777TIP3   OH268745   0.992   4.901   0.283  0.0507  0.1429 -0.3386
15777TIP3    H168746   1.009   4.925   0.375  0.4656 -2.4467  0.3585
15777TIP3    H268747   1.059   4.947   0.234  2.2273 -1.2095  1.1549
15778TIP3   OH268748   1.048   2.093   4.250 -0.4063  0.1327 -0.3725
15778TIP3    H168749   1.029   2.033   4.323 -0.9274  0.3188 -0.3486
15778TIP3    H268750   0.962   2.112   4.212 -0.1464  0.1095 -0.9838
15779TIP3   OH268751   2.759   6.094  13.998 -0.1530 -0.1548 -0.5853
15779TIP3    H168752   2.793   6.128  14.081 -3.2372 -1.4594  1.4033
15779TIP3    H268753   2.802   6.147  13.931  1.8133  1.5896  1.8559
15780TIP3   OH268754   4.570   1.288  13.124 -0.5685  0.1019  0.1823
15780TIP3    H168755   4.540   1.320  13.210 -0.7011 -1.4051  0.7253
15780TIP3    H268756   4.491   1.252  13.084  0.0243 -1.8949  0.6980
15781TIP3   OH268757   5.835   1.756  14.889  0.2136 -0.4624  0.2478
15781TIP3    H168758   5.909   1.723  14.838  0.2640 -0.9457  0.6244
15781TIP3    H268759   5.759   1.743  14.833  0.7107  2.9505 -1.5098
15782TIP3   OH268760   4.211   2.944   4.664  0.3901 -0.0543  0.0909
15782TIP3    H168761   4.264   3.019   4.694 -0.0192  0.5386 -0.6466
15782TIP3    H268762   4.162   2.917   4.742  1.6011 -0.4802  0.7330
15783TIP3   OH268763   0.209   3.766  11.897  0.8249  0.7702  0.6396
15783TIP3    H168764   0.287   3.757  11.952  0.0884  0.5052  1.6638
15783TIP3    H268765   0.172   3.851  11.920  0.9411  1.0186 -0.0424
15784TIP3   OH268766   6.468   0.352  14.408 -0.2365  0.0314 -0.0854
15784TIP3    H168767   6.510   0.294  14.345  1.3363  2.1618 -1.1001
15784TIP3    H268768   6.533   0.365  14.476 -0.2289  1.2421 -0.2967
15785TIP3   OH268769   4.874   6.522   2.769 -0.1452  0.1711 -0.4704
15785TIP3    H168770   4.880   6.435   2.808  0.0825  0.4663  0.1591
15785TIP3    H268771   4.780   6.535   2.754 -0.1770 -0.1915 -0.5910
15786TIP3   OH268772   3.224   2.445  13.136 -0.1847  0.4372 -0.8263
15786TIP3    H168773   3.308   2.489  13.147  0.9769 -0.9597 -3.2215
15786TIP3    H268774   3.198   2.420  13.224  1.0701  2.3559  0.1442
15787TIP3   OH268775   2.876   4.774   5.271 -0.3232  0.2119  0.0641
15787TIP3    H168776   2.851   4.826   5.195  0.3257  2.2062  1.1592
15787TIP3    H268777   2.801   4.779   5.330 -0.7003 -1.0769 -0.2593
15788TIP3   OH268778   1.210   2.669   5.770  0.3863 -0.3174 -0.1469
15788TIP3    H168779   1.257   2.751   5.761 -0.5292  0.3447  0.8506
15788TIP3    H268780   1.199   2.658   5.865  0.9985 -1.8860 -0.2270
15789TIP3   OH268781   6.000   6.174   3.555 -0.5175  0.2999  0.1660
15789TIP3    H168782   6.078   6.220   3.526 -0.8066 -0.5960 -2.3596
15789TIP3    H268783   5.947   6.165   3.475 -2.0384 -1.3149  1.2741
15790TIP3   OH268784   3.527   1.237  12.187 -0.1984  0.1833 -0.3051
15790TIP3    H168785   3.545   1.279  12.271  2.3825  1.4514 -1.3725
15790TIP3    H268786   3.474   1.302  12.139  1.2680  1.0127 -0.8653
15791TIP3   OH268787   5.938   4.199   3.044  0.5585  0.3774 -0.0375
15791TIP3    H168788   5.988   4.123   3.014 -1.4521 -0.9327 -0.2572
15791TIP3    H268789   5.939   4.193   3.139 -1.2715 -1.1805 -0.0463
15792TIP3   OH268790   3.814   5.210  12.677  0.1472  0.4205  0.4702
15792TIP3    H168791   3.752   5.242  12.742 -0.0622  1.1032 -0.0574
15792TIP3    H268792   3.769   5.134  12.637  0.4502 -0.2623  1.3891
15793TIP3   OH268793   3.100   5.372   1.484  0.2590  0.4658  0.2620
15793TIP3    H168794   3.048   5.292   1.493  1.3429 -0.1000  2.4132
15793TIP3    H268795   3.083   5.402   1.395 -2.3128 -0.6361  0.2787
15794TIP3   OH268796   4.040   1.678  15.525  0.2289 -0.3302 -0.0530
15794TIP3    H168797   3.947   1.660  15.539  0.2616 -1.2107 -0.8714
15794TIP3    H268798   4.070   1.712  15.609 -1.0809  1.1475 -0.1240
15795TIP3   OH268799   4.319   4.800  10.917 -0.1979 -0.9770  0.0652
15795TIP3    H168800   4.244   4.750  10.885 -1.9018  1.1922  0.4268
15795TIP3    H268801   4.343   4.858  10.844 -0.0816 -0.3482  0.5960
15796TIP3   OH268802   4.805   1.870   1.961  0.0646 -0.0997 -0.1782
15796TIP3    H168803   4.822   1.854   1.868  1.3253 -1.1926  0.2068
15796TIP3    H268804   4.782   1.963   1.965  0.2693  0.0386 -1.5407
15797TIP3   OH268805   0.363   5.829  12.656 -0.1353 -0.5223 -0.4825
15797TIP3    H168806   0.438   5.888  12.668 -0.0065 -0.8262  0.2615
15797TIP3    H268807   0.398   5.742  12.677 -0.9304 -0.5439  0.7993
15798TIP3   OH268808   3.830   5.479  15.656  0.8192 -0.1440  0.6093
15798TIP3    H168809   3.766   5.423  15.612  1.6656 -0.1063 -0.7257
15798TIP3    H268810   3.811   5.567  15.625 -0.1972  0.2836  2.3314
15799TIP3   OH268811   1.092   4.508   3.354  0.1854 -0.1898 -0.0430
15799TIP3    H168812   1.099   4.576   3.288  0.5180 -0.5926 -0.4325
15799TIP3    H268813   1.176   4.462   3.350 -0.4726 -1.3948 -0.6503
15800TIP3   OH268814   4.758   5.772   3.861  0.2733  0.0263  0.1506
15800TIP3    H168815   4.781   5.687   3.897  0.5139 -0.8056 -1.8596
15800TIP3    H268816   4.664   5.769   3.847  0.3715 -0.1633 -0.5067
15801TIP3   OH268817   3.303   5.547  17.148 -0.5330 -0.3277  0.2215
15801TIP3    H168818   3.336   5.457  17.149 -0.5392 -0.3338 -0.0358
15801TIP3    H268819   3.369   5.596  17.099 -0.3552 -0.1216  0.6626
15802TIP3   OH268820   2.975   5.638   4.404  0.5052  0.0588  0.1086
15802TIP3    H168821   3.071   5.639   4.396  0.4713 -0.2385 -0.3890
15802TIP3    H268822   2.955   5.710   4.464  0.9457  1.1025 -0.9441
15803TIP3   OH268823   1.056   3.251   5.071  0.1348 -0.5205 -0.1741
15803TIP3    H168824   1.002   3.189   5.022 -0.4187  0.1118 -0.3862
15803TIP3    H268825   1.085   3.315   5.006  0.9641 -0.7350 -0.0169
15804TIP3   OH268826   5.703   5.021   6.324 -0.3375  0.4224 -0.2158
15804TIP3    H168827   5.611   4.999   6.337 -0.3440 -0.3978 -1.4954
15804TIP3    H268828   5.734   5.048   6.411 -1.9477  1.3985  0.0926
15805TIP3   OH268829   4.741   5.972   2.630  0.8197 -0.2262 -0.0259
15805TIP3    H168830   4.657   6.014   2.610  1.4675  1.4947  0.6816
15805TIP3    H268831   4.725   5.923   2.710  0.3132 -0.4936 -0.2847
15806TIP3   OH268832   6.510   0.087   0.355  0.0701  0.0009 -0.4034
15806TIP3    H168833   6.499   0.170   0.309  0.4105  0.8750  1.0492
15806TIP3    H268834   6.441   0.085   0.420  1.2929  0.1423  0.9591
15807TIP3   OH268835   6.232   4.846  16.406  0.3559 -0.3554  0.3590
15807TIP3    H168836   6.200   4.936  16.402 -1.9677 -1.0810  0.9656
15807TIP3    H268837   6.289   4.837  16.329  0.8499  1.6651  0.4382
15808TIP3   OH268838   6.664   1.675  11.687  0.0561 -0.4347 -0.6340
15808TIP3    H168839   6.697   1.677  11.597 -1.4517  1.1610 -1.2171
15808TIP3    H268840   6.733   1.632  11.737  1.9936  0.7472 -2.1504
15809TIP3   OH268841   2.021   2.754   0.392  0.2977 -0.1685 -0.3416
15809TIP3    H168842   1.963   2.829   0.406  0.9093  0.5164 -1.4251
15809TIP3    H268843   2.089   2.763   0.459 -0.2795 -0.4277  0.2942
15810TIP3   OH268844   4.998   2.755   1.408  0.5444  0.2618  0.2923
15810TIP3    H168845   4.945   2.727   1.334  1.7376  1.5300 -1.1033
15810TIP3    H268846   4.958   2.838   1.435 -0.8626 -0.9313  2.1798
15811TIP3   OH268847   5.190   4.452  13.930  0.0383 -0.4169  0.3223
15811TIP3    H168848   5.157   4.370  13.894 -2.2011  0.0066  1.2483
15811TIP3    H268849   5.281   4.457  13.899  0.1089 -3.0004 -0.1131
15812TIP3   OH268850   3.434   2.964   2.795 -0.0273  0.4961 -0.3239
15812TIP3    H168851   3.414   2.955   2.702  0.1607  0.7943 -0.3967
15812TIP3    H268852   3.352   2.990   2.836 -0.0616  0.5717 -0.4413
15813TIP3   OH268853   5.616   1.028  15.012  0.5593 -0.3107  0.2520
15813TIP3    H168854   5.658   1.044  14.928 -0.3279 -2.2687 -0.6256
15813TIP3    H268855   5.522   1.031  14.994  0.3407 -0.2588  1.2950
15814TIP3   OH268856   6.033   1.835   4.173  0.1508  0.6951  0.7409
15814TIP3    H168857   6.045   1.833   4.268  0.2539 -1.6554  0.7316
15814TIP3    H268858   5.974   1.909   4.158 -1.6722 -0.2117  2.8806
15815TIP3   OH268859   2.627   0.641   0.014 -0.1528  0.4180  0.1330
15815TIP3    H168860   2.543   0.685   0.027 -1.2122 -1.5828  0.3533
15815TIP3    H268861   2.613   0.583  -0.061  0.1536 -1.9492  1.8073
15816TIP3   OH268862   2.400   1.962   6.365 -0.1511 -0.3390  0.4222
15816TIP3    H168863   2.432   1.916   6.442  0.1651  0.4985  0.7996
15816TIP3    H268864   2.310   1.986   6.388 -0.0550 -0.0845  0.5329
15817TIP3   OH268865   0.151   3.000   4.605  0.1284  0.1042  0.2089
15817TIP3    H168866   0.212   3.047   4.548  2.0116 -0.5017  1.6231
15817TIP3    H268867   0.121   2.926   4.553  1.7642 -0.4020 -0.0719
15818TIP3   OH268868   0.059   4.338   6.669 -0.1261  0.4137  0.0850
15818TIP3    H168869   0.145   4.306   6.639 -0.4462  1.0860 -1.7209
15818TIP3    H268870   0.080   4.405   6.733  0.6417 -0.4472  0.7768
15819TIP3   OH268871   4.220   3.306   2.324 -0.4197 -0.2359 -0.7697
15819TIP3    H168872   4.210   3.212   2.337 -0.7624 -0.3654 -1.8147
15819TIP3    H268873   4.203   3.345   2.410 -1.0648 -1.0781 -0.5078
15820TIP3   OH268874   3.030   2.059   3.140  0.6769 -0.0195  0.2064
15820TIP3    H168875   2.999   1.971   3.118  1.1062  0.4586 -2.6696
15820TIP3    H268876   2.953   2.103   3.178 -0.7155 -0.5021 -1.8933
15821TIP3   OH268877   0.196   5.353  15.195 -0.4734  0.3029  0.2708
15821TIP3    H168878   0.128   5.329  15.131 -0.8622 -0.1058  0.8302
15821TIP3    H268879   0.269   5.296  15.174 -1.4772 -1.6417  1.7526
15822TIP3   OH268880   0.151   0.971  16.739  0.2886  0.3445 -0.6206
15822TIP3    H168881   0.118   1.037  16.679 -0.7879 -1.0481 -1.6432
15822TIP3    H268882   0.081   0.905  16.742  0.4620  0.1748  1.8928
15823TIP3   OH268883   2.509   0.538  10.738 -0.2471 -0.5159 -0.7954
15823TIP3    H168884   2.446   0.609  10.727 -0.1224 -0.1823  0.4672
15823TIP3    H268885   2.472   0.465  10.688 -1.0847  0.0119 -0.9682
15824TIP3   OH268886   5.069   6.326   2.482  0.0452 -0.1727 -0.5275
15824TIP3    H168887   5.117   6.366   2.554  1.3270  1.3594 -2.1137
15824TIP3    H268888   5.059   6.234   2.507  2.1570 -0.1173  0.7355
15825TIP3   OH268889   6.420   4.777   2.901 -0.0531  0.1654  0.3034
15825TIP3    H168890   6.372   4.837   2.957 -0.3281  0.7836 -0.5770
15825TIP3    H268891   6.457   4.712   2.961 -1.7547 -0.1750  1.0184
15826TIP3   OH268892   4.071   0.087   5.227 -0.5527 -0.5936  0.3053
15826TIP3    H168893   4.016   0.065   5.152 -0.8352 -1.8776  0.8637
15826TIP3    H268894   4.069   0.009   5.282  0.3688  0.0027  1.2221
15827TIP3   OH268895   6.056   5.585   5.156 -0.0010 -0.4794 -0.5140
15827TIP3    H168896   5.989   5.526   5.191  0.4950 -0.5466  0.3580
15827TIP3    H268897   6.109   5.530   5.099 -1.0950 -0.2642 -1.7845
15828TIP3   OH268898   5.497   0.300  13.319  0.0598 -0.3528 -0.5726
15828TIP3    H168899   5.516   0.390  13.343  2.0385 -0.9547  0.3234
15828TIP3    H268900   5.414   0.305  13.270 -0.6768  1.7371  0.7459
15829TIP3   OH268901   0.877   1.543   3.100  0.7885  0.4437 -0.1304
15829TIP3    H168902   0.943   1.480   3.071 -0.0395 -0.5807  0.1290
15829TIP3    H268903   0.870   1.605   3.028  0.6002 -0.5961 -1.0490
15830TIP3   OH268904   3.713   3.476   4.843 -0.1117 -0.3337  0.3206
15830TIP3    H168905   3.645   3.534   4.808  0.3368 -0.1754 -0.3096
15830TIP3    H268906   3.677   3.444   4.925 -2.0342 -2.2276 -1.1479
15831TIP3   OH268907   1.214   0.350  12.955 -0.7933  0.0096  0.3961
15831TIP3    H168908   1.193   0.282  13.019  2.6211  0.9543  2.8398
15831TIP3    H268909   1.158   0.424  12.979 -2.2866 -0.8670 -0.2747
15832TIP3   OH268910   1.590   0.985  11.794  0.0272  0.0442 -0.6862
15832TIP3    H168911   1.652   0.932  11.745 -0.2888 -0.3332 -0.6852
15832TIP3    H268912   1.580   1.066  11.743 -0.0509 -0.2070 -1.0721
15833TIP3   OH268913   2.159   0.024   5.775 -0.0021 -0.0504 -0.2259
15833TIP3    H168914   2.179  -0.046   5.714  0.0136  2.8318 -3.9047
15833TIP3    H268915   2.243   0.066   5.792 -0.4040  1.1817 -1.0725
15834TIP3   OH268916   0.602   0.450  11.711  0.0127 -0.2816  0.1767
15834TIP3    H168917   0.568   0.523  11.660  0.2078 -1.6273 -1.9860
15834TIP3    H268918   0.527   0.390  11.721  0.0027 -0.0992  1.4324
15835TIP3   OH268919   3.946   2.189   0.408 -0.2953 -0.5503  0.0508
15835TIP3    H168920   4.011   2.224   0.468 -0.5037 -2.8800  1.7257
15835TIP3    H268921   3.958   2.240   0.328  1.4302  1.1952  1.3397
15836TIP3   OH268922   0.255   5.113   4.337 -0.8809  0.1093  0.3053
15836TIP3    H168923   0.202   5.110   4.417  0.8923  0.4622  1.5459
15836TIP3    H268924   0.236   5.030   4.294 -2.5307  0.2803  0.6268
15837TIP3   OH268925   0.201   4.108   0.142 -0.4928 -0.0764  0.4443
15837TIP3    H168926   0.220   4.154   0.224  0.8281 -0.8373  0.5939
15837TIP3    H268927   0.235   4.020   0.156 -0.5684 -0.3199 -0.8010
15838TIP3   OH268928   3.145   0.634  11.163  0.1976 -0.7855 -0.0501
15838TIP3    H168929   3.161   0.544  11.191  0.5526 -0.8297 -0.3738
15838TIP3    H268930   3.165   0.634  11.070 -0.0368 -0.4258 -0.1030
15839TIP3   OH268931   0.453   2.357   1.022 -0.0973  0.2897  0.3624
15839TIP3    H168932   0.489   2.419   0.960 -0.9899 -0.5489 -1.0333
15839TIP3    H268933   0.388   2.407   1.071 -0.3094  0.6298 -0.2593
15840TIP3   OH268934   5.219   1.408  15.136 -0.8138 -0.1521  0.0122
15840TIP3    H168935   5.163   1.455  15.198  0.2422  1.3722 -0.1273
15840TIP3    H268936   5.239   1.473  15.069  1.4526 -0.4952  0.2942
15841TIP3   OH268937   1.215   0.533  12.551 -0.4363  0.4942 -0.1266
15841TIP3    H168938   1.221   0.461  12.615 -1.0884  1.3981  0.9857
15841TIP3    H268939   1.303   0.568  12.545  0.0682 -0.8735 -1.2812
15842TIP3   OH268940   4.179   3.110  15.091  0.1233  0.1197  0.5492
15842TIP3    H168941   4.093   3.075  15.069  0.8324 -1.2891 -0.0947
15842TIP3    H268942   4.240   3.040  15.068  1.3261  0.4505  2.4582
15843TIP3   OH268943   6.299   6.783  14.226  0.2715 -0.5427 -0.4570
15843TIP3    H168944   6.207   6.756  14.220 -0.1132  0.7606 -0.7931
15843TIP3    H268945   6.298   6.876  14.206  1.5963 -0.3553  0.2199
15844TIP3   OH268946   1.026   0.779   0.063 -0.2244 -0.1842 -0.1179
15844TIP3    H168947   1.038   0.700   0.011  1.1975  0.1628 -0.3613
15844TIP3    H268948   0.932   0.797   0.058 -0.1480 -0.0189 -2.8090
15845TIP3   OH268949   2.707   0.286   0.756  0.5205 -0.7850  0.1268
15845TIP3    H168950   2.641   0.223   0.728  0.2341 -0.1038 -0.7762
15845TIP3    H268951   2.763   0.237   0.816  0.5653 -2.0108 -0.8785
15846TIP3   OH268952   0.677   3.912  11.405 -0.0966 -0.2840  0.1375
15846TIP3    H168953   0.760   3.884  11.445 -1.4211 -2.5234  1.6025
15846TIP3    H268954   0.621   3.834  11.410 -3.2833  1.8687  1.9665
15847TIP3   OH268955   5.486   5.294  11.830 -0.0470  0.2561 -0.1938
15847TIP3    H168956   5.564   5.270  11.880 -0.3450 -1.0541 -0.3268
15847TIP3    H268957   5.414   5.252  11.877 -0.4078 -0.4171 -1.3088
15848TIP3   OH268958   1.265   6.501   1.020  0.0050 -0.1655  0.3397
15848TIP3    H168959   1.256   6.433   1.087 -0.2145 -1.8624 -1.3019
15848TIP3    H268960   1.355   6.490   0.988 -0.0202  0.3391  0.0957
15849TIP3   OH268961   6.277   2.406   1.224 -0.1737  0.2002  0.0047
15849TIP3    H168962   6.286   2.380   1.315  0.1409  0.8327  0.1645
15849TIP3    H268963   6.247   2.328   1.179  1.9921 -0.8219  0.2221
15850TIP3   OH268964   3.655   4.488  14.458 -0.5312  0.0724 -0.0620
15850TIP3    H168965   3.679   4.569  14.502  0.9075 -0.4346  0.1536
15850TIP3    H268966   3.560   4.492  14.450 -0.5450  1.4850  0.5010
15851TIP3   OH268967   1.170   3.925   1.635 -0.5322 -0.1235 -0.0910
15851TIP3    H168968   1.125   3.875   1.567  0.0538 -0.7347 -0.0420
15851TIP3    H268969   1.260   3.894   1.632 -0.5319 -0.3019  1.0859
15852TIP3   OH268970   3.953   4.726  13.467 -0.1044  0.0587 -0.4505
15852TIP3    H168971   3.952   4.634  13.441 -1.6467  0.1222 -0.6959
15852TIP3    H268972   4.001   4.771  13.398  0.2783 -0.4964 -0.5487
15853TIP3   OH268973   1.617   2.780   1.791 -0.1297 -0.5801  0.2859
15853TIP3    H168974   1.624   2.736   1.875 -1.6490 -1.1935  0.1191
15853TIP3    H268975   1.548   2.733   1.744 -1.6515  1.7602 -0.0013
15854TIP3   OH268976   2.183   1.125  12.187 -0.2116 -0.6163  0.0407
15854TIP3    H168977   2.129   1.142  12.264  0.3407 -1.3193  0.5940
15854TIP3    H268978   2.218   1.037  12.200 -2.1927 -1.9003 -2.2567
15855TIP3   OH268979   0.511   1.482   3.436  0.0750 -0.0396  0.0488
15855TIP3    H168980   0.566   1.484   3.357 -2.8383 -1.3551 -2.2049
15855TIP3    H268981   0.457   1.561   3.429  1.5029  1.2359  2.2346
15856TIP3   OH268982   0.830   2.595   1.329  0.5235 -0.0121  0.0124
15856TIP3    H168983   0.753   2.543   1.351  0.4476  0.3157  0.5361
15856TIP3    H268984   0.891   2.532   1.291  0.4643 -0.5067  0.7172
15857TIP3   OH268985   5.829   2.650  12.941  0.5689  0.0853 -0.4365
15857TIP3    H168986   5.822   2.734  12.894 -0.1492  0.2939  0.0263
15857TIP3    H268987   5.850   2.675  13.031  1.0317 -0.2681 -0.4443
15858TIP3   OH268988   5.413   0.318   4.399  0.1032 -0.3748  0.0945
15858TIP3    H168989   5.363   0.353   4.325  0.1762 -0.9159 -0.2137
15858TIP3    H268990   5.380   0.366   4.475  1.8079  2.0614 -0.5936
15859TIP3   OH268991   2.877   0.811   0.118 -0.3010 -0.0250 -0.3753
15859TIP3    H168992   2.969   0.786   0.130 -0.3615 -0.2770 -0.4386
15859TIP3    H268993   2.827   0.736   0.149 -0.5132  0.6029  0.8759
15860TIP3   OH268994   2.286   5.278   1.803 -0.6189  0.9618 -0.1204
15860TIP3    H168995   2.208   5.237   1.841  1.5523 -2.2905  1.2420
15860TIP3    H268996   2.314   5.342   1.869 -1.6977  1.6654 -0.3172
15861TIP3   OH268997   0.384   1.080   5.875  0.3866 -0.1764 -0.1798
15861TIP3    H168998   0.405   1.135   5.799 -0.4351 -1.4028 -1.3331
15861TIP3    H268999   0.290   1.094   5.889  0.7427  0.9090  1.3589
15862TIP3   OH269000   1.873   5.052   1.154 -0.5433  0.3154  0.0975
15862TIP3    H169001   1.813   4.978   1.162 -1.3460  0.6410 -2.1940
15862TIP3    H269002   1.960   5.012   1.152 -0.9921 -0.7276 -1.9010
15863TIP3   OH269003   3.736   0.134   1.096  0.2338 -0.0633  0.1685
15863TIP3    H169004   3.756   0.225   1.121 -0.0328  0.0673 -0.0893
15863TIP3    H269005   3.660   0.141   1.039  1.3197 -0.2738 -1.3567
15864TIP3   OH269006   0.573   4.328  11.269 -0.1993 -0.1281  0.1957
15864TIP3    H169007   0.606   4.292  11.352  0.4870  2.7022  1.2666
15864TIP3    H269008   0.478   4.333  11.282 -0.0450  0.8003  1.0585
15865TIP3   OH269009   1.857   5.883  16.725 -0.4559 -0.3565  0.0232
15865TIP3    H169010   1.914   5.866  16.650  0.0544  1.7791 -0.1348
15865TIP3    H269011   1.769   5.864  16.693 -0.1252 -0.7151 -0.6993
15866TIP3   OH269012   2.843   3.946  11.958  0.1457  0.0424 -0.2355
15866TIP3    H169013   2.860   3.962  11.865 -1.4248  1.3677 -0.3273
15866TIP3    H269014   2.878   4.023  12.002  1.8861 -1.0781  0.4278
15867TIP3   OH269015   2.285   3.642   1.861 -0.0205  0.0281 -0.2855
15867TIP3    H169016   2.298   3.571   1.799 -0.7069 -0.3596 -0.0011
15867TIP3    H269017   2.240   3.711   1.811  0.3321  0.1256 -0.4711
15868TIP3   OH269018   1.223   3.400   0.504  0.1166  0.7416 -0.1285
15868TIP3    H169019   1.164   3.344   0.455  0.1832 -0.7390  1.3928
15868TIP3    H269020   1.238   3.354   0.587  1.3780  2.2916  0.5813
15869TIP3   OH269021   4.459   0.976  13.670  0.0681  0.1372 -0.0348
15869TIP3    H169022   4.490   0.967  13.580  1.3251 -1.3718  0.5106
15869TIP3    H269023   4.534   0.953  13.724 -0.7295  0.7995  1.4198
15870TIP3   OH269024   5.234   5.457   0.504  0.3744 -0.8449 -0.0942
15870TIP3    H169025   5.202   5.536   0.461  0.6073 -0.3936  0.5512
15870TIP3    H269026   5.329   5.467   0.506  0.3010 -0.1909  1.7509
15871TIP3   OH269027   4.464   4.931   0.179 -0.3973 -0.4900 -0.4145
15871TIP3    H169028   4.373   4.933   0.147 -0.4310  0.4091 -0.2886
15871TIP3    H269029   4.456   4.929   0.274 -0.3302  1.7903 -0.2879
15872TIP3   OH269030   2.111   5.373   3.509 -0.2936 -0.1885  0.2163
15872TIP3    H169031   2.205   5.365   3.526  0.0224  1.3868 -0.5888
15872TIP3    H269032   2.070   5.340   3.589  0.8772 -2.2839  0.0312
15873TIP3   OH269033   5.749   1.161   2.040 -0.6641 -0.0219  0.2221
15873TIP3    H169034   5.842   1.169   2.016 -0.9953  0.0235 -1.1399
15873TIP3    H269035   5.715   1.094   1.981 -1.4847 -0.1090  0.7841
15874TIP3   OH269036   6.093   2.848  15.115 -0.6783 -0.0466  0.1744
15874TIP3    H169037   6.097   2.930  15.164  1.0617  0.2317 -0.3436
15874TIP3    H269038   6.111   2.873  15.025 -1.8374 -0.7975 -0.2806
15875TIP3   OH269039   1.924   3.398   5.965  0.5988  0.3616 -0.5147
15875TIP3    H169040   1.829   3.406   5.970  0.5174 -1.0791  1.6378
15875TIP3    H269041   1.956   3.454   6.036  1.3326  0.3543 -0.8289
15876TIP3   OH269042   6.443   3.471  14.962 -0.4711 -0.3995  0.0316
15876TIP3    H169043   6.379   3.539  14.982 -1.6518 -1.1496 -1.0601
15876TIP3    H269044   6.436   3.409  15.034 -0.3275 -0.0311  0.3664
15877TIP3   OH269045   6.006   3.023  15.748  0.0316 -0.1617  0.0217
15877TIP3    H169046   5.970   3.102  15.789  0.2470 -0.0542  0.0091
15877TIP3    H269047   6.096   3.018  15.782  0.6724  0.6708 -1.4349
15878TIP3   OH269048   1.588   4.627   5.230 -0.2171  0.2944 -0.1522
15878TIP3    H169049   1.573   4.690   5.159 -0.8171 -1.5249 -1.7038
15878TIP3    H269050   1.518   4.646   5.294  1.9769  3.8628  1.5332
15879TIP3   OH269051   0.167   4.674   5.836 -0.1557  0.4517  0.4304
15879TIP3    H169052   0.133   4.762   5.821  0.0785  0.2918 -1.2265
15879TIP3    H269053   0.252   4.688   5.880  0.7506  1.1698 -1.4480
15880TIP3   OH269054   2.970   5.332   3.337 -0.7090  0.1849 -0.4053
15880TIP3    H169055   3.011   5.268   3.396 -0.5936 -1.2570 -1.9866
15880TIP3    H269056   2.877   5.328   3.358 -0.7901 -0.9980 -0.8936
15881TIP3   OH269057   4.345   6.016   3.485 -0.5478  0.0198 -0.6008
15881TIP3    H169058   4.430   6.008   3.530 -0.0629  1.5180 -1.2028
15881TIP3    H269059   4.280   5.999   3.554  0.2191  0.3494  0.2242
15882TIP3   OH269060   2.305   1.986   2.774  0.2452 -1.0068 -0.5826
15882TIP3    H169061   2.298   1.891   2.766  1.1154 -1.3165  1.5503
15882TIP3    H269062   2.255   2.008   2.853  1.3566  0.0690 -0.1318
15883TIP3   OH269063   6.207   2.201   6.130  0.0451 -0.0771  0.2516
15883TIP3    H169064   6.131   2.223   6.076 -1.0274  0.0088  1.7555
15883TIP3    H269065   6.170   2.176   6.215  1.6997 -0.0886  1.0000
15884TIP3   OH269066   5.496   4.223   0.747  0.2490 -0.0808  0.2583
15884TIP3    H169067   5.556   4.271   0.803  0.3532  0.9949 -0.7415
15884TIP3    H269068   5.410   4.259   0.766 -0.2095 -1.8813  1.9676
15885TIP3   OH269069   2.795   4.140   4.131 -0.0077 -0.3083 -0.1758
15885TIP3    H169070   2.795   4.230   4.163  0.7494 -0.8582  1.4636
15885TIP3    H269071   2.704   4.113   4.134 -0.1513  0.1873 -0.0267
15886TIP3   OH269072   2.784   3.650   3.009  0.5909 -0.0668 -0.5572
15886TIP3    H169073   2.736   3.711   3.066  0.8819 -0.6912  0.3836
15886TIP3    H269074   2.871   3.689   3.000  1.3055 -1.0590  1.3459
15887TIP3   OH269075   2.544   2.740   0.122 -0.9922 -0.1368 -0.2379
15887TIP3    H169076   2.473   2.783   0.169 -0.2487 -0.0824  0.8685
15887TIP3    H269077   2.584   2.683   0.187  1.2438  1.3118 -0.2595
15888TIP3   OH269078   1.933   4.921  13.918 -0.2314  0.2031  0.3076
15888TIP3    H169079   2.010   4.901  13.971  0.5204 -1.3059 -1.2774
15888TIP3    H269080   1.932   5.017  13.912 -0.1540  0.4095  2.6823
15889TIP3   OH269081   3.805   4.273  15.895  0.1046  0.3257  0.0352
15889TIP3    H169082   3.824   4.271  15.801 -2.5532 -0.4217 -0.5791
15889TIP3    H269083   3.711   4.259  15.900 -0.0026  1.4551  2.7974
15890TIP3   OH269084   0.141   0.587   3.104 -0.6256 -0.4219  0.1141
15890TIP3    H169085   0.197   0.529   3.052 -0.9783 -3.1838  2.6169
15890TIP3    H269086   0.195   0.665   3.117  0.0420 -0.2124 -2.9837
15891TIP3   OH269087   1.340   1.299  13.528  0.6211 -0.6473 -0.0018
15891TIP3    H169088   1.384   1.276  13.609 -0.2227 -0.5532  0.5024
15891TIP3    H269089   1.253   1.260  13.536  1.6543 -3.8891 -2.4838
15892TIP3   OH269090   1.560   6.464  14.902 -0.1426 -0.5287  0.4492
15892TIP3    H169091   1.642   6.416  14.889  0.0729 -0.4001  1.2875
15892TIP3    H269092   1.587   6.549  14.937 -0.6797 -0.9458  1.9625
15893TIP3   OH269093   3.688   2.460   2.073  0.0510  0.1569 -0.0918
15893TIP3    H169094   3.714   2.520   2.143  0.4428 -0.6366  0.4551
15893TIP3    H269095   3.726   2.376   2.098  0.9376  0.0375 -1.7097
15894TIP3   OH269096   4.300   6.184   1.147  0.3014 -0.0532  1.0029
15894TIP3    H169097   4.370   6.211   1.087 -0.8447  0.3053 -0.2386
15894TIP3    H269098   4.312   6.239   1.225  0.5878  1.0087  0.2359
15895TIP3   OH269099   5.170   1.095  11.286 -0.2413  0.0280  0.7557
15895TIP3    H169100   5.264   1.081  11.280 -0.3273 -0.7349  1.0934
15895TIP3    H269101   5.135   1.010  11.315 -1.2617 -0.4312 -1.5409
15896TIP3   OH269102   6.202   6.567   1.422 -0.7024 -0.3574 -0.0047
15896TIP3    H169103   6.128   6.513   1.451 -0.3910 -1.2119 -0.7521
15896TIP3    H269104   6.278   6.531   1.467 -0.8885  1.3544  1.7947
15897TIP3   OH269105   1.838   4.868  14.518 -0.0358  0.0849 -0.5946
15897TIP3    H169106   1.849   4.773  14.521 -1.7329 -0.1278 -0.0977
15897TIP3    H269107   1.872   4.894  14.432  1.1834 -0.8338 -0.4199
15898TIP3   OH269108   1.507   0.500   5.065 -0.0506  0.4220  0.6084
15898TIP3    H169109   1.449   0.503   5.141 -1.0611  2.0877 -0.1566
15898TIP3    H269110   1.486   0.418   5.020 -0.0484 -0.1528  1.6470
15899TIP3   OH269111   4.789   0.228   2.297 -1.2464  0.2312  0.9684
15899TIP3    H169112   4.713   0.185   2.337 -1.1312 -0.4759  0.4609
15899TIP3    H269113   4.766   0.321   2.294 -1.3011  0.2862  2.5589
15900TIP3   OH269114   6.099   3.271   2.244 -0.5247 -0.1548  0.1809
15900TIP3    H169115   6.156   3.205   2.205 -1.4124 -1.0810  0.3983
15900TIP3    H269116   6.016   3.262   2.197 -0.1130  2.1394 -1.1100
15901TIP3   OH269117   3.566   6.354   0.121  0.3774 -0.0081  0.0756
15901TIP3    H169118   3.644   6.300   0.123 -0.2821 -1.0063 -0.4559
15901TIP3    H269119   3.563   6.391   0.033 -1.8702 -3.2619 -1.3824
15902TIP3   OH269120   4.945   1.145   2.109 -0.6379 -0.4902 -0.1903
15902TIP3    H169121   4.855   1.128   2.137 -0.6651  0.5096  0.3795
15902TIP3    H269122   4.943   1.236   2.078  0.1338 -0.5260 -0.3519
15903TIP3   OH269123   4.939   5.982  14.155 -0.0611  0.1529  0.1376
15903TIP3    H169124   5.035   5.983  14.165  0.0479 -0.1662 -0.7467
15903TIP3    H269125   4.906   5.975  14.244  0.7442  0.3325  0.4634
15904TIP3   OH269126   3.891   3.358   2.290 -0.2080  0.3622  0.1516
15904TIP3    H169127   3.846   3.273   2.286  0.0445  0.1207  1.8125
15904TIP3    H269128   3.981   3.338   2.267 -0.1660  0.1936  0.4617
15905TIP3   OH269129   2.688   3.677   5.904 -0.4215 -0.3969 -0.1797
15905TIP3    H169130   2.764   3.656   5.849 -0.7532  0.9946 -1.2341
15905TIP3    H269131   2.624   3.714   5.843  0.3273  4.2385  1.4174
15906TIP3   OH269132   0.040   1.216  12.131 -0.0285 -0.3197  0.3103
15906TIP3    H169133   0.033   1.162  12.210 -1.4741 -0.1562  0.3169
15906TIP3    H269134  -0.042   1.201  12.084 -0.6797  2.1540  0.5133
15907TIP3   OH269135   5.856   5.256  12.557 -0.1974 -0.1977  0.1843
15907TIP3    H169136   5.937   5.293  12.592 -1.7983  1.0842  2.8795
15907TIP3    H269137   5.825   5.196  12.626 -1.1563 -1.2758 -1.1318
15908TIP3   OH269138   5.184   5.277   2.002  0.2332  0.3866  0.1743
15908TIP3    H169139   5.216   5.320   2.081  1.0626 -0.4643  0.3269
15908TIP3    H269140   5.248   5.301   1.934  0.9849 -0.9446  0.3726
15909TIP3   OH269141   0.593   3.238   4.154  0.4069 -0.1513 -0.1386
15909TIP3    H169142   0.528   3.291   4.200  0.3600 -0.0057 -0.3660
15909TIP3    H269143   0.605   3.283   4.070  0.3230 -0.5376 -0.3591
15910TIP3   OH269144   4.092   6.009  13.704 -0.0405  0.1035  0.5105
15910TIP3    H169145   4.098   5.975  13.793 -1.1277 -1.0841  0.1605
15910TIP3    H269146   4.062   5.934  13.651 -1.0915  1.2198 -0.5429
15911TIP3   OH269147   2.891   4.496   1.158 -0.3916 -0.2879 -0.2456
15911TIP3    H169148   2.976   4.461   1.133 -0.0036 -0.1139  0.7700
15911TIP3    H269149   2.909   4.548   1.236 -1.7870 -2.3640  1.5829
15912TIP3   OH269150   3.529   3.542  12.892  0.3291 -0.0556  0.5643
15912TIP3    H169151   3.472   3.556  12.969  1.7300  0.8070  1.4925
15912TIP3    H269152   3.575   3.460  12.910  0.4115 -0.0255  0.4920
15913TIP3   OH269153   5.783   3.651  11.700  0.0609 -0.8420  0.1249
15913TIP3    H169154   5.746   3.648  11.611  1.3020 -0.2904 -0.4418
15913TIP3    H269155   5.861   3.705  11.691 -0.1769 -0.1866  1.7200
15914TIP3   OH269156   4.397   4.319  12.383 -0.7614  0.1154 -0.4663
15914TIP3    H169157   4.369   4.272  12.304 -1.0392 -0.0794 -0.2565
15914TIP3    H269158   4.492   4.313  12.381 -0.6756  1.3033 -1.5023
15915TIP3   OH269159   5.769   4.622  12.564 -0.7171 -0.8987  0.2792
15915TIP3    H169160   5.745   4.612  12.656 -1.4300 -0.2980  0.1699
15915TIP3    H269161   5.685   4.628  12.518 -0.4411 -3.3858 -0.6972
15916TIP3   OH269162   0.897   2.263   0.639  0.0957 -0.9003 -0.0870
15916TIP3    H169163   0.966   2.320   0.672  0.4075 -2.0229  1.3429
15916TIP3    H269164   0.922   2.244   0.549  0.4329  0.5037 -0.3081
15917TIP3   OH269165   4.009   6.271   3.642 -0.6501  0.0937 -0.7682
15917TIP3    H169166   4.021   6.212   3.567 -1.6813  0.6286 -1.3743
15917TIP3    H269167   4.092   6.267   3.689  0.3642  0.4591 -2.4416
15918TIP3   OH269168   1.311   0.784  10.996  0.4352 -0.2026  0.1829
15918TIP3    H169169   1.312   0.705  10.942  0.8705 -0.6117  0.7791
15918TIP3    H269170   1.311   0.752  11.086 -3.5162  0.3341  0.5960
15919TIP3   OH269171   2.825   3.334   0.117  0.2217 -0.1611 -0.1857
15919TIP3    H169172   2.848   3.270   0.184 -0.2070 -0.6284 -0.4852
15919TIP3    H269173   2.907   3.380   0.099  0.0326  1.1202  1.8663
15920TIP3   OH269174   4.237   4.730  16.995 -0.3610  0.4644 -0.2887
15920TIP3    H169175   4.224   4.824  17.013 -1.8218  0.3704 -0.7229
15920TIP3    H269176   4.233   4.689  17.081  0.0177  0.7761 -0.1199
15921TIP3   OH269177   3.883   6.690  16.618  0.7696 -0.6829  0.3401
15921TIP3    H169178   3.879   6.605  16.662  1.0726  0.0009  1.7484
15921TIP3    H269179   3.861   6.754  16.686  1.2678  0.4312 -0.5009
15922TIP3   OH269180   3.940   1.481  15.296 -0.0489 -0.1586 -0.2774
15922TIP3    H169181   3.986   1.488  15.380 -0.3066  0.6279 -0.1955
15922TIP3    H269182   3.985   1.542  15.238 -0.8869  0.5226 -0.2318
15923TIP3   OH269183   5.144   5.031  15.624 -0.1999  0.3153  0.2255
15923TIP3    H169184   5.095   4.954  15.598  0.2696  0.3920 -0.9779
15923TIP3    H269185   5.078   5.100  15.632 -0.6614 -0.2488  1.6057
15924TIP3   OH269186   5.829   2.006   4.119  0.1231  1.0408 -0.1523
15924TIP3    H169187   5.865   2.094   4.111  0.4272  0.8459 -0.9394
15924TIP3    H269188   5.734   2.018   4.110  0.2862  1.0822 -2.0860
15925TIP3   OH269189   6.677   4.401  16.503  0.2146 -0.2213 -0.1660
15925TIP3    H169190   6.674   4.310  16.530  2.6142 -0.6050 -0.9806
15925TIP3    H269191   6.675   4.451  16.584  1.2512 -1.1096  0.4276
15926TIP3   OH269192   3.075   0.883   2.910  0.2674 -0.8364 -0.0484
15926TIP3    H169193   3.122   0.910   2.831 -0.8283 -0.2569 -0.5301
15926TIP3    H269194   2.985   0.912   2.895 -0.0105 -0.9244  1.3180
15927TIP3   OH269195   3.200   4.684   3.344 -0.3280 -0.5307 -0.4899
15927TIP3    H169196   3.185   4.627   3.419  3.2073 -1.8065 -0.5666
15927TIP3    H269197   3.183   4.772   3.377 -2.8188 -1.3317  0.5495
15928TIP3   OH269198   2.041   5.376  16.976 -0.5533  0.1233  0.2271
15928TIP3    H169199   1.989   5.402  16.900  1.6849  0.5865 -1.2424
15928TIP3    H269200   2.085   5.296  16.948  0.5958  0.5002  0.9038
15929TIP3   OH269201   6.561   2.238   1.222  0.0824  0.0308  0.0534
15929TIP3    H169202   6.558   2.194   1.307  2.6723  1.3348  0.9381
15929TIP3    H269203   6.546   2.330   1.242  3.5900  0.8344 -0.3262
15930TIP3   OH269204   6.295   0.427  14.759  0.4107  0.0481 -0.4370
15930TIP3    H169205   6.298   0.344  14.806 -1.3271 -0.3518 -0.9717
15930TIP3    H269206   6.296   0.402  14.666 -1.5443  0.5187 -0.6140
15931TIP3   OH269207   2.889   2.449  14.632  0.3156 -0.0171 -0.1340
15931TIP3    H169208   2.869   2.417  14.720 -1.9375  0.0762 -0.5357
15931TIP3    H269209   2.927   2.374  14.587 -1.1178 -0.9500  0.1316
15932TIP3   OH269210   5.861   6.316   5.526  0.0532 -0.4156 -0.0073
15932TIP3    H169211   5.790   6.352   5.472 -0.8384 -1.3927  0.4829
15932TIP3    H269212   5.866   6.224   5.501  0.8058 -0.4737  0.3463
15933TIP3   OH269213   6.776   2.207   1.469  0.7195  0.2954 -0.8518
15933TIP3    H169214   6.798   2.261   1.394  0.3905 -0.0693 -1.2180
15933TIP3    H269215   6.711   2.145   1.436  2.1289 -1.2769 -0.8217
15934TIP3   OH269216   6.149   0.545  13.466 -0.0346  0.2037 -0.3596
15934TIP3    H169217   6.127   0.600  13.391  2.4954  0.6493 -0.8656
15934TIP3    H269218   6.226   0.496  13.437  1.2982  0.7204  2.0599
15935TIP3   OH269219   3.120   1.899  13.394 -0.0168  0.7162 -0.3879
15935TIP3    H169220   3.116   1.856  13.309 -0.5451 -0.4130  0.1833
15935TIP3    H269221   3.031   1.892  13.429 -0.0307  1.9634 -0.1027
15936TIP3   OH269222   3.446   1.624  16.408 -0.6988 -0.5510 -0.3955
15936TIP3    H169223   3.497   1.543  16.416 -0.8681 -0.4653  2.1432
15936TIP3    H269224   3.363   1.595  16.369 -0.7115 -1.5840  0.3557
15937TIP3   OH269225   1.235   0.560  10.800 -0.1293  0.3531 -0.0390
15937TIP3    H169226   1.288   0.499  10.749  0.6579  0.5929  0.4668
15937TIP3    H269227   1.164   0.586  10.741  0.5694  0.3719 -0.8959
15938TIP3   OH269228   5.221   5.505   5.243 -0.0564 -0.4851 -0.3266
15938TIP3    H169229   5.317   5.507   5.238 -0.0761 -0.3492 -0.7258
15938TIP3    H269230   5.193   5.555   5.166 -0.4541 -0.8419 -0.4109
15939TIP3   OH269231   4.840   4.366  16.328  0.1225 -0.3346 -0.2515
15939TIP3    H169232   4.932   4.346  16.349 -0.3645 -0.4464  2.0561
15939TIP3    H269233   4.822   4.445  16.377 -0.1097  1.7480 -3.4350
15940TIP3   OH269234   6.182   3.330   6.128  0.4321  0.2039 -0.4202
15940TIP3    H169235   6.156   3.414   6.089  0.8737  0.4506 -0.1872
15940TIP3    H269236   6.112   3.309   6.190  0.4270  0.5057 -0.3224
15941TIP3   OH269237   5.536   1.640  12.960  0.2159 -0.0599 -0.0553
15941TIP3    H169238   5.459   1.650  13.016  0.0055 -0.4764 -0.2647
15941TIP3    H269239   5.608   1.677  13.011  0.1703 -1.1252  0.8178
15942TIP3   OH269240   4.075   5.153   2.647 -0.0628 -0.0844  0.8983
15942TIP3    H169241   4.145   5.132   2.709 -0.6238  1.8195  2.2900
15942TIP3    H269242   4.019   5.215   2.695 -0.8579  1.0170 -1.3312
15943TIP3   OH269243   6.146   5.424   3.149  0.0824 -0.6226  0.4558
15943TIP3    H169244   6.137   5.517   3.167 -1.5502 -1.1490  2.6851
15943TIP3    H269245   6.232   5.416   3.107  0.3917  1.8059  0.5072
15944TIP3   OH269246   5.960   1.302  14.145  0.4294 -0.2343  0.0332
15944TIP3    H169247   5.992   1.371  14.087 -0.4749 -0.8219 -1.2129
15944TIP3    H269248   5.900   1.251  14.091 -2.3461  0.5868  2.0976
15945TIP3   OH269249   6.568   3.779  13.526 -0.0051  0.1075 -0.3687
15945TIP3    H169250   6.562   3.868  13.562  0.7530 -0.4991  1.3733
15945TIP3    H269251   6.661   3.768  13.507  0.0912 -0.6645  0.4656
15946TIP3   OH269252   0.134   3.845   1.812  0.6490  0.2402  0.5316
15946TIP3    H169253   0.076   3.836   1.888  0.3007  1.4990  0.4477
15946TIP3    H269254   0.222   3.852   1.849  0.7010 -1.0971  0.6937
15947TIP3   OH269255   4.271   3.335   2.060  0.2751  0.5179  0.4457
15947TIP3    H169256   4.215   3.278   2.006  0.7728 -0.6784  1.1476
15947TIP3    H269257   4.241   3.320   2.149  0.6168  1.1517  0.6707
15948TIP3   OH269258   4.233   3.639  15.297  0.1534 -0.4364 -0.1130
15948TIP3    H169259   4.157   3.661  15.242  0.4994 -1.0883 -0.8563
15948TIP3    H269260   4.224   3.545  15.315 -0.5033 -0.0659  1.8129
15949TIP3   OH269261   0.661   0.040   1.088  0.0343 -0.2744 -0.5429
15949TIP3    H169262   0.668  -0.007   1.005  0.8850 -2.2257  0.5750
15949TIP3    H269263   0.595   0.108   1.072 -0.4468 -1.1526 -2.5430
15950TIP3   OH269264   2.196   4.810   3.576 -0.0601 -0.2356  0.2207
15950TIP3    H169265   2.241   4.869   3.636  0.8636 -1.2332  0.5264
15950TIP3    H269266   2.120   4.779   3.625  1.6015 -2.4040  1.6140
15951TIP3   OH269267   1.537   1.818  11.761 -0.4652 -0.7487 -0.4515
15951TIP3    H169268   1.510   1.903  11.724 -0.8466 -1.2625 -1.3936
15951TIP3    H269269   1.458   1.786  11.806 -0.2883 -0.5566 -0.0022
15952TIP3   OH269270   6.098   5.265  14.587  0.1953 -0.1519 -0.1423
15952TIP3    H169271   6.020   5.313  14.556  0.0952  1.1368  1.9100
15952TIP3    H269272   6.147   5.330  14.638  1.5528 -1.5149  0.3540
15953TIP3   OH269273   2.224   5.508   3.882  1.1393 -0.1302 -0.5228
15953TIP3    H169274   2.154   5.541   3.826  2.0190  0.9913 -1.0095
15953TIP3    H269275   2.245   5.422   3.845  0.9497  0.1180 -1.2367
15954TIP3   OH269276   4.730   5.378   5.744  0.3207  0.1329 -0.2062
15954TIP3    H169277   4.686   5.353   5.663  1.5076  0.2547 -0.8983
15954TIP3    H269278   4.665   5.430   5.791 -0.4452 -0.1054 -0.9831
15955TIP3   OH269279   6.211   0.980  13.065 -0.3313 -0.0472  0.0224
15955TIP3    H169280   6.213   1.011  13.156 -1.1855  2.2435 -0.6570
15955TIP3    H269281   6.147   1.037  13.022 -0.9594 -1.9440 -1.7411
15956TIP3   OH269282   4.541   5.983  16.348 -0.6757 -0.6555 -0.0846
15956TIP3    H169283   4.594   6.046  16.396 -2.4592  1.9220 -1.2091
15956TIP3    H269284   4.599   5.949  16.280  0.3704 -0.2843  0.6070
15957TIP3   OH269285   6.238   2.506  11.858 -0.6777 -0.2251  0.6981
15957TIP3    H169286   6.307   2.560  11.896  1.4942 -0.0255 -3.0799
15957TIP3    H269287   6.281   2.423  11.839 -2.2199 -1.0214  0.5774
15958TIP3   OH269288   1.678   6.735   2.483  0.1019  0.4083  0.0039
15958TIP3    H169289   1.646   6.754   2.395 -0.3124 -0.1869  0.0131
15958TIP3    H269290   1.707   6.644   2.479 -0.9828 -0.0060  0.7566
15959TIP3   OH269291   3.105   3.881  15.523 -0.2594  0.4707 -0.3361
15959TIP3    H169292   3.022   3.849  15.560  0.4240 -0.5293  0.3708
15959TIP3    H269293   3.116   3.967  15.563 -0.3904  0.1211  0.4785
15960TIP3   OH269294   0.985   3.185   3.315 -0.3971  0.2926  0.1382
15960TIP3    H169295   0.965   3.148   3.401  1.8941  2.0008  1.5157
15960TIP3    H269296   0.903   3.174   3.266 -2.1244  0.0656  2.8008
15961TIP3   OH269297   1.460   0.714  11.697  0.2318  0.0797 -0.5881
15961TIP3    H169298   1.436   0.768  11.773  0.5612 -1.4828  0.6758
15961TIP3    H269299   1.378   0.703  11.649 -0.4068 -0.5404  0.6222
15962TIP3   OH269300   6.661   5.639   3.813 -0.1053 -0.2844 -0.1022
15962TIP3    H169301   6.620   5.594   3.887  0.5034 -0.7769 -0.0564
15962TIP3    H269302   6.592   5.697   3.779 -0.5337 -0.3964  0.5561
15963TIP3   OH269303   6.042   0.484   2.368  0.2705  0.2712  0.1325
15963TIP3    H169304   6.074   0.409   2.417 -1.2173 -1.1636 -0.9996
15963TIP3    H269305   5.955   0.502   2.405 -0.3438 -0.0399 -1.1121
15964TIP3   OH269306   3.642   1.390   3.457  0.2221  0.2662 -0.3584
15964TIP3    H169307   3.600   1.371   3.373  1.7339 -0.3166 -1.0256
15964TIP3    H269308   3.572   1.423   3.512 -1.0105 -0.2822 -1.5424
15965TIP3   OH269309   0.698   2.464  16.238  1.0254  0.3524  0.3915
15965TIP3    H169310   0.622   2.522  16.230 -0.9159 -2.1900 -1.9081
15965TIP3    H269311   0.673   2.386  16.188  4.6735 -1.2056  0.7002
15966TIP3   OH269312   3.202   6.544  11.363 -0.4854  0.3430 -0.1510
15966TIP3    H169313   3.171   6.459  11.395  1.1327 -0.1821  0.1202
15966TIP3    H269314   3.283   6.559  11.412 -0.1631  1.5101 -1.0188
15967TIP3   OH269315   4.206   3.644   3.432 -0.4584  0.1823  0.0890
15967TIP3    H169316   4.287   3.691   3.454 -1.2887  0.7551  2.1397
15967TIP3    H269317   4.152   3.708   3.387 -0.1701  0.0818 -0.4112
15968TIP3   OH269318   6.252   5.608  15.805  0.3753 -0.2186 -0.0070
15968TIP3    H169319   6.265   5.516  15.827 -1.4405 -0.5369 -0.0657
15968TIP3    H269320   6.159   5.623  15.822  0.6368  1.6061 -0.0287
15969TIP3   OH269321   6.343   0.661   5.841  0.1462  0.5034 -0.0283
15969TIP3    H169322   6.384   0.666   5.927 -0.6776  0.0218  0.4048
15969TIP3    H269323   6.391   0.590   5.796 -0.5071 -0.3870  0.6472
15970TIP3   OH269324   1.332   5.725   3.969 -0.0561 -0.4520  0.5905
15970TIP3    H169325   1.380   5.675   4.035 -0.3663 -1.8926 -0.2513
15970TIP3    H269326   1.240   5.704   3.984 -0.3049  0.7905  0.9511
15971TIP3   OH269327   5.712   4.556  15.308 -0.1570 -0.2883  0.4720
15971TIP3    H169328   5.778   4.626  15.302 -1.5194  0.9052 -2.3879
15971TIP3    H269329   5.655   4.583  15.380  0.0427  0.9139  0.1941
15972TIP3   OH269330   4.057   6.260   1.553  0.1680  0.0360 -0.1796
15972TIP3    H169331   4.065   6.326   1.484 -0.0314 -0.4784 -0.7005
15972TIP3    H269332   4.136   6.207   1.545 -0.4931 -0.8527 -0.8930
15973TIP3   OH269333   5.935   6.672   3.474 -0.4942 -0.1672 -0.3235
15973TIP3    H169334   5.853   6.715   3.451 -0.5670 -0.5263 -0.7543
15973TIP3    H269335   5.911   6.610   3.543 -0.3746  0.5269  0.3544
15974TIP3   OH269336   3.297   5.645  15.358 -0.9255  0.0507  0.0778
15974TIP3    H169337   3.387   5.622  15.381 -0.8506  1.7259  1.6978
15974TIP3    H269338   3.304   5.735  15.325 -2.1654  0.7823  1.7104
15975TIP3   OH269339   3.713   0.378  11.358  0.3656 -0.2889  0.1067
15975TIP3    H169340   3.760   0.294  11.356  0.0480 -0.5407  1.7337
15975TIP3    H269341   3.778   0.439  11.393  0.5317  0.1210 -0.8897
15976TIP3   OH269342   2.262   2.825   2.600  0.3292  0.0988 -0.3487
15976TIP3    H169343   2.260   2.917   2.576 -2.1461  0.1645 -0.1328
15976TIP3    H269344   2.178   2.790   2.568  0.8638 -1.8895  0.2747
15977TIP3   OH269345   3.920   5.062   3.286 -0.3933 -0.3067  0.3581
15977TIP3    H169346   4.005   5.019   3.282 -0.8271 -1.1149 -0.6250
15977TIP3    H269347   3.912   5.091   3.377  0.3066 -1.5188  0.8337
15978TIP3   OH269348   5.684   5.790  15.016 -0.4775 -0.1442  0.1598
15978TIP3    H169349   5.755   5.834  15.063 -1.5370  0.9179  0.8081
15978TIP3    H269350   5.647   5.857  14.959 -0.9283 -0.7098 -0.2295
15979TIP3   OH269351   4.183   3.555   5.855 -0.3239 -0.8205  0.3601
15979TIP3    H169352   4.139   3.490   5.800 -0.5256  0.2378 -0.7915
15979TIP3    H269353   4.240   3.603   5.794 -1.1213  0.9070  0.8973
15980TIP3   OH269354   2.619   6.680  16.130  0.5772 -0.0855 -0.1309
15980TIP3    H169355   2.597   6.732  16.207 -1.0500 -0.6089 -0.2122
15980TIP3    H269356   2.708   6.648  16.147  0.4451  0.2419  1.2895
15981TIP3   OH269357   1.958   4.045   6.298 -0.4718  0.0998  0.2012
15981TIP3    H169358   2.027   4.107   6.277 -0.2988  0.0092  0.4886
15981TIP3    H269359   1.987   3.962   6.260 -0.8043  0.2407 -0.3674
15982TIP3   OH269360   6.230   3.314  12.467  0.1740  0.3806  0.1349
15982TIP3    H169361   6.181   3.370  12.407 -0.2534 -0.5271 -0.3823
15982TIP3    H269362   6.223   3.357  12.552  1.1305  1.9165 -0.5087
15983TIP3   OH269363   4.415   6.671  16.337  0.7641 -0.2497  0.5668
15983TIP3    H169364   4.398   6.617  16.259  0.3778  0.3027  0.2644
15983TIP3    H269365   4.403   6.761  16.307  1.9145  0.0373  0.9431
15984TIP3   OH269366   3.581   6.255   6.066  0.6537 -0.1379 -0.1648
15984TIP3    H169367   3.589   6.345   6.098 -0.2338 -0.0806 -0.0782
15984TIP3    H269368   3.504   6.257   6.008 -0.0377 -1.0731  0.6897
15985TIP3   OH269369   4.235   6.742  14.740 -0.5081 -0.6977  0.1460
15985TIP3    H169370   4.187   6.815  14.778 -1.4076 -2.2612  2.2064
15985TIP3    H269371   4.179   6.710  14.669 -1.4525 -1.0475  1.0181
15986TIP3   OH269372   1.292   1.562  10.717 -0.5811 -0.5894  0.0011
15986TIP3    H169373   1.230   1.556  10.644  1.2349 -0.2889 -1.6433
15986TIP3    H269374   1.244   1.526  10.791 -3.1833  0.8204 -0.8575
15987TIP3   OH269375   5.347   1.699   5.868 -0.4253  0.5485 -0.5094
15987TIP3    H169376   5.410   1.752   5.821 -0.1076 -0.6015 -1.4364
15987TIP3    H269377   5.396   1.664   5.943 -0.4696  1.0608 -0.2370
15988TIP3   OH269378   4.085   0.180   0.478  0.4634  0.5294 -0.2259
15988TIP3    H169379   4.175   0.200   0.506  0.3231 -1.7838  2.2296
15988TIP3    H269380   4.058   0.108   0.534 -2.0381 -0.6044 -2.6723
15989TIP3   OH269381   1.411   3.013   6.297  0.0588 -0.0599  0.0420
15989TIP3    H169382   1.465   3.081   6.257 -0.5190  0.1672 -0.3690
15989TIP3    H269383   1.440   2.932   6.255 -1.6302  0.3463 -2.1141
15990TIP3   OH269384   5.424   6.325  13.400 -0.0125  0.0308 -0.3020
15990TIP3    H169385   5.468   6.408  13.378 -0.3433  0.1931 -0.3644
15990TIP3    H269386   5.332   6.341  13.378 -0.1345 -0.2401  0.0122
15991TIP3   OH269387   3.899   2.181   5.394  0.0781  0.7501  0.1690
15991TIP3    H169388   3.965   2.249   5.377  1.0990  0.2476  1.8926
15991TIP3    H269389   3.949   2.099   5.395 -0.8261  0.1918  0.0429
15992TIP3   OH269390   5.773   0.296   2.947 -0.4617  0.2790  0.5938
15992TIP3    H169391   5.686   0.315   2.912 -1.0186  0.4671  2.0011
15992TIP3    H269392   5.757   0.270   3.038  0.8519 -0.8800  0.5179
15993TIP3   OH269393   2.373   4.696   5.332 -0.3544 -0.5363 -0.2286
15993TIP3    H169394   2.456   4.666   5.297 -1.0493 -1.6581 -0.9782
15993TIP3    H269395   2.309   4.673   5.264 -1.5402 -1.4176  1.1459
15994TIP3   OH269396   3.131   1.223  15.152  0.2475 -0.0807 -0.3551
15994TIP3    H169397   3.167   1.251  15.236  1.0636 -0.2393 -0.6476
15994TIP3    H269398   3.151   1.130  15.146  0.0420 -0.1088 -0.6549
15995TIP3   OH269399   2.949   2.873   5.150 -0.2708  1.0391  0.7582
15995TIP3    H169400   3.039   2.893   5.123 -0.5531 -0.0433 -1.1038
15995TIP3    H269401   2.912   2.958   5.172  0.6085  1.7582 -0.4173
15996TIP3   OH269402   0.259   6.400  13.187  0.4124  0.0389  0.4903
15996TIP3    H169403   0.231   6.315  13.152  1.6650 -0.0557 -0.3635
15996TIP3    H269404   0.332   6.426  13.130  2.8807 -0.3143  3.2612
15997TIP3   OH269405   6.101   3.717  16.664  0.1008 -0.1294 -0.8613
15997TIP3    H169406   6.043   3.641  16.659  0.5349 -0.5156 -0.1370
15997TIP3    H269407   6.188   3.683  16.645  0.0874  0.4921 -2.1927
15998TIP3   OH269408   1.088   1.148  12.301 -0.3304 -0.0915  0.0699
15998TIP3    H169409   1.176   1.111  12.304 -0.0175  0.6766  0.9400
15998TIP3    H269410   1.032   1.079  12.335  0.2180  0.1337  1.5071
15999TIP3   OH269411   0.257   2.841  11.468  0.0327 -0.0200  0.2578
15999TIP3    H169412   0.261   2.781  11.543  1.2766  1.2634  1.2762
15999TIP3    H269413   0.334   2.818  11.415  0.6058  0.7686  0.7375
16000TIP3   OH269414   0.206   0.029   5.485  0.1755  0.3648 -0.3218
16000TIP3    H169415   0.184   0.104   5.540 -0.6232 -0.9587  1.2480
16000TIP3    H269416   0.200   0.063   5.395 -2.9811  1.5357  0.2005
16001TIP3   OH269417   4.740   6.150   1.448  0.3306 -0.0616 -0.0370
16001TIP3    H169418   4.747   6.154   1.544 -0.0866 -1.3500  0.0681
16001TIP3    H269419   4.824   6.184   1.417  0.5581  0.1707  0.7867
16002TIP3   OH269420   1.253   2.869  16.564 -0.2111 -0.0112 -0.0754
16002TIP3    H169421   1.261   2.774  16.559  0.1244  0.0691 -1.2683
16002TIP3    H269422   1.336   2.902  16.530 -0.9762  0.7069 -1.3441
16003TIP3   OH269423   4.470   6.638  13.351 -0.5476  0.4841 -0.0079
16003TIP3    H169424   4.375   6.634  13.358 -0.6619  0.0128 -1.4623
16003TIP3    H269425   4.502   6.592  13.428 -1.4917  0.6935  0.5199
16004TIP3   OH269426   6.008   3.520  11.463 -0.4823  0.5524 -0.3326
16004TIP3    H169427   5.923   3.563  11.468 -0.4833  0.7403 -1.5772
16004TIP3    H269428   5.999   3.441  11.515 -1.6471  0.2209 -1.0127
16005TIP3   OH269429   1.439   5.340  14.106 -0.0129  0.0833  0.3003
16005TIP3    H169430   1.435   5.433  14.128 -0.5503 -0.3278  2.0437
16005TIP3    H269431   1.386   5.333  14.027  1.9397  1.5980 -1.2717
16006TIP3   OH269432   6.097   4.723   0.448 -0.1566  0.1612  0.0763
16006TIP3    H169433   6.153   4.723   0.526 -0.7703  0.5385  0.5224
16006TIP3    H269434   6.021   4.671   0.474 -1.0637  1.5452  0.2460
16007TIP3   OH269435   5.889   6.606   0.580  0.2575  0.3566 -0.6914
16007TIP3    H169436   5.848   6.582   0.664 -0.5074  0.9667 -0.8776
16007TIP3    H269437   5.825   6.578   0.515  0.0378  1.5145 -0.9831
16008TIP3   OH269438   6.013   0.059  15.656  0.7848 -0.6502  0.1821
16008TIP3    H169439   6.088   0.094  15.703  0.2731 -0.2240  0.7003
16008TIP3    H269440   5.986   0.130  15.597 -0.3629 -0.0656  1.3618
16009TIP3   OH269441   4.597   3.387  13.964  0.3727 -0.5518 -0.2131
16009TIP3    H169442   4.584   3.351  13.876 -0.7313 -1.0422  0.1310
16009TIP3    H269443   4.560   3.476  13.959  0.2923 -0.5869 -0.2441
16010TIP3   OH269444   1.160   0.367   6.266 -0.1905 -0.2181 -0.2853
16010TIP3    H169445   1.220   0.293   6.260  0.0746  0.0450 -1.0087
16010TIP3    H269446   1.084   0.333   6.313  0.5958 -0.4998  0.8145
16011TIP3   OH269447   3.040   1.577  13.585  0.3767 -0.7964  0.3819
16011TIP3    H169448   3.097   1.606  13.656 -0.5610 -0.8746  1.1846
16011TIP3    H269449   2.963   1.540  13.628  0.0903 -1.4860 -0.6680
16012TIP3   OH269450   4.480   4.295   2.306  0.0729 -0.7606  0.5253
16012TIP3    H169451   4.438   4.222   2.351  1.0151 -0.6100  1.6983
16012TIP3    H269452   4.529   4.255   2.235  1.4476 -1.4306  1.7978
16013TIP3   OH269453   5.138   2.944   4.173  0.0363 -0.0855 -0.7214
16013TIP3    H169454   5.223   2.935   4.216 -0.7647 -2.0369  0.5492
16013TIP3    H269455   5.090   3.006   4.229  0.7283  1.4075 -1.7083
16014TIP3   OH269456   5.747   0.011   5.077 -0.1394  0.6374  0.2417
16014TIP3    H169457   5.768   0.016   5.170 -1.8431  1.3996  0.6276
16014TIP3    H269458   5.663  -0.035   5.074  0.6870 -0.9043 -1.0817
16015TIP3   OH269459   6.429   0.858   5.370  0.3575 -0.1031  0.6172
16015TIP3    H169460   6.363   0.848   5.438  0.8698  0.0168  1.1443
16015TIP3    H269461   6.440   0.770   5.334  0.2097 -0.1981  0.8058
16016TIP3   OH269462   2.739   3.167  14.578 -0.5486  0.3157  0.3170
16016TIP3    H169463   2.770   3.077  14.586 -2.2867 -0.4155 -0.5085
16016TIP3    H269464   2.814   3.215  14.543  0.2590 -0.9160  0.2826
16017TIP3   OH269465   6.547   3.010   2.374 -0.4841  0.3165 -0.0379
16017TIP3    H169466   6.531   2.941   2.311  0.0636 -0.3193  0.5085
16017TIP3    H269467   6.489   3.082   2.346 -1.0174 -0.3335 -0.6374
16018TIP3   OH269468   0.031   0.906  11.378 -0.1898 -0.1393 -0.3927
16018TIP3    H169469  -0.064   0.914  11.372 -0.0767  2.5296  0.0394
16018TIP3    H269470   0.062   0.908  11.288 -0.4791  1.0126 -0.4855
16019TIP3   OH269471   1.318   0.536  16.272 -0.1087  0.2232 -0.0511
16019TIP3    H169472   1.260   0.460  16.276  0.4174 -0.2955 -1.4971
16019TIP3    H269473   1.267   0.607  16.310 -1.1476 -0.5399  0.0272
16020TIP3   OH269474   4.031   3.519  16.547  0.2244  0.0474 -0.2889
16020TIP3    H169475   4.092   3.502  16.618  0.4230 -2.4849 -0.9482
16020TIP3    H269476   3.945   3.519  16.589  0.4780  0.7253  0.2425
16021TIP3   OH269477   3.069   5.763  10.979  0.3971  0.1662 -0.2443
16021TIP3    H169478   2.985   5.740  11.018  0.0152  0.7393 -0.7147
16021TIP3    H269479   3.054   5.757  10.885  1.0155 -0.1815 -0.3247
16022TIP3   OH269480   1.162   6.359  11.271  0.3923 -0.3199 -0.5279
16022TIP3    H169481   1.220   6.363  11.195  1.1830  2.7230  0.0708
16022TIP3    H269482   1.074   6.355  11.235  0.8164 -0.3982 -1.5862
16023TIP3   OH269483   4.221   2.710   0.607 -0.2339 -0.2434  0.0554
16023TIP3    H169484   4.278   2.667   0.670  1.3296  0.3490 -0.8944
16023TIP3    H269485   4.137   2.666   0.617 -0.0817 -0.0984  2.5791
16024TIP3   OH269486   2.784   6.612   0.248  0.2706 -0.3416 -0.1232
16024TIP3    H169487   2.707   6.633   0.301 -0.2625  0.0747 -1.0278
16024TIP3    H269488   2.833   6.695   0.243  1.1107 -0.7540  0.9535
16025TIP3   OH269489   4.679   6.180   3.813 -0.1365  0.1751 -0.4574
16025TIP3    H169490   4.624   6.240   3.762  1.5918  1.0638 -1.3656
16025TIP3    H269491   4.705   6.232   3.890  0.1862  0.0743 -0.5003
16026TIP3   OH269492   4.442   5.956   4.199 -0.4165 -0.3923  0.8995
16026TIP3    H169493   4.528   5.936   4.237 -1.4955 -0.4062  3.5137
16026TIP3    H269494   4.445   5.916   4.112  2.2105 -0.3946  0.9017
16027TIP3   OH269495   4.748   4.563   6.347  0.1151 -0.3453  0.3874
16027TIP3    H169496   4.655   4.541   6.355  0.3542 -1.9250 -0.6800
16027TIP3    H269497   4.778   4.512   6.272  1.6311  0.9086  0.1000
16028TIP3   OH269498   4.151   1.636   4.091  0.3875  0.0112  0.1883
16028TIP3    H169499   4.210   1.694   4.043  0.6146  0.5437  1.0934
16028TIP3    H269500   4.207   1.593   4.156 -0.0727 -0.0561  0.5440
16029TIP3   OH269501   0.141   0.853   1.490 -0.1097 -0.2744  0.3336
16029TIP3    H169502   0.072   0.814   1.436  0.3130  0.3992 -0.7090
16029TIP3    H269503   0.222   0.813   1.458  0.1849  0.4368  0.1797
16030TIP3   OH269504   3.761   3.410   5.483  0.2291 -0.1419  0.0346
16030TIP3    H169505   3.680   3.365   5.459  0.0456  0.2633 -0.1119
16030TIP3    H269506   3.740   3.454   5.565  0.3668 -0.2067  0.1048
16031TIP3   OH269507   0.717   4.100  10.852  0.0796 -0.4059  0.8961
16031TIP3    H169508   0.661   4.120  10.778  0.8656 -0.4758  0.2737
16031TIP3    H269509   0.740   4.008  10.841  1.0146 -0.1506  0.6697
16032TIP3   OH269510   0.733   0.704  12.799 -0.3588  0.3916  0.0461
16032TIP3    H169511   0.824   0.717  12.773 -0.3401  1.3667  0.5127
16032TIP3    H269512   0.688   0.674  12.720  0.3328  0.0894 -0.2337
16033TIP3   OH269513   2.105   0.418  15.224 -0.0829 -0.0339  0.2011
16033TIP3    H169514   2.105   0.359  15.299  0.7129  0.5146  0.6530
16033TIP3    H269515   2.124   0.504  15.261 -1.6002  0.5861 -0.3991
16034TIP3   OH269516   6.788   2.220   0.425  0.1268  0.1535 -0.6962
16034TIP3    H169517   6.823   2.142   0.382  1.2177  0.0705  0.3065
16034TIP3    H269518   6.833   2.293   0.381  0.7920  0.0975 -0.1213
16035TIP3   OH269519   1.182   3.631  11.782  0.2718 -0.1777 -0.5818
16035TIP3    H169520   1.239   3.555  11.794 -0.7245 -0.9273 -0.4156
16035TIP3    H269521   1.200   3.661  11.693 -0.6245 -1.7650 -1.3489
16036TIP3   OH269522   4.883   1.528  14.707 -0.3992  0.0657 -0.6195
16036TIP3    H169523   4.880   1.433  14.697 -0.6155  0.0243 -0.1918
16036TIP3    H269524   4.844   1.544  14.793  0.3458  0.4855 -0.3518
16037TIP3   OH269525   1.667   4.468   3.841 -0.1526  0.4158  0.0585
16037TIP3    H169526   1.635   4.379   3.850 -0.8801  0.5767 -0.7492
16037TIP3    H269527   1.759   4.464   3.868 -0.7230 -0.1330  2.1066
16038TIP3   OH269528   2.011   0.361  12.018  0.4406  0.5016  0.0689
16038TIP3    H169529   2.060   0.299  11.965  0.7493 -0.6496  1.6231
16038TIP3    H269530   1.969   0.307  12.086 -0.7608  1.7827  0.4040
16039TIP3   OH269531   5.536   4.281  13.059  0.2147 -0.4046  0.1012
16039TIP3    H169532   5.526   4.337  13.137  0.4740  1.9807 -1.4668
16039TIP3    H269533   5.629   4.289  13.037 -0.3340  1.2786 -1.9769
16040TIP3   OH269534   4.669   1.234  15.391 -0.2521  0.3385  0.1915
16040TIP3    H169535   4.708   1.199  15.472 -0.3809 -0.7422 -0.1989
16040TIP3    H269536   4.589   1.183  15.379 -0.2562  0.5179 -0.6042
16041TIP3   OH269537   4.141   6.764  13.616 -0.0921  0.3310 -0.4852
16041TIP3    H169538   4.104   6.852  13.605  1.1685  0.7446 -1.7934
16041TIP3    H269539   4.138   6.748  13.710  1.2457  2.5546  0.0194
16042TIP3   OH269540   3.984   6.436  12.976  0.0890 -0.0432 -0.1197
16042TIP3    H169541   3.911   6.385  12.939 -0.2869 -1.3904  2.2798
16042TIP3    H269542   3.992   6.404  13.066  2.3118  1.5698  0.3267
16043TIP3   OH269543   0.320   1.206  12.478 -0.3409 -0.1067  0.1366
16043TIP3    H169544   0.383   1.134  12.484  0.3515  0.4151 -0.6712
16043TIP3    H269545   0.350   1.269  12.544 -1.0795 -0.6346  1.0031
16044TIP3   OH269546   5.533   3.433   5.043 -0.2900  0.3411  0.0455
16044TIP3    H169547   5.498   3.356   4.998  0.0093  0.0061  0.3896
16044TIP3    H269548   5.614   3.404   5.082 -0.1511  0.8475  0.1423
16045TIP3   OH269549   1.294   2.219  13.176  0.0530  0.3259 -0.0217
16045TIP3    H169550   1.251   2.225  13.090 -0.5347 -1.1512  0.1349
16045TIP3    H269551   1.384   2.195  13.156  0.8264  3.2276 -0.3459
16046TIP3   OH269552   3.701   2.730   5.170  0.0792 -0.4543 -0.3274
16046TIP3    H169553   3.672   2.701   5.083 -0.9612 -0.6019  0.0495
16046TIP3    H269554   3.635   2.794   5.196  0.6976  0.0039  0.1271
16047TIP3   OH269555   2.981   0.802  17.112  0.1621 -0.0811  0.2622
16047TIP3    H169556   2.926   0.807  17.190 -1.6113 -1.5801 -0.8158
16047TIP3    H269557   3.030   0.720  17.123  0.7966  0.2978  0.3259
16048TIP3   OH269558   6.428   4.071   0.744 -0.4376 -0.1697  0.4687
16048TIP3    H169559   6.485   4.109   0.811  0.6727 -2.7523  1.1271
16048TIP3    H269560   6.475   4.084   0.662 -0.2472  0.1576  0.6277
16049TIP3   OH269561   4.957   6.724   2.625  0.4491 -0.8178  0.9301
16049TIP3    H169562   4.946   6.649   2.683 -0.3152 -1.9591 -0.6138
16049TIP3    H269563   5.022   6.695   2.560  0.3129 -0.0615  0.4424
16050TIP3   OH269564   3.004   6.564   4.829  0.2356  0.8314 -0.6060
16050TIP3    H169565   2.959   6.510   4.764  3.5985 -2.8534 -0.2555
16050TIP3    H269566   3.074   6.607   4.780  0.6773  0.7810 -0.0311
16051TIP3   OH269567   1.656   2.332  12.998 -0.4875 -0.3763 -1.2290
16051TIP3    H169568   1.629   2.407  13.051  1.7512  0.9605 -1.8341
16051TIP3    H269569   1.636   2.359  12.908  0.3133 -0.4908 -1.4489
16052TIP3   OH269570   0.151   0.949   2.532 -0.6124  0.5497 -0.2135
16052TIP3    H169571   0.235   0.957   2.488 -0.8124  0.1157 -0.6953
16052TIP3    H269572   0.156   0.866   2.579 -1.1953 -0.0716 -1.2168
16053TIP3   OH269573   6.470   2.434  10.610 -0.7945  0.0428  0.0588
16053TIP3    H169574   6.447   2.496  10.541 -0.3010  0.4494  0.2516
16053TIP3    H269575   6.560   2.457  10.635 -1.1053  0.1792  1.1287
16054TIP3   OH269576   6.128   0.292   2.512  0.0359  0.4106  0.0655
16054TIP3    H169577   6.112   0.199   2.498  0.9122  0.2070  0.3972
16054TIP3    H269578   6.126   0.303   2.607  2.8703  0.1622  0.2234
16055TIP3   OH269579   3.811   5.540   1.184  0.0460 -0.0080  0.2695
16055TIP3    H169580   3.755   5.606   1.144  0.2337 -0.0088  0.0009
16055TIP3    H269581   3.827   5.573   1.272  0.6382  0.6160 -0.0613
16056TIP3   OH269582   1.706   3.126  16.847 -0.0909 -0.7184  0.5299
16056TIP3    H169583   1.763   3.105  16.773 -0.7963  0.7756 -0.5017
16056TIP3    H269584   1.724   3.058  16.911 -0.7026 -3.1269 -1.6588
16057TIP3   OH269585   3.830   5.215  14.142 -0.2494 -0.0374 -0.1877
16057TIP3    H169586   3.751   5.225  14.196 -0.6855  0.4346 -0.8912
16057TIP3    H269587   3.798   5.217  14.052  0.3865 -1.5973 -0.4765
16058TIP3   OH269588   2.198   3.962  12.311 -0.2279 -0.1200  0.1698
16058TIP3    H169589   2.113   3.919  12.315 -0.2420 -0.2809 -1.2033
16058TIP3    H269590   2.191   4.022  12.236 -0.2417  2.3792  2.0377
16059TIP3   OH269591   0.771   2.658   0.197  0.1489  0.1189 -0.1261
16059TIP3    H169592   0.707   2.600   0.156  0.0142  0.2288 -0.0714
16059TIP3    H269593   0.815   2.702   0.123  0.1010  0.1081 -0.1611
16060TIP3   OH269594   3.621   6.492  17.112 -0.0222  0.4099  0.2006
16060TIP3    H169595   3.570   6.507  17.032  0.7655  1.4930 -0.1185
16060TIP3    H269596   3.616   6.575  17.160 -1.1294 -0.4496  1.6939
16061TIP3   OH269597   2.119   2.197  13.609  1.0559 -0.3531  0.0938
16061TIP3    H169598   2.034   2.160  13.636  0.5574  0.5193 -0.2324
16061TIP3    H269599   2.123   2.182  13.515  1.4107 -0.6727  0.1584
16062TIP3   OH269600   0.593   0.928  12.814 -0.0678 -0.1882 -0.3096
16062TIP3    H169601   0.637   0.844  12.826 -0.9473 -0.9573 -2.1455
16062TIP3    H269602   0.616   0.955  12.725 -1.4856  0.4884 -0.4970
16063TIP3   OH269603   6.370   4.604   4.459  0.6301 -0.2196  0.5044
16063TIP3    H169604   6.437   4.576   4.521  0.5058 -0.2183  0.6387
16063TIP3    H269605   6.328   4.678   4.502  2.6420  1.8950 -0.8683
16064TIP3   OH269606   1.995   0.928  10.880 -0.3352  0.0459  0.1252
16064TIP3    H169607   1.929   0.876  10.925 -0.0023  0.2523  0.8588
16064TIP3    H269608   1.991   0.899  10.789 -2.5989  1.1958 -0.2130
16065TIP3   OH269609   4.251   5.518  17.017  0.0065  0.3532  0.2594
16065TIP3    H169610   4.325   5.459  17.027 -1.8001 -2.2977 -0.9334
16065TIP3    H269611   4.227   5.542  17.107 -0.3288 -2.2975  0.9638
16066TIP3   OH269612   0.976   6.515  11.781  0.4507 -0.1785 -0.1630
16066TIP3    H169613   0.900   6.490  11.730  0.5240 -0.2881 -0.2187
16066TIP3    H269614   1.043   6.536  11.716  0.3774  0.2091 -0.1186
16067TIP3   OH269615   3.403   3.897  14.213  0.4024 -0.0248  0.2986
16067TIP3    H169616   3.344   3.971  14.202  0.6963 -0.1957 -3.6824
16067TIP3    H269617   3.439   3.908  14.302  0.7303  4.8121 -0.1806
16068TIP3   OH269618   2.569   4.791   0.662 -0.4516  0.5559 -0.3501
16068TIP3    H169619   2.650   4.744   0.684 -0.6583  0.1608 -0.4295
16068TIP3    H269620   2.589   4.836   0.580  1.0897  3.8587  1.6322
16069TIP3   OH269621   4.041   3.492  14.791 -0.0925 -0.4038 -0.4307
16069TIP3    H169622   4.087   3.409  14.799  0.8813  0.2046  0.6001
16069TIP3    H269623   4.019   3.516  14.881  0.4346  0.8693 -0.6234
16070TIP3   OH269624   4.752   2.147   1.869  0.6317  0.4608  0.3367
16070TIP3    H169625   4.724   2.131   1.779 -1.1635 -1.7143  1.2018
16070TIP3    H269626   4.847   2.145   1.865  0.5786 -0.5213 -1.3699
16071TIP3   OH269627   2.405   1.430   3.217  0.1449  0.0960 -0.1183
16071TIP3    H169628   2.474   1.493   3.240  0.7875 -0.5374 -0.2684
16071TIP3    H269629   2.397   1.374   3.294  1.0621 -0.9334 -0.7369
16072TIP3   OH269630   3.343   5.709   1.783 -0.8586  0.6199 -0.2662
16072TIP3    H169631   3.270   5.713   1.721 -0.9084  0.8513 -0.1923
16072TIP3    H269632   3.410   5.766   1.745 -0.7252  0.4290 -0.3204
16073TIP3   OH269633   5.554   2.452   3.001 -0.2850 -0.3358 -0.0492
16073TIP3    H169634   5.631   2.456   2.944 -2.6356  1.7082 -3.5069
16073TIP3    H269635   5.576   2.508   3.075  1.2645  0.9919 -1.4198
16074TIP3   OH269636   4.859   1.147  13.262  0.4210 -0.6433 -0.3821
16074TIP3    H169637   4.955   1.151  13.261  0.3896  1.2951  0.8152
16074TIP3    H269638   4.836   1.123  13.172  2.0100 -1.3215 -0.6580
16075TIP3   OH269639   3.338   5.367   1.124 -0.0010 -0.4514 -0.4448
16075TIP3    H169640   3.379   5.363   1.038  1.1814  2.9249 -0.1864
16075TIP3    H269641   3.244   5.362   1.106  0.2511 -0.6059 -1.8393
16076TIP3   OH269642   0.861   3.105  16.532 -0.3278 -0.0555  0.0267
16076TIP3    H169643   0.838   3.033  16.472  0.8214  1.4659 -2.4180
16076TIP3    H269644   0.922   3.067  16.594  0.4864 -1.1526 -1.3938
16077TIP3   OH269645   4.209   6.648   4.746  0.1594 -0.5848  0.3802
16077TIP3    H169646   4.186   6.730   4.703 -0.3763 -1.3517 -0.8558
16077TIP3    H269647   4.259   6.675   4.823  1.5821  0.8385 -0.9640
16078TIP3   OH269648   4.621   0.526   5.349  0.4299  0.2612  0.1035
16078TIP3    H169649   4.562   0.594   5.382  0.7235  0.8598 -0.5716
16078TIP3    H269650   4.658   0.486   5.428  0.2220  0.8598  0.5108
16079TIP3   OH269651   2.907   4.882   1.095  0.0212  0.2082  0.0744
16079TIP3    H169652   2.844   4.859   1.163 -0.1008 -0.0341 -0.1180
16079TIP3    H269653   2.855   4.886   1.014  0.1433  0.6042  0.0124
16080TIP3   OH269654   4.326   3.888  14.466 -0.1873 -0.0063  0.2799
16080TIP3    H169655   4.298   3.816  14.408  0.0016 -0.1068  0.3120
16080TIP3    H269656   4.273   3.963  14.439 -0.9121 -0.3470  0.7357
16081TIP3   OH269657   0.533   1.782   5.038  0.0057  0.1920 -0.5510
16081TIP3    H169658   0.551   1.819   5.125 -2.4798 -1.0535  0.6054
16081TIP3    H269659   0.593   1.708   5.031 -0.0237  0.0663  0.3113
16082TIP3   OH269660   5.971   6.589  15.682 -0.5414  0.7166 -0.2076
16082TIP3    H169661   5.997   6.558  15.595 -2.0152  0.2656 -0.5205
16082TIP3    H269662   5.972   6.684  15.675 -0.8485  0.6798 -0.7761
16083TIP3   OH269663   0.876   4.604  16.300 -0.1718  0.1074  0.1131
16083TIP3    H169664   0.808   4.651  16.251 -2.1013 -1.1653  1.4237
16083TIP3    H269665   0.882   4.519  16.257  0.8859  0.3137 -0.1873
16084TIP3   OH269666   4.937   3.247   2.323 -0.4421  0.1089  0.4070
16084TIP3    H169667   4.985   3.286   2.397 -2.4568  0.8593  1.4056
16084TIP3    H269668   4.852   3.290   2.325 -1.3331 -1.4708 -1.0030
16085TIP3   OH269669   5.102   1.821  11.721 -0.4010  0.5193 -0.0221
16085TIP3    H169670   5.159   1.776  11.659  0.7724  0.4606  1.0570
16085TIP3    H269671   5.048   1.879  11.667  0.3983  0.2786 -1.1077
16086TIP3   OH269672   4.890   5.058   0.774  0.2589 -0.1991 -0.0785
16086TIP3    H169673   4.904   5.091   0.685 -0.8048 -1.3279 -0.6892
16086TIP3    H269674   4.979   5.050   0.810  0.7904 -0.7811 -1.4377
16087TIP3   OH269675   2.941   1.824  16.799  0.1545 -0.3554  0.3312
16087TIP3    H169676   2.912   1.770  16.725  0.5389  0.2715 -0.2814
16087TIP3    H269677   2.889   1.904  16.792 -0.7327 -0.7996  1.4934
16088TIP3   OH269678   1.934   2.849   1.640 -0.1723  0.2136  1.1738
16088TIP3    H169679   1.935   2.879   1.550 -0.4104 -3.1198 -0.0645
16088TIP3    H269680   1.976   2.763   1.638 -1.0837 -0.4233  4.0545
16089TIP3   OH269681   6.259   5.191  13.981 -0.0215 -0.4096  0.3172
16089TIP3    H169682   6.222   5.256  13.922 -0.5162 -1.4089 -0.5029
16089TIP3    H269683   6.344   5.227  14.007  0.5904 -0.3310 -1.6721
16090TIP3   OH269684   0.084   3.441  16.679 -0.3252 -0.4696  0.2203
16090TIP3    H169685   0.133   3.413  16.601  1.6752  2.0718  0.4257
16090TIP3    H269686   0.029   3.513  16.648  1.7823  1.7812  1.3060
16091TIP3   OH269687   0.493   1.344   1.575 -0.1034  0.3645 -0.3614
16091TIP3    H169688   0.457   1.331   1.487  1.7073 -1.3855 -0.9269
16091TIP3    H269689   0.581   1.379   1.560  0.8966 -1.5668  0.6032
16092TIP3   OH269690   1.489   1.698  12.164 -0.5734  0.1042  0.7428
16092TIP3    H169691   1.496   1.722  12.257  0.2546  2.3744  0.1594
16092TIP3    H269692   1.437   1.768  12.125  0.0531 -0.1939 -0.7021
16093TIP3   OH269693   1.445   5.329  15.417  0.2135  0.0217 -0.2410
16093TIP3    H169694   1.540   5.332  15.405  0.5155  0.4657  1.9174
16093TIP3    H269695   1.422   5.237  15.403  0.7585  0.1230 -1.9525
16094TIP3   OH269696   4.611   0.622   1.443 -0.0469 -0.2343 -0.0893
16094TIP3    H169697   4.608   0.707   1.488  2.2890  0.7044 -1.4986
16094TIP3    H269698   4.673   0.570   1.494  0.5000 -0.1384 -0.6367
16095TIP3   OH269699   6.301   1.004  14.417  0.3426  0.1202 -0.3669
16095TIP3    H169700   6.335   1.066  14.481  1.3895  1.1789 -1.8832
16095TIP3    H269701   6.345   1.026  14.335 -1.2155 -0.9307 -1.5707
16096TIP3   OH269702   1.028   2.419   1.251 -0.3949 -0.6347  0.1928
16096TIP3    H169703   1.121   2.426   1.230 -1.1164  2.4911 -2.8580
16096TIP3    H269704   0.994   2.357   1.186 -1.0278  1.6143 -1.7729
16097TIP3   OH269705   5.567   3.804   3.847 -0.4404  1.2105  0.2033
16097TIP3    H169706   5.662   3.794   3.851 -0.5949 -0.3393  0.5842
16097TIP3    H269707   5.547   3.869   3.915  0.2124  0.3612  1.2328
16098TIP3   OH269708   3.532   4.335  11.895 -0.2542 -0.0338  0.0656
16098TIP3    H169709   3.563   4.329  11.805  2.6690 -0.9237  0.9917
16098TIP3    H269710   3.455   4.279  11.898  0.8434 -1.7493 -1.4594
16099TIP3   OH269711   4.510   4.794   3.655  0.4641 -0.6477  0.4734
16099TIP3    H169712   4.525   4.704   3.626 -1.9074 -0.6006 -1.1732
16099TIP3    H269713   4.433   4.788   3.712  0.3685  0.3168  0.4596
16100TIP3   OH269714   3.696   5.807  13.252  0.7558  0.1229  0.0521
16100TIP3    H169715   3.730   5.891  13.285  1.0145  0.6378 -1.4706
16100TIP3    H269716   3.775   5.758  13.227  0.5287  0.0849 -0.5988
16101TIP3   OH269717   6.750   4.510  13.723 -0.2432  0.1106  0.2210
16101TIP3    H169718   6.723   4.540  13.810 -0.0771 -1.7233  0.9476
16101TIP3    H269719   6.839   4.545  13.712  0.3137 -0.8693  1.4455
16102TIP3   OH269720   5.706   5.206   3.571  0.1344  0.1645 -0.1366
16102TIP3    H169721   5.646   5.276   3.598 -0.9084 -0.5487 -0.5250
16102TIP3    H269722   5.717   5.219   3.477 -2.1621 -1.6526 -0.7690
16103TIP3   OH269723   4.847   6.524  15.298  0.4144  0.3144  0.0171
16103TIP3    H169724   4.915   6.474  15.343 -0.0099  1.2354  1.7666
16103TIP3    H269725   4.770   6.468  15.300  0.6635 -0.0541 -0.4815
16104TIP3   OH269726   3.463   3.994   3.468  0.2480 -0.0007 -1.0579
16104TIP3    H169727   3.526   4.006   3.396  2.0395 -1.8417  0.0985
16104TIP3    H269728   3.406   3.923   3.439  0.1971  0.0722 -1.1380
16105TIP3   OH269729   0.027   2.850   3.187 -0.4539  0.1459 -0.3130
16105TIP3    H169730  -0.033   2.837   3.113 -0.4532 -1.3603 -0.0719
16105TIP3    H269731  -0.024   2.827   3.264  0.1214 -0.1858 -0.0190
16106TIP3   OH269732   2.482   0.445   4.908 -0.1231 -0.2665 -0.2458
16106TIP3    H169733   2.498   0.412   4.820 -0.4431  0.8361 -0.7396
16106TIP3    H269734   2.386   0.444   4.917 -0.0670 -1.0262  0.3557
16107TIP3   OH269735   5.413   2.430   0.151 -0.4296 -0.3862 -0.4191
16107TIP3    H169736   5.400   2.524   0.144 -1.8723 -0.5831 -0.7817
16107TIP3    H269737   5.424   2.400   0.061  0.6272 -0.5047 -0.2629
16108TIP3   OH269738   0.822   6.701   0.685 -0.0225  0.1130  0.0795
16108TIP3    H169739   0.773   6.684   0.765 -0.0925 -3.7870 -0.5800
16108TIP3    H269740   0.913   6.707   0.713 -0.2253  0.8964  0.6142
16109TIP3   OH269741   4.140   4.022  15.077  0.5065 -0.0209 -0.4055
16109TIP3    H169742   4.218   4.021  15.021  1.9292 -1.3379  1.5001
16109TIP3    H269743   4.174   4.021  15.166 -1.7108 -0.0742  0.4939
16110TIP3   OH269744   4.015   2.261  15.800  0.8429 -0.0574  0.6895
16110TIP3    H169745   4.093   2.258  15.854  1.8584 -0.5618 -0.7378
16110TIP3    H269746   4.030   2.334  15.739 -0.4653  0.7896  1.3272
16111TIP3   OH269747   1.486   3.129  12.727  0.1377  0.1262 -0.6289
16111TIP3    H169748   1.570   3.084  12.728  0.7113  1.1425  0.2378
16111TIP3    H269749   1.428   3.072  12.677  0.6008 -1.9218  1.0112
16112TIP3   OH269750   1.950   5.280   4.470  0.6275 -0.3294 -0.5660
16112TIP3    H169751   1.885   5.335   4.513  0.3969 -0.4389 -0.7769
16112TIP3    H269752   2.033   5.307   4.510  0.6406  0.8289 -1.3279
16113TIP3   OH269753   0.168   3.047   2.979 -0.1298 -0.2338 -0.5224
16113TIP3    H169754   0.224   3.014   2.909  3.0006 -0.7239  2.0018
16113TIP3    H269755   0.114   2.971   3.004  0.9114 -0.9597 -0.4191
16114TIP3   OH269756   0.953   4.962  14.778 -0.5338 -0.5286 -0.0820
16114TIP3    H169757   1.035   5.012  14.783  0.8867 -2.8220  2.2475
16114TIP3    H269758   0.943   4.941  14.685  1.0852  0.5092 -0.5275
16115TIP3   OH269759   5.562   1.015  13.428  0.2458  0.0078  0.0890
16115TIP3    H169760   5.647   1.059  13.438  1.3830 -2.0849  0.1906
16115TIP3    H269761   5.500   1.074  13.472  1.8002  1.0972  0.9589
16116TIP3   OH269762   6.219   4.094   0.339 -0.3862 -0.0846  0.2136
16116TIP3    H169763   6.183   4.170   0.384 -1.7119 -0.5960  0.0647
16116TIP3    H269764   6.227   4.121   0.248 -1.1845 -0.2201  0.0965
16117TIP3   OH269765   3.772   5.164   4.042  0.0037 -0.1362 -0.0181
16117TIP3    H169766   3.739   5.075   4.053  1.1069 -0.9331 -2.4719
16117TIP3    H269767   3.853   5.167   4.092 -0.6795 -0.0508  1.1262
16118TIP3   OH269768   2.279   0.035   0.532  0.0967  0.1513  0.3705
16118TIP3    H169769   2.196  -0.012   0.529 -0.2672  0.7532  0.7058
16118TIP3    H269770   2.342  -0.023   0.490 -0.5987 -0.1019 -0.3323
16119TIP3   OH269771   3.326   2.257  13.736  0.3871  0.3762  0.4638
16119TIP3    H169772   3.404   2.202  13.723  0.7405  1.4958 -3.7015
16119TIP3    H269773   3.360   2.341  13.765  0.5773  0.3618  0.2854
16120TIP3   OH269774   6.535   0.209  16.779  0.0222 -0.3299  0.5384
16120TIP3    H169775   6.588   0.130  16.777  0.8796  0.2275  0.6890
16120TIP3    H269776   6.505   0.221  16.689  0.9537 -0.1394  0.2346
16121TIP3   OH269777   0.251   1.798   4.633 -0.9149  0.2334 -0.0937
16121TIP3    H169778   0.213   1.710   4.634 -0.6096  0.1045  0.7830
16121TIP3    H269779   0.318   1.796   4.701 -0.1738  0.8288 -0.7875
16122TIP3   OH269780   2.081   0.363   2.954  0.0106  0.0091 -0.0841
16122TIP3    H169781   2.169   0.392   2.980 -0.1158  1.5900 -1.2743
16122TIP3    H269782   2.085   0.355   2.859 -1.3293  0.8577 -0.2445
16123TIP3   OH269783   6.455   5.826   5.634 -0.2153 -0.0152  1.0278
16123TIP3    H169784   6.371   5.840   5.677 -0.0384  2.7985  0.7017
16123TIP3    H269785   6.473   5.910   5.591  1.6224 -1.3324 -0.9477
16124TIP3   OH269786   1.842   6.379   4.871  0.0245  0.0923  0.4597
16124TIP3    H169787   1.865   6.432   4.794 -1.4207  1.6609  1.0496
16124TIP3    H269788   1.860   6.289   4.844 -1.1059  0.5088 -2.0095
16125TIP3   OH269789   3.704   2.271  16.534 -0.0145 -0.0654 -0.0697
16125TIP3    H169790   3.696   2.240  16.444  0.5004  0.4248 -0.2901
16125TIP3    H269791   3.711   2.191  16.586 -1.9238 -0.4171 -0.2793
16126TIP3   OH269792   2.258   1.346   2.998  0.1736 -0.0580 -0.0800
16126TIP3    H169793   2.301   1.412   3.052  1.7323  0.3797 -1.7321
16126TIP3    H269794   2.242   1.273   3.057 -0.7677  1.4278  1.5873
16127TIP3   OH269795   1.698   1.885   3.388  0.1861  0.1306  0.3888
16127TIP3    H169796   1.672   1.829   3.315  2.2932  0.3706 -0.6237
16127TIP3    H269797   1.692   1.827   3.465  1.1291 -1.1809 -0.4633
16128TIP3   OH269798   1.454   1.489   0.035  0.4198  0.0680 -0.1407
16128TIP3    H169799   1.533   1.525   0.074 -0.4100 -0.6081  2.3552
16128TIP3    H269800   1.440   1.406   0.080 -0.8500 -0.6120 -1.6750
16129TIP3   OH269801   6.409   4.878  13.386  0.0821  0.0579  0.6509
16129TIP3    H169802   6.401   4.795  13.341 -0.1157  0.8707 -0.8722
16129TIP3    H269803   6.371   4.863  13.473 -0.5376 -1.2432  0.1680
16130TIP3   OH269804   1.742   4.152   4.883 -0.0893 -0.0614 -0.2937
16130TIP3    H169805   1.697   4.200   4.813  1.4897  3.0863  0.6346
16130TIP3    H269806   1.833   4.147   4.855  0.0105 -1.5597  0.2056
16131TIP3   OH269807   3.669   4.192   1.664 -0.3233  0.5202  0.3598
16131TIP3    H169808   3.616   4.139   1.605  0.8893 -0.9543  0.5288
16131TIP3    H269809   3.642   4.282   1.646  1.2806  0.3879 -3.8067
16132TIP3   OH269810   0.521   2.758   4.267  0.3279 -0.2364 -0.4215
16132TIP3    H169811   0.507   2.836   4.214  1.5994  1.0649  1.0592
16132TIP3    H269812   0.602   2.720   4.234  2.1694  1.6216  1.6307
16133TIP3   OH269813   2.709   3.115  16.881 -0.2234  0.3081 -0.0555
16133TIP3    H169814   2.719   3.067  16.964 -2.4336 -0.3679 -0.1276
16133TIP3    H269815   2.662   3.194  16.904 -1.9541 -0.4590 -0.7941
16134TIP3   OH269816   1.732   2.550   2.579  0.1565 -0.9048 -0.1020
16134TIP3    H169817   1.678   2.542   2.657  0.1613  0.7076  0.1122
16134TIP3    H269818   1.757   2.461   2.557  1.0167 -1.3454  2.3547
16135TIP3   OH269819   4.765   4.386   5.713  0.1242 -0.3604 -0.0590
16135TIP3    H169820   4.811   4.305   5.738  1.3546  0.8569  1.8316
16135TIP3    H269821   4.739   4.371   5.622  1.7946 -2.2261 -0.3031
16136TIP3   OH269822   3.919   0.419   5.301 -0.0657  0.4787  0.5637
16136TIP3    H169823   3.975   0.353   5.341 -0.8949 -0.4882  0.1863
16136TIP3    H269824   3.917   0.492   5.363  1.2574  0.3586  0.7606
16137TIP3   OH269825   1.072   0.867   4.953  0.0225 -0.0397 -0.6295
16137TIP3    H169826   1.018   0.946   4.954  3.1994  2.3219 -0.2630
16137TIP3    H269827   1.023   0.804   5.006 -2.5046  1.7380 -0.6586
16138TIP3   OH269828   2.100   1.967   5.081  0.0999  0.5796 -0.2381
16138TIP3    H169829   2.143   1.889   5.046 -0.7562  0.3420 -0.7973
16138TIP3    H269830   2.009   1.957   5.056  0.2100  2.4701 -1.6599
16139TIP3   OH269831   1.484   3.376   3.355  0.4715 -0.0345  0.3105
16139TIP3    H169832   1.479   3.339   3.267 -0.1996  0.8731 -0.0479
16139TIP3    H269833   1.415   3.332   3.404 -0.4802  0.8823 -0.1786
16140TIP3   OH269834   3.728   6.521  16.357  0.2776  0.0750 -0.4216
16140TIP3    H169835   3.816   6.488  16.370  0.0163 -0.6049 -0.3478
16140TIP3    H269836   3.738   6.616  16.354  1.0574 -0.0078 -0.7610
16141TIP3   OH269837   2.377   1.866   5.515 -0.4906  0.2441 -0.2721
16141TIP3    H169838   2.380   1.947   5.463  0.0380  0.8079  0.5966
16141TIP3    H269839   2.405   1.894   5.603 -3.4259 -0.2403  0.9133
16142TIP3   OH269840   3.266   6.360  16.811  0.1569 -0.1893 -0.3994
16142TIP3    H169841   3.306   6.325  16.890 -0.9183 -0.3905  0.0626
16142TIP3    H269842   3.221   6.286  16.771 -0.9000  0.3275 -0.1949
16143TIP3   OH269843   2.444   1.186  13.270 -0.1647  0.4367  0.0316
16143TIP3    H169844   2.393   1.265  13.254  1.3396  1.0774 -1.9354
16143TIP3    H269845   2.465   1.189  13.364 -2.4666  0.8591  0.5911
16144TIP3   OH269846   2.412   1.696  17.065  0.1420 -0.1271 -0.1736
16144TIP3    H169847   2.394   1.603  17.052 -1.2065 -0.0017  0.5691
16144TIP3    H269848   2.395   1.710  17.159  0.1206  0.8965 -0.3232
16145TIP3   OH269849   3.253   5.220   4.758  0.2117 -0.4744 -0.0478
16145TIP3    H169850   3.324   5.263   4.805 -0.4178 -0.6608  1.1132
16145TIP3    H269851   3.178   5.226   4.817 -0.3687 -1.5530 -0.6373
16146TIP3   OH269852   0.456   2.202   4.090  0.4658 -0.6701  0.3068
16146TIP3    H169853   0.475   2.284   4.135  0.1865 -1.1507  1.3554
16146TIP3    H269854   0.393   2.158   4.147 -0.7838 -0.8153 -1.1510
16147TIP3   OH269855   6.666   1.809  11.158  0.2608  0.1167  0.2822
16147TIP3    H169856   6.731   1.776  11.096  0.8373 -0.2053  1.0385
16147TIP3    H269857   6.632   1.889  11.117  0.4629 -0.2097 -0.5411
16148TIP3   OH269858   2.921   5.436   2.763 -0.1167 -0.4919  0.3333
16148TIP3    H169859   2.889   5.512   2.812  0.8466  0.9482 -1.1305
16148TIP3    H269860   3.004   5.414   2.806 -0.2468 -0.5199  0.5722
16149TIP3   OH269861   0.845   4.914  12.329 -0.0609 -0.3718 -0.4039
16149TIP3    H169862   0.876   4.988  12.277 -1.6366  1.1747  0.7109
16149TIP3    H269863   0.893   4.839  12.296  4.0779  1.5892  0.5470
16150TIP3   OH269864   4.584   0.435  12.485 -0.4010  0.0346  0.2435
16150TIP3    H169865   4.677   0.420  12.504 -0.2816 -1.0670 -1.0716
16150TIP3    H269866   4.547   0.348  12.472 -1.1163  0.5376 -1.4393
16151TIP3   OH269867   4.198   5.016   4.057 -0.2588 -0.3665 -0.3996
16151TIP3    H169868   4.205   5.111   4.050 -2.5074 -0.1101  0.0861
16151TIP3    H269869   4.276   4.990   4.105 -1.2143  1.6776  2.5609
16152TIP3   OH269870   3.036   5.266   2.541  0.3755 -0.2665 -0.1417
16152TIP3    H169871   3.031   5.329   2.613  0.6040 -0.1995 -0.1847
16152TIP3    H269872   3.018   5.318   2.463 -1.2075 -0.5682 -0.0271
16153TIP3   OH269873   3.812   4.839   1.050 -0.0366  0.1900  0.8560
16153TIP3    H169874   3.821   4.882   0.965  0.4846 -0.3045  0.6561
16153TIP3    H269875   3.863   4.894   1.110 -1.3405  1.1784  1.0907
16154TIP3   OH269876   0.911   0.230  10.539  0.0713  0.1179 -0.3147
16154TIP3    H169877   0.957   0.150  10.516  2.3224  1.9013 -2.5696
16154TIP3    H269878   0.839   0.236  10.476  1.1180  0.7811 -1.5021
16155TIP3   OH269879   6.614   1.190   3.881 -0.2137 -0.0267 -0.0077
16155TIP3    H169880   6.671   1.266   3.889  0.7069 -0.8730  2.6164
16155TIP3    H269881   6.656   1.123   3.936 -1.8333 -1.9082 -0.9274
16156TIP3   OH269882   2.657   5.691  11.844 -0.2924  0.0595 -0.5794
16156TIP3    H169883   2.616   5.762  11.893 -1.1024 -0.3202 -0.6942
16156TIP3    H269884   2.608   5.686  11.762  0.5606  0.1797 -1.1064
16157TIP3   OH269885   5.090   1.321   1.299 -0.0512 -0.4626  0.7843
16157TIP3    H169886   5.057   1.276   1.376  1.8460 -2.3100  0.6095
16157TIP3    H269887   5.163   1.374   1.331 -1.8728  2.1698  0.8828
16158TIP3   OH269888   6.759   4.380   2.096  0.6636 -0.3300 -0.6698
16158TIP3    H169889   6.680   4.403   2.145  1.2485 -0.5971  0.4491
16158TIP3    H269890   6.817   4.456   2.107  0.8565 -0.4517 -0.8390
16159TIP3   OH269891   1.010   2.432   5.110 -0.3689 -0.0111 -0.3163
16159TIP3    H169892   0.958   2.450   5.189 -0.6908 -1.0767 -0.2701
16159TIP3    H269893   1.100   2.453   5.135 -0.3793 -0.8689  0.5401
16160TIP3   OH269894   5.610   4.502   3.160  0.9485  0.0714  0.3128
16160TIP3    H169895   5.702   4.528   3.156  0.5056  1.6982 -0.1451
16160TIP3    H269896   5.585   4.486   3.069  0.3214  1.5161  0.1910
16161TIP3   OH269897   5.819   1.863  16.388  0.5121 -0.6257  0.7226
16161TIP3    H169898   5.844   1.951  16.358 -1.3706 -0.2247  0.1973
16161TIP3    H269899   5.832   1.807  16.311 -1.8611 -0.0650 -0.1764
16162TIP3   OH269900   4.742   5.905   0.509 -0.1195 -0.3139  0.1790
16162TIP3    H169901   4.831   5.922   0.540 -0.5699  1.8163  0.4383
16162TIP3    H269902   4.734   5.953   0.427 -1.1657 -0.0466  0.4111
16163TIP3   OH269903   4.446   5.071  13.825  0.3551 -0.1571  0.8859
16163TIP3    H169904   4.400   4.988  13.834  0.7122 -0.3810  0.6197
16163TIP3    H269905   4.441   5.111  13.912  0.5142 -0.6197  1.1039
16164TIP3   OH269906   5.805   4.019  17.029  0.4865 -0.0506 -0.5222
16164TIP3    H169907   5.783   3.974  16.948 -1.7910  0.5249 -0.3029
16164TIP3    H269908   5.860   4.092  17.002  0.1582 -0.1433 -1.4823
16165TIP3   OH269909   1.432   0.201   1.300 -0.3160  0.2555 -0.2922
16165TIP3    H169910   1.391   0.266   1.244  1.2483  1.1895 -0.4202
16165TIP3    H269911   1.444   0.125   1.244 -0.7066  0.4205 -0.6038
16166TIP3   OH269912   3.066   6.301   4.359  0.6928  0.2269 -0.6826
16166TIP3    H169913   3.033   6.272   4.274 -0.0792  0.9177 -0.6339
16166TIP3    H269914   3.156   6.326   4.343  0.6357  0.0838 -1.2349
16167TIP3   OH269915   5.290   0.423  12.076 -0.3521  0.1989  0.0704
16167TIP3    H169916   5.237   0.439  12.154  0.8647 -1.8345  1.4326
16167TIP3    H269917   5.376   0.461  12.097  0.2464 -1.1277  0.1556
16168TIP3   OH269918   3.763   2.863  14.595  0.3868 -0.2026  0.4166
16168TIP3    H169919   3.730   2.789  14.545  2.0155 -2.0771  1.9703
16168TIP3    H269920   3.837   2.896  14.543 -0.5937  0.6598 -0.4792
16169TIP3   OH269921   2.796   3.963  17.155  0.0562 -0.5403 -0.2945
16169TIP3    H169922   2.849   3.915  17.091 -0.5930  1.5146 -2.5416
16169TIP3    H269923   2.714   3.914  17.160  0.5114 -1.3044 -0.1981
16170TIP3   OH269924   5.324   3.679   6.751  0.5685 -0.1120 -0.0028
16170TIP3    H169925   5.401   3.651   6.700  0.9682  1.5927 -0.4228
16170TIP3    H269926   5.250   3.648   6.700  0.9714 -1.0917 -0.0128
16171TIP3   OH269927   1.661   3.765   0.988 -0.2592  0.1350  0.5724
16171TIP3    H169928   1.653   3.852   1.028 -0.4144 -0.3660  1.6635
16171TIP3    H269929   1.581   3.754   0.938 -0.8899  0.0650  1.5742
16172TIP3   OH269930   2.292   6.239  13.530 -0.1416 -0.2637  0.3284
16172TIP3    H169931   2.223   6.207  13.472  0.6521 -4.4330  1.3538
16172TIP3    H269932   2.368   6.250  13.473 -0.8602  1.7358 -0.3369
16173TIP3   OH269933   0.181   0.629  11.844  0.8644  0.4095  0.0039
16173TIP3    H169934   0.105   0.656  11.895  1.0833  1.7396 -0.3563
16173TIP3    H269935   0.246   0.604  11.910 -0.2414 -1.9080  0.3186
16174TIP3   OH269936   1.123   6.504  15.147 -0.2873 -0.4203  0.2456
16174TIP3    H169937   1.126   6.537  15.057 -0.1895 -1.6752 -0.2244
16174TIP3    H269938   1.215   6.501  15.175 -0.4023  1.3922  0.9480
16175TIP3   OH269939   1.611   2.980  12.017 -0.1384 -0.2825  0.4016
16175TIP3    H169940   1.702   2.972  12.045 -0.0233 -0.7603 -0.0856
16175TIP3    H269941   1.570   3.038  12.082  0.1118 -1.3328  1.5191
16176TIP3   OH269942   5.378   3.883   1.566  0.1490 -0.3577 -0.2540
16176TIP3    H169943   5.301   3.850   1.522 -1.1832  1.0420  0.8983
16176TIP3    H269944   5.389   3.972   1.531 -0.3803  0.4291  1.4602
16177TIP3   OH269945   1.411   5.167   2.625  0.3141 -0.2328  0.5814
16177TIP3    H169946   1.498   5.202   2.604 -0.4375  1.8669  0.7373
16177TIP3    H269947   1.375   5.229   2.689 -2.1990  0.2871 -1.1903
16178TIP3   OH269948   3.172   0.893   3.856  0.1638 -0.1627 -0.5470
16178TIP3    H169949   3.235   0.945   3.807 -0.0940 -0.3843 -1.1223
16178TIP3    H269950   3.088   0.935   3.838  0.1880  0.3757  0.5375
16179TIP3   OH269951   4.412   3.500   4.503 -0.2751  0.3514 -0.4547
16179TIP3    H169952   4.498   3.539   4.488 -0.5996  1.2202 -0.1393
16179TIP3    H269953   4.429   3.406   4.509  1.0110  0.6519  1.8606
16180TIP3   OH269954   3.247   0.809  13.621  0.3142 -0.0073 -0.1706
16180TIP3    H169955   3.200   0.813  13.704  0.4704 -1.0199 -0.0210
16180TIP3    H269956   3.211   0.882  13.569 -2.6565 -1.6855 -0.7047
16181TIP3   OH269957   4.844   1.711   6.373  0.5097  0.0826  0.0731
16181TIP3    H169958   4.865   1.631   6.324  1.1386 -0.7020  1.5616
16181TIP3    H269959   4.896   1.704   6.453  2.3132  3.0526 -0.6943
16182TIP3   OH269960   0.006   3.705   0.250  0.0193 -0.3189  0.1981
16182TIP3    H169961   0.027   3.613   0.231 -2.3128 -0.9036  0.1636
16182TIP3    H269962   0.025   3.751   0.169  0.7365 -0.8610  0.0481
16183TIP3   OH269963   4.865   1.289   0.766  0.1114  0.2431 -0.4303
16183TIP3    H169964   4.863   1.251   0.854 -0.0565 -2.0813 -1.3617
16183TIP3    H269965   4.942   1.345   0.766  0.2837  0.0571  1.1020
16184TIP3   OH269966   5.823   2.319  12.206  0.2936  0.0065  0.3544
16184TIP3    H169967   5.861   2.361  12.129  0.7082  0.2106  0.6619
16184TIP3    H269968   5.766   2.251  12.171  2.9599 -2.1720 -0.1813
16185TIP3   OH269969   5.563   6.245  13.151 -0.2979  0.4799 -0.0259
16185TIP3    H169970   5.484   6.261  13.203 -0.8859 -1.1464 -0.3631
16185TIP3    H269971   5.550   6.296  13.071 -0.2653  1.4740  0.5896
16186TIP3   OH269972   4.167   6.730  13.121 -0.0853  0.0586 -0.0055
16186TIP3    H169973   4.186   6.782  13.200  0.3996 -1.5696  1.0065
16186TIP3    H269974   4.078   6.699  13.134 -0.6951  1.2715 -1.0214
16187TIP3   OH269975   4.844   3.615  14.857  0.0390  0.0973 -0.0995
16187TIP3    H169976   4.804   3.597  14.942 -1.2777  1.2513 -0.4266
16187TIP3    H269977   4.770   3.630  14.798  0.9235  1.6616 -0.8910
16188TIP3   OH269978   5.418   6.529   3.991  0.1128  0.3650 -0.1799
16188TIP3    H169979   5.341   6.491   4.032 -0.0198  0.4112 -0.3848
16188TIP3    H269980   5.486   6.463   4.002 -0.0925  0.1049 -0.4517
16189TIP3   OH269981   4.979   0.479   0.580 -0.3502 -0.1269  0.1532
16189TIP3    H169982   5.062   0.447   0.615 -0.6752  0.1871  1.2693
16189TIP3    H269983   4.925   0.496   0.658 -2.1755 -2.1620 -0.5800
16190TIP3   OH269984   3.879   1.876  12.838  0.4603 -0.2576  0.5218
16190TIP3    H169985   3.942   1.809  12.809 -0.5684 -0.5773 -1.1584
16190TIP3    H269986   3.804   1.826  12.870  0.7656  0.1178  1.8473
16191TIP3   OH269987   0.630   3.964  10.441  0.0189  1.0426  0.5892
16191TIP3    H169988   0.646   3.903  10.513  1.2544  0.7157  0.0663
16191TIP3    H269989   0.622   4.049  10.483 -1.2710  0.5948  1.2879
16192TIP3   OH269990   1.817   2.604  12.849  0.1076 -0.4230  0.7808
16192TIP3    H169991   1.788   2.671  12.911 -0.4147  0.9263 -0.8224
16192TIP3    H269992   1.908   2.587  12.872 -0.7370 -1.9188  3.5161
16193TIP3   OH269993   0.824   2.920   4.030  0.5837  0.6804 -0.0430
16193TIP3    H169994   0.820   2.976   3.952  0.8608  0.1608 -0.4425
16193TIP3    H269995   0.912   2.934   4.065  0.3680  1.1097  0.3268
16194TIP3   OH269996   3.177   5.504  11.690  0.4817 -0.2844 -0.2098
16194TIP3    H169997   3.207   5.491  11.780  0.2611 -0.7839 -0.2082
16194TIP3    H269998   3.096   5.554  11.699  0.8429  0.3095 -0.1734
16195TIP3   OH269999   5.750   1.488   3.321  0.1993 -0.0826  0.2174
16195TIP3    H170000   5.754   1.446   3.407 -3.3264  0.0474  0.5820
16195TIP3    H270001   5.666   1.534   3.320  0.5517  0.7484 -2.9462
16196TIP3   OH270002   0.206   4.069  11.902  0.3014  0.6158  0.5825
16196TIP3    H170003   0.248   4.147  11.937  2.9774  0.4347 -1.8712
16196TIP3    H270004   0.205   4.083  11.807 -1.1748 -1.3932  0.2401
16197TIP3   OH270005   4.641   5.373  11.303 -0.3089  0.3252  0.3540
16197TIP3    H170006   4.632   5.464  11.275 -3.4593 -0.0140 -0.2055
16197TIP3    H270007   4.685   5.329  11.230 -0.8683  1.0152 -0.4215
16198TIP3   OH270008   1.511   2.183   1.770  0.6026 -0.6790  0.4824
16198TIP3    H170009   1.438   2.240   1.793 -0.5464 -1.7300 -0.3992
16198TIP3    H270010   1.519   2.123   1.844  1.5114  0.2937  1.2024
16199TIP3   OH270011   4.031   5.946   2.566  0.0820  0.0812 -0.0830
16199TIP3    H170012   4.061   5.857   2.584 -1.4053 -0.8087 -1.6976
16199TIP3    H270013   4.081   5.974   2.490  1.4914  1.1878  1.1981
16200TIP3   OH270014   2.172   5.661  14.982 -0.0411 -0.1569  0.4102
16200TIP3    H170015   2.209   5.747  15.003  1.2691 -0.6411  0.1684
16200TIP3    H270016   2.100   5.650  15.043  0.9862  0.3072  1.7439
16201TIP3   OH270017   1.284   3.136   0.815  0.1492  0.9524  0.2616
16201TIP3    H170018   1.349   3.204   0.796  0.8617  0.4512  0.8312
16201TIP3    H270019   1.200   3.182   0.814  0.5296  1.6536 -0.2778
16202TIP3   OH270020   1.555   2.550   4.116  0.2360 -0.5725 -0.1040
16202TIP3    H170021   1.560   2.645   4.105 -0.0840 -0.3436  1.5076
16202TIP3    H270022   1.618   2.515   4.053  1.0900  0.7600 -0.0255
16203TIP3   OH270023   0.343   0.352  12.760 -0.1191 -0.0940 -0.7014
16203TIP3    H170024   0.432   0.385  12.769 -0.2757 -0.0091  0.8171
16203TIP3    H270025   0.290   0.410  12.814 -0.6948 -1.5797  0.4175
16204TIP3   OH270026   1.485   3.708  13.519  0.2758  0.1667 -0.2602
16204TIP3    H170027   1.397   3.677  13.538 -0.6686  2.5977 -0.3078
16204TIP3    H270028   1.535   3.687  13.598 -0.2946 -1.2615 -0.2465
16205TIP3   OH270029   4.428   3.791   3.480 -0.4000  0.1596 -0.4991
16205TIP3    H170030   4.456   3.833   3.561  2.1450  0.0665 -1.2464
16205TIP3    H270031   4.438   3.858   3.413 -1.0490 -0.2177 -0.9907
16206TIP3   OH270032   1.021   0.570  12.869  0.0803  0.2604 -0.0225
16206TIP3    H170033   0.981   0.585  12.784 -0.4294 -0.7575  0.0202
16206TIP3    H270034   0.963   0.507  12.912  1.8395 -1.4909 -0.0634
16207TIP3   OH270035   1.843   4.261  11.816 -0.1493 -0.3990  0.4817
16207TIP3    H170036   1.938   4.267  11.803 -0.0989 -2.4485 -0.4453
16207TIP3    H270037   1.806   4.316  11.747  0.3222  0.5871  0.9805
16208TIP3   OH270038   0.295   4.443  11.330  0.7332  0.1410 -0.0578
16208TIP3    H170039   0.262   4.528  11.299 -1.7699 -0.9484 -0.5841
16208TIP3    H270040   0.321   4.460  11.421 -0.1422  1.3745 -0.0080
16209TIP3   OH270041   2.650   2.946  12.396  0.0951 -0.2903 -0.0708
16209TIP3    H170042   2.575   2.886  12.395  1.2883 -1.8544 -0.5831
16209TIP3    H270043   2.617   3.027  12.359 -1.4173 -0.8324  0.0146
16210TIP3   OH270044   4.128   0.796   5.053  0.1431 -0.6804  0.1847
16210TIP3    H170045   4.194   0.759   5.112 -0.0638 -0.3842  0.6077
16210TIP3    H270046   4.058   0.732   5.051 -0.0612 -0.4758  0.6428
16211TIP3   OH270047   4.395   0.081   0.830 -0.4419 -0.4563  0.6854
16211TIP3    H170048   4.335   0.129   0.886 -0.8076 -0.0823 -0.0189
16211TIP3    H270049   4.469   0.141   0.818 -0.5749 -0.3479  0.3930
16212TIP3   OH270050   4.262   0.074  13.356 -0.0967  0.6575 -0.0768
16212TIP3    H170051   4.241   0.003  13.416  0.4897  1.2713  0.8634
16212TIP3    H270052   4.240   0.154  13.404 -1.0333  1.1342 -1.2251
16213TIP3   OH270053   1.586   4.521  16.933  0.2960  0.4724 -0.2998
16213TIP3    H170054   1.604   4.615  16.934  0.2161  0.4864 -0.2234
16213TIP3    H270055   1.634   4.489  16.856  2.1026  0.2357  0.8558
16214TIP3   OH270056   2.618   1.522  15.129 -0.4328 -0.6110 -0.0785
16214TIP3    H170057   2.621   1.427  15.116 -3.5845 -0.6108 -1.9324
16214TIP3    H270058   2.620   1.558  15.040  0.6487  1.1188  0.5864
16215TIP3   OH270059   0.581   4.020   2.563  0.4878 -0.4358  0.1132
16215TIP3    H170060   0.640   4.064   2.624 -1.4322 -0.7629  2.3492
16215TIP3    H270061   0.499   4.068   2.570 -0.8155 -2.5593  0.4931
16216TIP3   OH270062   6.124   2.623  13.998 -0.6591  0.5430 -0.2300
16216TIP3    H170063   6.047   2.625  14.055 -0.7409 -0.8962 -0.2455
16216TIP3    H270064   6.168   2.706  14.014 -1.9513  1.1849  0.1442
16217TIP3   OH270065   4.996   3.285   6.016  1.0015  0.3639  0.1729
16217TIP3    H170066   4.995   3.368   6.064 -0.7456  0.2741  0.3836
16217TIP3    H270067   4.938   3.228   6.067  0.0257 -0.1026 -1.4091
16218TIP3   OH270068   4.310   2.822  12.262  0.2728 -0.5094  0.0061
16218TIP3    H170069   4.221   2.854  12.268  0.2539 -0.7606  1.2575
16218TIP3    H270070   4.360   2.876  12.323  0.8879 -0.6830 -0.3294
16219TIP3   OH270071   3.517   2.370   7.021  0.4347  0.1804  0.4377
16219TIP3    H170072   3.430   2.398   6.993  0.7455  0.3284 -0.3956
16219TIP3    H270073   3.572   2.447   7.008  0.7994 -0.0786  0.4463
16220TIP3   OH270074   1.799   0.483   2.704 -0.3914 -0.2625  0.2207
16220TIP3    H170075   1.789   0.557   2.643 -1.8959 -0.3048  0.3858
16220TIP3    H270076   1.870   0.510   2.763 -3.0313  2.6592  2.4248
16221TIP3   OH270077   1.877   5.109  16.218  0.4487  0.0902 -0.6034
16221TIP3    H170078   1.946   5.159  16.260  0.2049  1.6300 -1.9359
16221TIP3    H270079   1.819   5.084  16.289  0.1533  2.4287  0.0647
16222TIP3   OH270080   2.376   2.206   6.235  0.0125  0.1084 -0.0975
16222TIP3    H170081   2.364   2.119   6.274  0.1513 -0.2770 -0.8988
16222TIP3    H270082   2.368   2.266   6.309 -3.8562 -0.2772 -0.0118
16223TIP3   OH270083   1.973   5.637  12.063  0.7388  0.2240  0.6149
16223TIP3    H170084   2.010   5.551  12.085  1.2782  0.2120 -0.2981
16223TIP3    H270085   1.890   5.640  12.110  0.8375 -0.6951  0.8615
16224TIP3   OH270086   2.692   6.653  11.892  0.1282 -0.1121 -0.0212
16224TIP3    H170087   2.656   6.602  11.964  0.7617  0.3601  0.6480
16224TIP3    H270088   2.686   6.744  11.921 -1.3591  0.2615 -1.3681
16225TIP3   OH270089   5.561   5.798   1.234 -0.3488 -0.4190  0.3112
16225TIP3    H170090   5.588   5.766   1.320  1.5908 -2.4350 -0.9328
16225TIP3    H270091   5.466   5.783   1.232 -0.6240  0.7427  2.4643
16226TIP3   OH270092   5.381   3.903  10.940 -0.5428 -0.1689 -0.6471
16226TIP3    H170093   5.302   3.923  10.890 -2.0781 -2.6972  0.5400
16226TIP3    H270094   5.350   3.847  11.012  1.7031  2.1955  2.4262
16227TIP3   OH270095   0.483   2.473   6.188 -0.4795 -0.2084  0.4022
16227TIP3    H170096   0.526   2.540   6.241  1.2197 -0.4705 -0.5673
16227TIP3    H270097   0.462   2.403   6.250 -0.2805  0.3049  1.0592
16228TIP3   OH270098   4.697   3.254  16.802  0.0010  0.0009 -0.3071
16228TIP3    H170099   4.620   3.206  16.770 -0.6751  0.7797  0.1067
16228TIP3    H270100   4.661   3.334  16.842  1.1884  2.9841 -4.4618
16229TIP3   OH270101   0.150   2.845   0.553  0.2657  0.5043  0.2778
16229TIP3    H170102   0.125   2.928   0.513 -1.1040  0.6507  1.3882
16229TIP3    H270103   0.196   2.798   0.483 -0.1875  1.6096 -0.7982
16230TIP3   OH270104   4.452   2.923   1.008 -0.1551 -0.2064  0.0166
16230TIP3    H170105   4.543   2.902   0.988 -0.5259 -0.1882 -1.9009
16230TIP3    H270106   4.452   3.018   1.025 -0.0785  0.1770 -1.9353
16231TIP3   OH270107   0.454   1.318   0.056  0.2940  0.1932 -0.0090
16231TIP3    H170108   0.464   1.394  -0.002 -0.1088  0.2616  0.0100
16231TIP3    H270109   0.370   1.279   0.031  0.1265  0.2108  0.5151
16232TIP3   OH270110   6.047   0.916  14.414 -0.0917 -0.3897  0.7426
16232TIP3    H170111   6.038   0.828  14.452 -0.1349  0.1314  1.9731
16232TIP3    H270112   6.141   0.934  14.419 -0.2506  0.1869  1.7892
16233TIP3   OH270113   2.715   1.685   5.761 -0.9255  0.4805  0.0481
16233TIP3    H170114   2.625   1.658   5.775 -0.6302 -0.0358  1.0611
16233TIP3    H270115   2.746   1.712   5.848  0.4764 -1.2253  0.1403
16234TIP3   OH270116   3.243   0.470   4.703 -0.0940  1.0713  0.0476
16234TIP3    H170117   3.157   0.443   4.735  0.2087  0.3019  0.2101
16234TIP3    H270118   3.286   0.389   4.676  1.1707  1.2530  1.3721
16235TIP3   OH270119   4.924   1.424  12.406 -0.4596 -0.2073 -0.4304
16235TIP3    H170120   4.954   1.506  12.445 -1.3000 -0.6123  1.1740
16235TIP3    H270121   4.844   1.448  12.359 -0.3537  0.0008 -0.5077
16236TIP3   OH270122   2.021   2.455  17.135  0.3412 -0.3092 -0.6465
16236TIP3    H170123   2.003   2.531  17.080  1.0517 -0.0915 -0.5913
16236TIP3    H270124   2.090   2.484  17.194 -0.4727 -0.5075  0.4339
16237TIP3   OH270125   6.691   2.811  16.794 -0.9738 -0.0476 -0.0279
16237TIP3    H170126   6.749   2.854  16.856 -1.3559  1.3117 -0.5770
16237TIP3    H270127   6.749   2.764  16.734 -0.3300  1.9491 -1.0577
16238TIP3   OH270128   2.954   1.255  13.093 -0.2571  0.2943 -0.1717
16238TIP3    H170129   2.912   1.170  13.078  0.8165 -0.5227  1.1837
16238TIP3    H270130   2.882   1.318  13.091 -1.1314 -0.6977 -0.8188
16239TIP3   OH270131   2.036   4.468   3.006 -0.2881  0.4005 -0.0250
16239TIP3    H170132   2.090   4.537   2.968 -0.3339  1.7707  2.1909
16239TIP3    H270133   2.099   4.401   3.033 -0.1219  0.1194 -1.0725
16240TIP3   OH270134   2.328   0.184  13.820  0.2509 -0.2312  0.1170
16240TIP3    H170135   2.318   0.249  13.889  0.6572 -3.0104  3.0044
16240TIP3    H270136   2.421   0.164  13.818 -0.0446 -1.7267  0.3035
16241TIP3   OH270137   5.199   3.123  15.311 -0.8594 -0.2324 -0.4184
16241TIP3    H170138   5.272   3.171  15.350  1.0970 -0.3007 -3.6625
16241TIP3    H270139   5.138   3.191  15.282 -2.4056 -0.1820  2.5065
16242TIP3   OH270140   0.177   0.365  13.751  0.1126 -0.4281 -0.9134
16242TIP3    H170141   0.242   0.404  13.810 -0.5871 -1.7747  0.8312
16242TIP3    H270142   0.151   0.284  13.794 -2.4503 -0.1352 -1.7212
16243TIP3   OH270143   4.665   2.174   3.889  0.0762  0.0840  0.1629
16243TIP3    H170144   4.653   2.257   3.935  3.0377  0.7921 -0.1206
16243TIP3    H270145   4.700   2.198   3.804 -1.1385 -1.4154 -0.8254
16244TIP3   OH270146   0.036   5.459  12.420  0.1257  0.3710 -0.2931
16244TIP3    H170147   0.003   5.532  12.473  0.1399  1.5516 -1.8389
16244TIP3    H270148   0.112   5.495  12.375 -1.1703  0.1507 -2.8063
16245TIP3   OH270149   4.359   5.974  13.632 -0.1265  0.1753  0.3225
16245TIP3    H170150   4.343   5.970  13.538  0.3401  1.1088  0.1860
16245TIP3    H270151   4.275   6.000  13.670 -0.4848 -0.8301  0.2386
16246TIP3   OH270152   4.940   2.216  15.572  0.9013  0.1776  0.3874
16246TIP3    H170153   4.940   2.311  15.560 -1.6420  0.5881  2.5943
16246TIP3    H270154   5.007   2.200  15.638 -0.2416  0.8453  1.7792
16247TIP3   OH270155   6.387   4.840  15.899  0.2063  0.1242  0.2380
16247TIP3    H170156   6.468   4.883  15.872  0.6296 -0.2755  0.8464
16247TIP3    H270157   6.320   4.875  15.840  1.0957 -0.7121 -1.3029
16248TIP3   OH270158   3.468   0.427   2.811  0.0994 -0.6563  0.7406
16248TIP3    H170159   3.425   0.500   2.856 -1.0056 -1.6160  1.2824
16248TIP3    H270160   3.553   0.462   2.785 -0.5065  0.9012  0.7670
16249TIP3   OH270161   6.426   2.289  16.729 -0.1040 -0.0614  0.0385
16249TIP3    H170162   6.379   2.351  16.673  1.2607  1.3901  0.4192
16249TIP3    H270163   6.370   2.281  16.807 -0.0830  1.0926  0.1931
16250TIP3   OH270164   0.595   2.939  14.893  0.3351  0.4454  0.1314
16250TIP3    H170165   0.572   3.024  14.855  2.0516  0.2056 -1.6005
16250TIP3    H270166   0.513   2.905  14.929 -0.5718  2.3984  0.0146
16251TIP3   OH270167   4.711   0.775  10.505 -0.3697 -0.2386 -0.1140
16251TIP3    H170168   4.617   0.791  10.516 -0.4250 -2.0056  3.9247
16251TIP3    H270169   4.752   0.835  10.568  1.3432  0.7881 -2.0931
16252TIP3   OH270170   2.490   1.620   5.527 -0.3155  0.0668 -0.1748
16252TIP3    H170171   2.457   1.552   5.585 -0.0518  0.3709  0.3459
16252TIP3    H270172   2.415   1.678   5.512 -0.8498 -0.9248 -1.5241
16253TIP3   OH270173   5.166   5.217  17.201  0.3129  0.6241  0.1675
16253TIP3    H170174   5.083   5.204  17.247 -0.2483 -0.3424 -1.0772
16253TIP3    H270175   5.178   5.137  17.149  2.8003  0.0404  1.4676
16254TIP3   OH270176   6.434   6.690   3.371  0.2406  0.0666 -0.2996
16254TIP3    H170177   6.342   6.680   3.394  0.5026 -1.3885  0.2430
16254TIP3    H270178   6.475   6.608   3.400  1.6600  0.5880 -0.7408
16255TIP3   OH270179   5.086   4.487   0.370 -0.0291 -0.0031  0.4311
16255TIP3    H170180   5.122   4.402   0.396  3.0205  0.2455 -2.3280
16255TIP3    H270181   5.010   4.466   0.316  1.5322 -1.1700 -1.4385
16256TIP3   OH270182   0.142   1.379   4.916 -0.2068  0.5634 -0.4054
16256TIP3    H170183   0.073   1.338   4.966  0.3641 -0.8172 -0.7120
16256TIP3    H270184   0.141   1.471   4.943  0.8474 -0.3132  3.0195
16257TIP3   OH270185   2.425   0.009  12.963  0.8300  0.5742  0.6928
16257TIP3    H170186   2.444   0.070  13.034  1.0851 -0.1038  1.2154
16257TIP3    H270187   2.330   0.013  12.953  0.8283  0.9301  0.8331
16258TIP3   OH270188   6.733   5.246   3.504 -0.5241 -0.1712  0.0852
16258TIP3    H170189   6.736   5.254   3.408 -0.8633 -0.5817  0.0355
16258TIP3    H270190   6.706   5.156   3.519  1.0556 -0.5892  0.5974
16259TIP3   OH270191   0.126   1.501   1.591  0.4232 -0.1180  0.4629
16259TIP3    H170192   0.050   1.532   1.543 -1.0027 -1.7540  1.5547
16259TIP3    H270193   0.148   1.417   1.551  0.6255 -0.4286  1.1993
16260TIP3   OH270194   1.845   5.727   3.888  0.9586 -0.2138  0.3048
16260TIP3    H170195   1.755   5.714   3.857  0.6470  0.9019  0.7072
16260TIP3    H270196   1.899   5.685   3.820  0.1140 -2.2286  0.7904
16261TIP3   OH270197   2.001   1.180   2.266 -0.1448  0.1694 -0.2848
16261TIP3    H170198   1.911   1.204   2.246 -1.9672 -2.2154  3.7627
16261TIP3    H270199   2.026   1.237   2.338 -0.5203 -2.3585  2.0399
16262TIP3   OH270200   6.463   4.866  12.960 -0.0787  0.0912 -0.6492
16262TIP3    H170201   6.399   4.914  12.907 -0.7705  0.7324  0.7153
16262TIP3    H270202   6.537   4.925  12.968 -1.3009  1.4319  1.8128
16263TIP3   OH270203   1.806   4.676  14.299  0.0248 -0.1188 -0.5458
16263TIP3    H170204   1.831   4.584  14.309  1.0803  0.0970 -1.0404
16263TIP3    H270205   1.868   4.711  14.235 -1.0352  0.6860 -1.1597
16264TIP3   OH270206   6.518   3.411   1.009  0.3289  0.3259 -0.2717
16264TIP3    H170207   6.535   3.328   1.055  1.2030  0.7432  0.1928
16264TIP3    H270208   6.509   3.385   0.917  0.7722 -0.2792 -0.1586
16265TIP3   OH270209   2.857   6.678  17.060 -0.0907  0.7916  0.5266
16265TIP3    H170210   2.906   6.735  17.001  0.1877  0.5094  0.4815
16265TIP3    H270211   2.826   6.736  17.129  0.2620  0.9809  0.5284
16266TIP3   OH270212   0.558   3.088  12.632 -0.2666  0.2549  0.6442
16266TIP3    H170213   0.579   2.996  12.616  0.3985  0.3579  0.9286
16266TIP3    H270214   0.596   3.135  12.558 -0.6564  0.3023  0.4681
16267TIP3   OH270215   3.962   4.369   2.226 -0.0441  0.2060  0.3095
16267TIP3    H170216   3.904   4.293   2.230 -0.1431  0.1419 -1.5882
16267TIP3    H270217   4.042   4.340   2.271 -0.0069 -1.1119 -0.5566
16268TIP3   OH270218   4.941   1.918   3.283  0.5061  0.1627  0.2045
16268TIP3    H170219   4.988   1.843   3.246  0.8331  1.0925 -1.3751
16268TIP3    H270220   4.875   1.880   3.340 -0.3012 -1.4213 -1.6740
16269TIP3   OH270221   3.814   3.191   3.643 -0.6009  0.5376  0.0181
16269TIP3    H170222   3.786   3.215   3.554  0.2739  0.6397 -0.2370
16269TIP3    H270223   3.887   3.130   3.630  0.6421  1.8413  0.6423
16270TIP3   OH270224   5.502   5.521  15.864 -0.3639 -0.1066 -0.1396
16270TIP3    H170225   5.550   5.458  15.809  1.2193  0.3964  0.6252
16270TIP3    H270226   5.542   5.605  15.845 -0.2855  0.1847  1.2414
16271TIP3   OH270227   4.783   5.517   0.103  0.4681 -0.1033  0.2916
16271TIP3    H170228   4.717   5.586   0.104  1.0508  0.4703  0.8603
16271TIP3    H270229   4.781   5.482   0.014 -0.8032 -0.3082  0.3877
16272TIP3   OH270230   0.971   1.515   0.004  0.1234  0.4559  0.0303
16272TIP3    H170231   0.937   1.480   0.086  2.4645  1.6603  1.6238
16272TIP3    H270232   0.961   1.610   0.012 -0.1178  0.5593 -1.3197
16273TIP3   OH270233   4.569   0.621   4.299  0.3172  0.5007 -0.5494
16273TIP3    H170234   4.593   0.622   4.206  1.0682  1.1760 -0.3636
16273TIP3    H270235   4.481   0.656   4.302  0.8054  1.7996 -0.8935
16274TIP3   OH270236   0.547   3.099   5.614 -0.1285  0.2063 -0.0019
16274TIP3    H170237   0.588   3.184   5.601  0.0738  0.1620  0.3376
16274TIP3    H270238   0.456   3.112   5.588 -0.5310  0.9868  1.6297
16275TIP3   OH270239   5.137   6.355  16.402 -0.2830  0.0177 -0.0157
16275TIP3    H170240   5.042   6.365  16.393 -0.1850  2.1378  0.6802
16275TIP3    H270241   5.153   6.364  16.496  0.5772 -0.8642 -0.0592
16276TIP3   OH270242   4.403   4.270  15.264 -0.0686 -0.1113 -0.6770
16276TIP3    H170243   4.374   4.322  15.338 -1.5768 -0.2621 -1.1196
16276TIP3    H270244   4.394   4.328  15.188  0.5299 -0.2589 -0.8662
16277TIP3   OH270245   5.142   2.248   4.866  0.6415 -0.3214  0.4435
16277TIP3    H170246   5.166   2.166   4.822  1.1405  0.5448 -0.9683
16277TIP3    H270247   5.115   2.221   4.953 -1.2026 -2.2249 -0.6381
16278TIP3   OH270248   2.587   4.879   0.116  0.0054 -0.5234  0.0845
16278TIP3    H170249   2.621   4.870   0.205  2.7726 -2.8089 -1.0245
16278TIP3    H270250   2.543   4.796   0.099 -0.4708 -0.1218 -0.7106
16279TIP3   OH270251   4.098   0.795   4.119  0.1141  0.2409 -0.4285
16279TIP3    H170252   4.037   0.727   4.089 -0.3045 -0.2706  1.4325
16279TIP3    H270253   4.075   0.873   4.069 -1.8418 -0.0357 -0.0062
16280TIP3   OH270254   0.429   2.074  14.925  0.0754 -0.0687  0.2573
16280TIP3    H170255   0.522   2.051  14.926 -0.0231 -0.4774  0.1865
16280TIP3    H270256   0.384   1.992  14.904 -0.2830  0.1871  0.0034
16281TIP3   OH270257   4.009   1.927  16.350 -0.4101 -0.3323 -0.0357
16281TIP3    H170258   3.992   2.021  16.352 -0.5262 -0.3416 -0.5559
16281TIP3    H270259   4.051   1.912  16.265 -3.2782 -1.2292 -1.4145
16282TIP3   OH270260   2.636   2.265   4.547  0.3223  0.8366 -0.3111
16282TIP3    H170261   2.613   2.341   4.493 -0.4649  0.0042 -1.1897
16282TIP3    H270262   2.634   2.298   4.637  0.4927  1.9716 -0.7036
16283TIP3   OH270263   5.597   5.632   4.883 -0.4292 -0.6639  0.1746
16283TIP3    H170264   5.555   5.597   4.805  0.5927 -0.6455 -0.4044
16283TIP3    H270265   5.667   5.570   4.903 -0.7178 -0.6994  1.1175
16284TIP3   OH270266   2.702   1.658   2.023  0.8992 -0.0576  0.0089
16284TIP3    H170267   2.656   1.717   2.083  1.4889 -0.1849  0.6013
16284TIP3    H270268   2.789   1.696   2.014  0.4300  0.7061 -1.8577
16285TIP3   OH270269   1.797   6.514  14.650  0.0308 -0.6725 -0.0573
16285TIP3    H170270   1.807   6.493  14.557  1.0845 -0.5904  0.0317
16285TIP3    H270271   1.815   6.432  14.696  1.4067 -0.2640  0.1560
16286TIP3   OH270272   1.752   0.512  16.345 -0.2775  0.1129  0.4418
16286TIP3    H170273   1.683   0.522  16.411 -0.5368  1.5930 -0.0310
16286TIP3    H270274   1.773   0.601  16.318 -1.2575 -0.4612 -2.5734
16287TIP3   OH270275   2.840   1.771  16.538 -0.0811  0.9272  0.0378
16287TIP3    H170276   2.790   1.702  16.495  0.4178 -0.0352  0.9670
16287TIP3    H270277   2.801   1.852  16.505 -0.1924  0.2322 -1.6368
16288TIP3   OH270278   1.471   1.919  16.475  0.0749  0.4573 -0.7260
16288TIP3    H170279   1.480   1.830  16.510 -1.2140  0.0243 -1.4182
16288TIP3    H270280   1.451   1.973  16.551  0.4593  0.0930 -0.3558
16289TIP3   OH270281   5.504   2.223   1.098 -0.2578 -0.4233  0.3622
16289TIP3    H170282   5.564   2.185   1.162 -1.5774 -0.9845  1.3082
16289TIP3    H270283   5.511   2.317   1.112  0.6290 -0.4568  0.2330
16290TIP3   OH270284   2.781   3.795   4.685  0.3287  0.4826  0.2225
16290TIP3    H170285   2.868   3.832   4.701  0.5020  1.3250 -2.2699
16290TIP3    H270286   2.758   3.824   4.598 -1.0344 -2.5005 -0.5597
16291TIP3   OH270287   4.993   6.348  15.455  0.2289 -0.6511  0.3218
16291TIP3    H170288   5.040   6.329  15.373  0.5720 -0.7289  0.5352
16291TIP3    H270289   5.062   6.354  15.521  0.0133  0.1026  0.4869
16292TIP3   OH270290   1.544   3.161   1.190 -0.4858 -0.2489  0.7493
16292TIP3    H170291   1.498   3.141   1.272 -0.8877  0.4735  0.7086
16292TIP3    H270292   1.513   3.096   1.128 -0.8827 -0.2291  0.9266
16293TIP3   OH270293   2.444   1.557   2.421  0.3054  0.7549 -0.0332
16293TIP3    H170294   2.403   1.471   2.424  0.3916  0.7520  1.4844
16293TIP3    H270295   2.494   1.556   2.339 -1.2907  0.1322 -1.0614
16294TIP3   OH270296   2.913   5.864  11.469 -0.2313 -0.6364 -0.2910
16294TIP3    H170297   2.850   5.823  11.410 -2.4023  2.5513 -0.4390
16294TIP3    H270298   2.864   5.878  11.550  0.2494  1.7668 -0.3389
16295TIP3   OH270299   3.962   5.289   1.199 -0.2229  0.0359  0.0390
16295TIP3    H170300   3.913   5.207   1.188  0.3236 -0.7115  2.4318
16295TIP3    H270301   3.894   5.355   1.216 -0.5689 -0.8692  2.6894
16296TIP3   OH270302   6.042   4.039  17.220 -0.5560 -0.0215 -0.3691
16296TIP3    H170303   5.973   4.083  17.269 -0.8556 -1.1518  0.2749
16296TIP3    H270304   6.123   4.070  17.260 -0.7859 -0.6063  0.5785
16297TIP3   OH270305   3.402   2.217   6.155 -0.0940  0.6337  0.1909
16297TIP3    H170306   3.323   2.170   6.129  0.4538 -0.9971  1.2817
16297TIP3    H270307   3.372   2.306   6.175 -1.4730  0.3008 -0.2797
16298TIP3   OH270308   6.555   0.231   2.369  0.4785  0.2649  0.0423
16298TIP3    H170309   6.583   0.182   2.446  2.9682  0.3146 -0.7650
16298TIP3    H270310   6.484   0.177   2.331  1.4100 -1.4171  0.5821
16299TIP3   OH270311   4.244   4.249   1.100  0.7847  0.2253 -0.6954
16299TIP3    H170312   4.280   4.164   1.074 -1.8656 -1.0684 -0.5830
16299TIP3    H270313   4.296   4.275   1.175 -0.4529 -3.1472  1.5831
16300TIP3   OH270314   4.354   1.115  13.055 -0.1380 -0.3794 -0.6658
16300TIP3    H170315   4.300   1.158  13.121  0.8399  0.2253 -0.2458
16300TIP3    H270316   4.366   1.026  13.089 -0.4678 -0.3735 -0.5285
16301TIP3   OH270317   1.133   1.476  15.996  0.3978  0.4308  0.4908
16301TIP3    H170318   1.202   1.498  15.934  1.6067  0.5732  1.8341
16301TIP3    H270319   1.131   1.550  16.057  1.6861 -1.2042  2.6520
16302TIP3   OH270320   3.876   3.934  16.134 -0.0761  0.0608  0.4123
16302TIP3    H170321   3.861   3.934  16.039 -0.3985  1.1953  0.4381
16302TIP3    H270322   3.957   3.885  16.146  1.4602  2.1086 -0.7474
16303TIP3   OH270323   3.356   0.174  15.963  0.0721  0.3779  0.1974
16303TIP3    H170324   3.352   0.256  16.012 -1.9522  0.3569  0.1537
16303TIP3    H270325   3.319   0.195  15.878 -0.5990 -0.5915  0.2355
16304TIP3   OH270326   4.818   6.611  10.909 -0.3610  0.0716 -0.4752
16304TIP3    H170327   4.787   6.539  10.854  1.5168 -0.3186 -1.1100
16304TIP3    H270328   4.912   6.596  10.917 -0.3564  0.8980  1.7434
16305TIP3   OH270329   6.304   3.874  12.450  0.4717 -0.8165 -0.1105
16305TIP3    H170330   6.298   3.920  12.534 -1.8448  1.8745 -1.5791
16305TIP3    H270331   6.224   3.822  12.446  0.2487 -0.4188 -0.9096
16306TIP3   OH270332   1.159   1.191  13.834  0.4244 -0.0857  0.4401
16306TIP3    H170333   1.202   1.270  13.867  0.5081 -0.6589  1.7487
16306TIP3    H270334   1.231   1.134  13.809  0.4543 -0.7864  2.0181
16307TIP3   OH270335   1.872   2.319   5.106  0.0950 -0.0047  0.1958
16307TIP3    H170336   1.851   2.412   5.113 -0.6209 -0.2335  1.3298
16307TIP3    H270337   1.941   2.305   5.171  0.0636 -0.3088  0.1643
16308TIP3   OH270338   2.566   1.991   4.572 -0.1429  0.6002  0.0397
16308TIP3    H170339   2.490   2.020   4.622  0.7747  3.4044 -0.0023
16308TIP3    H270340   2.608   2.073   4.543  2.3050 -0.8532 -0.7989
16309TIP3   OH270341   1.090   5.574   2.223  0.2242 -0.4389 -0.2184
16309TIP3    H170342   1.114   5.606   2.310  3.2106 -1.1177 -0.6924
16309TIP3    H270343   0.995   5.581   2.220  0.2446  2.4824  1.9595
16310TIP3   OH270344   2.239   4.670  11.076 -0.1158 -0.0045  0.9260
16310TIP3    H170345   2.256   4.695  11.166  0.6101  0.9781  0.5401
16310TIP3    H270346   2.242   4.752  11.027  0.1615 -0.5855 -0.0817
16311TIP3   OH270347   4.517   1.030  12.821 -0.1084 -0.3572  0.3990
16311TIP3    H170348   4.445   1.039  12.882 -0.9108  1.5136 -0.7356
16311TIP3    H270349   4.561   0.949  12.847 -3.0121 -1.9510  0.6970
16312TIP3   OH270350   2.638   4.413   3.029 -0.2598 -0.4430  0.0072
16312TIP3    H170351   2.544   4.420   3.011 -0.2930 -0.2906  0.2327
16312TIP3    H270352   2.663   4.501   3.059  0.0230 -0.3902 -0.3636
16313TIP3   OH270353   4.690   5.874  10.345 -0.4115  0.6502 -0.7070
16313TIP3    H170354   4.650   5.789  10.365  1.5613  0.0722  1.1289
16313TIP3    H270355   4.621   5.922  10.299 -2.3581 -1.1436  0.1454
16314TIP3   OH270356   0.309   6.710   4.136 -0.3959  0.0692 -0.0457
16314TIP3    H170357   0.234   6.682   4.188 -1.8171 -1.9195 -2.9052
16314TIP3    H270358   0.358   6.630   4.118 -0.1393  0.6169 -1.9701
16315TIP3   OH270359   5.622   3.383  12.866  0.0898  0.0246  0.0570
16315TIP3    H170360   5.551   3.368  12.804  1.4088 -0.6216 -1.3787
16315TIP3    H270361   5.624   3.478  12.878 -0.9882  0.0494  0.1045
16316TIP3   OH270362   5.069   0.880  15.588  0.5071  0.4547 -0.5505
16316TIP3    H170363   5.047   0.854  15.498  1.3738 -0.7908 -0.4290
16316TIP3    H270364   5.156   0.918  15.581  1.1140 -0.8103 -0.0680
16317TIP3   OH270365   6.212   0.320  10.741  0.0975  0.2635 -0.1160
16317TIP3    H170366   6.195   0.253  10.807  1.1922  0.6358  0.5715
16317TIP3    H270367   6.145   0.387  10.756  0.5911  0.5431  0.9104
16318TIP3   OH270368   0.301   4.784   4.859  0.1309 -0.0845 -0.4867
16318TIP3    H170369   0.284   4.742   4.943 -0.5969  1.0708 -0.0241
16318TIP3    H270370   0.383   4.832   4.873  0.2449 -0.2562 -0.5734
16319TIP3   OH270371   2.589   4.172   3.790  0.2345 -0.4343 -0.1194
16319TIP3    H170372   2.657   4.110   3.818  0.2866 -0.6481 -0.7163
16319TIP3    H270373   2.625   4.258   3.812 -0.0802 -0.6230  1.2512
16320TIP3   OH270374   2.760   1.966   2.856 -0.1846  0.4298 -0.0986
16320TIP3    H170375   2.683   1.912   2.873  0.8447 -0.8861  0.6144
16320TIP3    H270376   2.790   1.938   2.769 -0.4034  0.7956 -0.2905
16321TIP3   OH270377   2.955   2.214  16.988  0.5894 -0.4856 -0.4144
16321TIP3    H170378   2.880   2.272  16.998  0.7170 -0.5885  1.6532
16321TIP3    H270379   2.925   2.130  17.022  1.4323 -0.7004 -0.1795
16322TIP3   OH270380   3.649   3.197  13.215  0.3568  0.2619  0.5866
16322TIP3    H170381   3.693   3.234  13.140 -0.4179 -0.5660 -0.3065
16322TIP3    H270382   3.710   3.132  13.250  1.0023  1.1351  1.1117
16323TIP3   OH270383   2.053   5.711  15.973 -0.0479  0.7934  0.1731
16323TIP3    H170384   1.963   5.732  16.001  0.7796  2.1860  2.0032
16323TIP3    H270385   2.053   5.729  15.879 -1.6958  0.6878  0.1130
16324TIP3   OH270386   0.708   1.775  16.223  0.1157  0.4862 -0.4039
16324TIP3    H170387   0.669   1.692  16.197 -1.5923  0.1321  2.8084
16324TIP3    H270388   0.786   1.783  16.167  0.5937 -3.4395 -0.5946
16325TIP3   OH270389   0.224   4.849  12.846 -0.3921  0.4701 -0.0591
16325TIP3    H170390   0.239   4.897  12.764  1.3451 -1.4966 -0.9968
16325TIP3    H270391   0.310   4.847  12.888 -1.3803  2.0443  2.2717
16326TIP3   OH270392   5.619   1.081  10.937  0.0574  0.7554  0.1413
16326TIP3    H170393   5.689   1.086  11.002 -0.3736  0.4941  0.6260
16326TIP3    H270394   5.539   1.066  10.988 -0.6140  2.6864 -0.2442
16327TIP3   OH270395   5.644   5.042   1.019 -0.2599 -0.3183  0.4981
16327TIP3    H170396   5.683   5.128   1.011 -1.1780  0.0881  0.2015
16327TIP3    H270397   5.620   5.035   1.112 -0.3848 -0.1643  0.4774
16328TIP3   OH270398   1.897   4.254  11.121  0.0665  0.5415  0.2405
16328TIP3    H170399   1.886   4.159  11.108 -0.3052  0.8204 -1.8458
16328TIP3    H270400   1.991   4.268  11.121  0.1197  0.1872  0.3733
16329TIP3   OH270401   6.073   6.378  16.562  0.0263  0.7356  0.2077
16329TIP3    H170402   6.100   6.317  16.493  1.6004  1.1337  0.4275
16329TIP3    H270403   6.019   6.325  16.621 -1.2500  0.3589 -1.2246
16330TIP3   OH270404   0.630   4.897   0.828  0.4244  0.4253  0.5585
16330TIP3    H170405   0.712   4.872   0.870  0.1130 -0.9763  0.3806
16330TIP3    H270406   0.609   4.983   0.866  2.2177  1.0609  0.2068
16331TIP3   OH270407   0.317   2.045  14.345  0.0785  0.4071  0.0703
16331TIP3    H170408   0.364   2.127  14.361  0.8271  0.1628 -0.8121
16331TIP3    H270409   0.233   2.073  14.308 -0.0110  0.8060  0.5689
16332TIP3   OH270410   6.534   5.496   0.008  0.6042  0.3141  0.0277
16332TIP3    H170411   6.517   5.420  -0.048  0.2884 -0.9630  1.7837
16332TIP3    H270412   6.626   5.515  -0.005  1.1903 -1.6182  0.9704
16333TIP3   OH270413   2.468   2.626  15.214  0.0473  0.5302  0.0450
16333TIP3    H170414   2.556   2.663  15.215 -0.2669  1.5472 -2.2791
16333TIP3    H270415   2.446   2.620  15.121 -1.5707 -1.6257  0.4851
16334TIP3   OH270416   6.375   6.414   1.595  0.4262  0.0570 -0.2767
16334TIP3    H170417   6.467   6.398   1.616  0.0291 -0.4980  1.1932
16334TIP3    H270418   6.344   6.331   1.558  0.4190  0.1070 -0.3818
16335TIP3   OH270419   1.144   2.364   2.890 -0.1688 -0.0137 -1.0123
16335TIP3    H170420   1.236   2.350   2.912 -0.3079 -0.4769 -0.7176
16335TIP3    H270421   1.096   2.304   2.947 -0.4910 -1.9002 -3.1421
16336TIP3   OH270422   0.541   5.604  14.320 -0.2245 -0.7190 -0.3636
16336TIP3    H170423   0.622   5.564  14.289 -0.5692 -1.0973 -0.7937
16336TIP3    H270424   0.487   5.531  14.349  0.1724 -0.3671  1.3928
16337TIP3   OH270425   4.154   4.005  13.155 -0.0542  0.2511  0.6146
16337TIP3    H170426   4.065   4.014  13.120  0.8799  1.9665 -1.6202
16337TIP3    H270427   4.150   4.045  13.242 -1.6361 -0.4838  0.9082
16338TIP3   OH270428   0.611   3.392   2.706  0.1120  0.1656  0.3588
16338TIP3    H170429   0.572   3.395   2.619  0.0412 -0.1011  0.3805
16338TIP3    H270430   0.579   3.310   2.744  0.6644 -0.0376  0.3881
16339TIP3   OH270431   1.573   4.780   0.115  0.6516  0.1906 -0.7969
16339TIP3    H170432   1.659   4.788   0.074  0.5604 -0.4872 -1.1319
16339TIP3    H270433   1.575   4.695   0.159 -0.3271 -0.4666 -1.9731
16340TIP3   OH270434   1.079   3.409   1.438  0.0397  0.3836 -0.3496
16340TIP3    H170435   1.113   3.347   1.502 -2.1185 -0.4444  0.0950
16340TIP3    H270436   1.156   3.456   1.406  1.3486 -0.2540  1.7036
16341TIP3   OH270437   0.284   1.656  11.904  0.1138  0.0711 -0.0777
16341TIP3    H170438   0.270   1.562  11.896  3.9532 -0.6126 -0.5808
16341TIP3    H270439   0.288   1.672  11.998 -0.8936 -0.1628  0.0162
16342TIP3   OH270440   3.624   5.176   2.142  0.3589 -0.1591 -0.3150
16342TIP3    H170441   3.584   5.190   2.057 -0.2545  0.1149  0.0085
16342TIP3    H270442   3.718   5.173   2.125  0.1653 -1.8331 -1.2280
16343TIP3   OH270443   0.841   1.132   5.285  0.4559 -0.5756 -0.1999
16343TIP3    H170444   0.777   1.172   5.226  0.0873  0.9884  1.1638
16343TIP3    H270445   0.861   1.202   5.348  1.0106 -2.0865  1.3635
16344TIP3   OH270446   2.517   3.262   4.345  0.4709 -0.0100  0.1036
16344TIP3    H170447   2.570   3.300   4.274  1.9594 -0.4386  0.9413
16344TIP3    H270448   2.551   3.302   4.425  0.2214 -1.0691  0.7660
16345TIP3   OH270449   3.317   2.725   0.952  0.0396 -0.6032 -0.0013
16345TIP3    H170450   3.367   2.805   0.935  2.2339 -1.2773  2.5419
16345TIP3    H270451   3.369   2.655   0.914 -0.7488 -1.0284 -0.3154
16346TIP3   OH270452   5.945   0.170   0.225 -0.0435 -0.0792 -0.0743
16346TIP3    H170453   6.017   0.124   0.267 -0.4467 -0.4529  0.2109
16346TIP3    H270454   5.870   0.157   0.283 -0.7358 -1.0147 -1.1192
16347TIP3   OH270455   5.332   6.065  17.015 -0.3300  0.1424 -0.0379
16347TIP3    H170456   5.305   6.092  16.927  0.5162 -0.5484 -0.5285
16347TIP3    H270457   5.257   6.018  17.051 -0.7554  0.6123 -0.3029
16348TIP3   OH270458   2.119   6.331   5.075  0.4248  0.3161 -0.1896
16348TIP3    H170459   2.029   6.349   5.048  0.3968 -0.7730 -0.8953
16348TIP3    H270460   2.161   6.296   4.996  0.2318 -3.3615  1.1403
16349TIP3   OH270461   2.748   1.837   4.713 -0.0027  0.1396  0.5887
16349TIP3    H170462   2.752   1.857   4.807  1.6520  1.8956  0.2043
16349TIP3    H270463   2.693   1.907   4.676  2.1835  1.5434 -0.1739
16350TIP3   OH270464   1.784   6.377  12.788  0.1911 -0.1446 -0.2302
16350TIP3    H170465   1.755   6.290  12.760  1.1309 -0.1484 -1.2751
16350TIP3    H270466   1.747   6.437  12.724 -1.5145  0.4117  1.2003
16351TIP3   OH270467   0.225   1.997   0.737 -0.6033 -0.5796  0.3872
16351TIP3    H170468   0.172   1.934   0.688  0.2129 -0.2439 -0.9722
16351TIP3    H270469   0.224   1.964   0.827 -0.8954 -2.0500 -0.1339
16352TIP3   OH270470   2.295   5.431  13.137 -0.0954  0.0942 -0.3938
16352TIP3    H170471   2.378   5.437  13.088  0.6622 -1.4138  0.6262
16352TIP3    H270472   2.309   5.485  13.215  0.4495 -1.1752  0.4216
16353TIP3   OH270473   1.098   5.744  16.253 -0.1086 -0.0738 -0.3338
16353TIP3    H170474   1.153   5.682  16.300  1.3401  2.0704  1.0007
16353TIP3    H270475   1.098   5.713  16.163  1.9371 -1.1204 -0.0415
16354TIP3   OH270476   1.986   1.147  16.064 -0.1552 -0.1393 -0.2992
16354TIP3    H170477   1.936   1.135  15.983 -0.3981  1.0403 -0.3450
16354TIP3    H270478   2.077   1.155  16.035 -0.0290 -1.3707 -0.2964
16355TIP3   OH270479   1.856   3.720   2.373 -0.3809 -0.1260 -0.1470
16355TIP3    H170480   1.916   3.781   2.416  0.1621  0.5372 -1.7792
16355TIP3    H270481   1.885   3.717   2.282 -2.3222 -0.4007 -0.8165
16356TIP3   OH270482   6.684   4.261   4.903 -0.3494  0.1870 -0.0963
16356TIP3    H170483   6.639   4.322   4.961 -0.3317  0.7024 -0.6171
16356TIP3    H270484   6.743   4.315   4.851 -0.7124 -0.1852 -0.9345
16357TIP3   OH270485   3.744   4.663  13.959 -0.4028  0.2197  0.0572
16357TIP3    H170486   3.698   4.746  13.974 -0.9264  0.4553 -2.4762
16357TIP3    H270487   3.689   4.598  14.002 -0.7506  0.9880  0.8327
16358TIP3   OH270488   6.202   3.387   6.663  0.0393 -0.6285  0.1974
16358TIP3    H170489   6.125   3.407   6.717 -1.1565 -2.5057 -0.7036
16358TIP3    H270490   6.201   3.453   6.594  0.8537  1.0204  1.6906
16359TIP3   OH270491   4.789   0.188   6.362 -0.1401  0.3323  0.5968
16359TIP3    H170492   4.719   0.163   6.301 -1.0378  0.0817  1.6906
16359TIP3    H270493   4.787   0.283   6.362 -0.6917  0.3268  0.8387
16360TIP3   OH270494   1.615   6.583   3.556 -0.2477 -0.2075  0.6687
16360TIP3    H170495   1.538   6.597   3.611  0.7431  0.5063  1.9355
16360TIP3    H270496   1.644   6.672   3.533  1.7534 -0.2680  2.5355
16361TIP3   OH270497   2.832   5.957   1.261 -0.2396  0.1930  0.0340
16361TIP3    H170498   2.745   5.967   1.299 -0.8300  1.2775 -1.4895
16361TIP3    H270499   2.885   6.025   1.303  0.1688 -1.0646  1.6495
16362TIP3   OH270500   1.241   0.476   4.977  0.1795  0.2473  0.1017
16362TIP3    H170501   1.196   0.511   4.900  1.3868  1.3743 -0.1305
16362TIP3    H270502   1.296   0.406   4.943  1.6938  1.5869 -0.3229
16363TIP3   OH270503   5.506   3.695  15.174 -0.3622  0.2852 -0.8925
16363TIP3    H170504   5.588   3.690  15.125  1.4251  2.0949  1.6497
16363TIP3    H270505   5.505   3.616  15.228 -2.1553 -1.5207 -3.2864
16364TIP3   OH270506   1.285   6.769   4.660  0.4393 -0.0357  0.0745
16364TIP3    H170507   1.206   6.811   4.693 -0.1123 -1.0144  0.0292
16364TIP3    H270508   1.256   6.720   4.582  0.9863 -0.7689  0.3187
16365TIP3   OH270509   3.793   3.640  15.657  0.2717  0.3197  0.3583
16365TIP3    H170510   3.862   3.630  15.591 -0.6035  1.2768 -0.7520
16365TIP3    H270511   3.800   3.730  15.687 -1.5967  1.0385 -1.1337
16366TIP3   OH270512   0.132   1.376  15.007 -0.6600  0.2421  0.0400
16366TIP3    H170513   0.089   1.320  14.941 -0.8758 -1.8689  1.8352
16366TIP3    H270514   0.208   1.326  15.035  0.5242  1.9786  0.0617
16367TIP3   OH270515   2.230   6.489   3.554  0.5304 -0.0613  0.5967
16367TIP3    H170516   2.143   6.518   3.528  1.2178 -0.5013 -2.6142
16367TIP3    H270517   2.248   6.413   3.499  2.5230 -0.6881  1.9705
16368TIP3   OH270518   2.719   3.711   2.558 -0.1250 -0.2599  0.3166
16368TIP3    H170519   2.642   3.670   2.597  0.8276 -1.0416  1.4417
16368TIP3    H270520   2.684   3.781   2.502 -1.6004 -0.0999  1.3973
16369TIP3   OH270521   3.570   2.465   3.573  0.6224  0.0914 -0.4477
16369TIP3    H170522   3.479   2.488   3.591 -0.0567 -0.9201 -2.3660
16369TIP3    H270523   3.621   2.525   3.627 -1.1679 -0.1502  1.6439
16370TIP3   OH270524   5.442   3.065  10.771  0.2696  0.2517  0.0590
16370TIP3    H170525   5.409   3.009  10.841  1.1699 -1.4022 -0.7780
16370TIP3    H270526   5.422   3.154  10.800 -0.9217 -0.4633  1.5907
16371TIP3   OH270527   2.476   3.284   3.155  0.6006  0.0451 -0.0757
16371TIP3    H170528   2.569   3.309   3.153  0.8644 -0.9065 -0.5530
16371TIP3    H270529   2.464   3.233   3.074 -0.7934  1.6974 -0.9658
16372TIP3   OH270530   0.932   1.582  11.142 -0.3239  0.6263 -0.6150
16372TIP3    H170531   0.855   1.639  11.140 -0.0499  0.9944 -2.2342
16372TIP3    H270532   1.004   1.639  11.116  0.7961  0.6362  2.1654
16373TIP3   OH270533   1.458   1.281   1.244 -0.2449 -0.2720 -0.1129
16373TIP3    H170534   1.489   1.365   1.210  1.1421 -0.8466 -0.3428
16373TIP3    H270535   1.538   1.235   1.270 -0.9945 -1.4663  0.1492
16374TIP3   OH270536   6.291   6.102  15.775  0.1424  0.0780  0.0946
16374TIP3    H170537   6.347   6.053  15.835 -0.6055  2.2249  2.7311
16374TIP3    H270538   6.349   6.125  15.702  2.3180  0.8026  1.9369
16375TIP3   OH270539   0.698   6.102  13.151  0.1754 -0.4891  0.2221
16375TIP3    H170540   0.608   6.115  13.180 -0.7195 -0.0034 -2.5015
16375TIP3    H270541   0.695   6.110  13.055  3.2450  0.3156  0.0642
16376TIP3   OH270542   1.606   4.279   6.566 -0.6350  0.3363 -0.4461
16376TIP3    H170543   1.685   4.228   6.587  0.0641  1.9068  0.9476
16376TIP3    H270544   1.536   4.236   6.615 -0.3055 -0.0334 -0.2941
16377TIP3   OH270545   2.151   2.857  11.064  0.1598 -0.0962 -0.0744
16377TIP3    H170546   2.220   2.911  11.102  0.5470 -0.7785  0.2231
16377TIP3    H270547   2.166   2.862  10.970 -0.1513  0.7494 -0.0880
16378TIP3   OH270548   3.952   1.811  17.149 -0.0455 -0.3901 -0.0007
16378TIP3    H170549   3.885   1.788  17.213  1.2641 -2.1115  0.8156
16378TIP3    H270550   3.918   1.891  17.108 -2.1568 -0.6913  0.9852
16379TIP3   OH270551   5.015   6.611  16.208 -0.6879 -0.0264 -0.9527
16379TIP3    H170552   4.967   6.606  16.291  0.8585  0.6136  0.0076
16379TIP3    H270553   5.022   6.520  16.179  0.1123 -0.4329  0.4384
16380TIP3   OH270554   2.127   0.696  15.571  0.2292 -0.4845 -0.0349
16380TIP3    H170555   2.117   0.665  15.481 -1.1794  1.7840 -0.7601
16380TIP3    H270556   2.048   0.665  15.616  0.1585 -0.3050 -0.0319
16381TIP3   OH270557   6.388   0.797  16.968 -0.2854 -0.1881  0.7417
16381TIP3    H170558   6.293   0.814  16.965 -0.0482  1.3584  1.0396
16381TIP3    H270559   6.419   0.824  16.881 -0.0528 -0.2678  0.8020
16382TIP3   OH270560   0.202   5.620   2.237  0.2993  0.2677  0.1236
16382TIP3    H170561   0.117   5.578   2.249 -0.0075  0.7959 -0.1656
16382TIP3    H270562   0.262   5.568   2.290 -0.4747  0.7653  1.5409
16383TIP3   OH270563   3.077   4.647   4.261  0.2917  0.0527  0.3831
16383TIP3    H170564   3.074   4.738   4.290  0.0796  0.0556  0.3521
16383TIP3    H270565   2.999   4.636   4.206  0.0060 -0.3102  0.8585
16384TIP3   OH270566   0.919   1.068  15.463 -0.4823 -0.3686 -0.3659
16384TIP3    H170567   0.942   1.013  15.538 -0.7535  0.9170  0.7042
16384TIP3    H270568   0.824   1.055  15.453 -0.7176  0.5507  0.4714
16385TIP3   OH270569   0.943   6.688   3.311 -0.2971 -0.4116  0.3692
16385TIP3    H170570   0.894   6.763   3.345  1.2998  0.4210  0.9448
16385TIP3    H270571   0.953   6.631   3.387  1.4384  0.4493  0.8393
16386TIP3   OH270572   4.776   2.711   1.666  0.2684  0.5635  0.0379
16386TIP3    H170573   4.745   2.647   1.731 -0.4502  1.7089  0.8498
16386TIP3    H270574   4.855   2.748   1.705 -0.1301  1.2063  0.2571
16387TIP3   OH270575   4.240   4.824  14.513 -0.2032 -0.0897  0.5386
16387TIP3    H170576   4.169   4.793  14.570 -1.1095  2.7560  1.0832
16387TIP3    H270577   4.196   4.878  14.448  1.2907  0.1005 -0.3459
16388TIP3   OH270578   2.810   6.036  16.066  0.3051  0.1929 -0.5043
16388TIP3    H170579   2.759   6.034  15.985 -0.3764  0.4627 -0.0904
16388TIP3    H270580   2.890   5.987  16.046  0.1383  0.2530 -1.3347
16389TIP3   OH270581   2.257   0.785  12.325 -0.4127 -0.1480 -0.4552
16389TIP3    H170582   2.293   0.824  12.404 -1.2444  0.2667 -0.2706
16389TIP3    H270583   2.171   0.752  12.351 -1.0345  0.6908 -1.3481
16390TIP3   OH270584   3.752   3.942   3.346  0.3549  0.0453 -0.0750
16390TIP3    H170585   3.731   3.868   3.402  0.2641  0.2984  0.2336
16390TIP3    H270586   3.689   3.939   3.275  1.4060 -1.1549 -0.9958
16391TIP3   OH270587   1.837   2.179  13.748 -0.4227  0.3522  0.3770
16391TIP3    H170588   1.868   2.089  13.753 -1.4404  0.0085  0.6527
16391TIP3    H270589   1.744   2.174  13.766 -0.4845  1.4736  0.4640
16392TIP3   OH270590   6.549   2.147  17.138 -0.6838  0.3273 -0.1374
16392TIP3    H170591   6.591   2.216  17.190  0.7933  0.3821 -1.3493
16392TIP3    H270592   6.517   2.085  17.203  0.4350  0.7766  0.8938
16393TIP3   OH270593   4.177   1.262  13.216  0.1143 -0.1733 -0.0621
16393TIP3    H170594   4.237   1.305  13.278  0.1519 -2.6793  1.8084
16393TIP3    H270595   4.104   1.232  13.271 -1.2634 -0.0271 -1.7538
16394TIP3   OH270596   1.069   4.147  11.600 -0.1430 -0.2118 -0.2301
16394TIP3    H170597   1.086   4.229  11.647 -1.2273 -0.3835  0.5006
16394TIP3    H270598   0.994   4.167  11.544 -2.3223 -1.4145  2.0638
16395TIP3   OH270599   0.487   6.166  16.852 -0.9871 -0.1031  0.0254
16395TIP3    H170600   0.433   6.218  16.911 -0.7707 -0.3427  0.4354
16395TIP3    H270601   0.474   6.075  16.882 -0.0086 -0.1192  0.4077
16396TIP3   OH270602   5.728   0.314  11.661 -0.0902 -0.4655  0.7173
16396TIP3    H170603   5.713   0.307  11.567  1.2911  3.3581  0.0178
16396TIP3    H270604   5.645   0.288  11.701 -1.3706 -0.2677 -1.6637
16397TIP3   OH270605   2.686   2.294   4.804 -0.7106 -0.3510  0.0111
16397TIP3    H170606   2.669   2.383   4.837 -0.8633  0.3512 -1.8542
16397TIP3    H270607   2.622   2.239   4.849 -1.4293  0.6831  0.2855
16398TIP3   OH270608   4.815   3.710  15.890 -0.2221  1.2538  0.0982
16398TIP3    H170609   4.731   3.667  15.873 -0.0460  0.9599 -0.0555
16398TIP3    H270610   4.797   3.803  15.884 -1.1294  1.3267  2.8090
16399TIP3   OH270611   4.794   3.267  13.636 -0.6251 -0.0303 -0.9717
16399TIP3    H170612   4.817   3.231  13.722 -0.7578 -1.0003 -1.3369
16399TIP3    H270613   4.762   3.192  13.586 -0.9999  0.6137 -1.7197
16400TIP3   OH270614   0.591   2.059   5.498 -0.6221  0.4385 -0.3653
16400TIP3    H170615   0.555   2.089   5.415 -0.1147  1.9340 -0.0839
16400TIP3    H270616   0.686   2.074   5.490 -0.5228  0.2476  0.3433
16401TIP3   OH270617   4.081   3.372  11.797 -0.0647 -0.2042 -0.6596
16401TIP3    H170618   4.128   3.289  11.806  3.1935  1.5503  0.0257
16401TIP3    H270619   4.068   3.382  11.702 -0.0076 -1.1812 -0.7869
16402TIP3   OH270620   4.512   2.054   0.764  0.0830 -0.3072  0.4555
16402TIP3    H170621   4.418   2.046   0.782 -0.1876 -0.0599 -0.7209
16402TIP3    H270622   4.522   2.019   0.675  0.7735  1.4282 -0.1981
16403TIP3   OH270623   1.223   1.179   0.416  0.4851 -0.2357  0.0309
16403TIP3    H170624   1.170   1.127   0.356  1.9302  0.1108 -1.6206
16403TIP3    H270625   1.161   1.211   0.481 -0.9241 -1.6334 -0.5646
16404TIP3   OH270626   6.610   3.047  12.463  0.2684 -0.3579 -0.0280
16404TIP3    H170627   6.665   3.084  12.532  0.2435  0.0807 -0.2354
16404TIP3    H270628   6.561   3.123  12.429 -0.4677 -0.7349  0.1605
16405TIP3   OH270629   4.911   2.861  16.031 -0.5420  0.1617 -0.3294
16405TIP3    H170630   4.861   2.822  16.102  0.9531 -0.0911  0.6208
16405TIP3    H270631   4.956   2.788  15.990  0.4656  0.5963 -0.0130
16406TIP3   OH270632   1.684   4.592   2.739  0.1102 -0.3856 -0.0068
16406TIP3    H170633   1.700   4.524   2.674  2.7144  0.2472 -0.1386
16406TIP3    H270634   1.638   4.661   2.691  1.4293 -0.1958 -1.0730
16407TIP3   OH270635   4.803   6.251   4.664  0.6267 -0.6699 -0.7208
16407TIP3    H170636   4.800   6.334   4.711  1.3867 -1.2972  0.4832
16407TIP3    H270637   4.750   6.266   4.585 -0.2973  0.5599  0.0984
16408TIP3   OH270638   3.088   5.320  11.494  0.2514 -0.3041  0.5964
16408TIP3    H170639   3.103   5.248  11.555 -1.1976 -0.1386  1.1905
16408TIP3    H270640   3.124   5.397  11.538 -0.7834 -0.1863  1.2786
16409TIP3   OH270641   4.999   5.952   0.015 -0.0887 -0.0672  0.4903
16409TIP3    H170642   5.085   5.916   0.038  0.4954  1.1549  0.2686
16409TIP3    H270643   4.949   5.946   0.097 -0.0940 -1.5545  0.4106
16410TIP3   OH270644   0.299   0.905  12.076  0.0279  0.1143  0.6167
16410TIP3    H170645   0.341   0.824  12.104 -1.6212 -0.5242  1.4279
16410TIP3    H270646   0.212   0.901  12.117 -0.7235  1.4592 -0.7725
16411TIP3   OH270647   6.301   0.727  13.083 -0.0578 -0.1876 -0.9320
16411TIP3    H170648   6.239   0.682  13.141  0.5160  0.4512  0.2092
16411TIP3    H270649   6.281   0.820  13.094 -0.4711 -0.0854 -2.4014
16412TIP3   OH270650   4.961   0.645   4.060  0.5414 -0.2914  0.2301
16412TIP3    H170651   4.956   0.736   4.089  0.2163 -0.5556  1.0048
16412TIP3    H270652   5.053   0.634   4.033  0.5496  0.3014 -0.0054
16413TIP3   OH270653   3.343   5.982   3.967 -0.0840 -0.5983  0.2944
16413TIP3    H170654   3.265   5.941   3.929  0.3124 -0.1807 -0.9950
16413TIP3    H270655   3.308   6.038   4.037 -0.9610 -0.3627 -0.3137
16414TIP3   OH270656   6.618   1.283  14.126 -0.0976  0.1542  0.4330
16414TIP3    H170657   6.543   1.224  14.136 -0.3813  0.4232 -0.0390
16414TIP3    H270658   6.686   1.245  14.181  1.2613 -3.1435 -3.0930
16415TIP3   OH270659   0.433   0.530   4.377 -0.4341  0.5984  0.1526
16415TIP3    H170660   0.411   0.438   4.361 -0.5122  0.6980 -0.3307
16415TIP3    H270661   0.439   0.537   4.472 -0.6383  0.1414  0.2021
16416TIP3   OH270662   6.188   4.094  12.590 -0.3712  0.2829 -0.0399
16416TIP3    H170663   6.186   4.123  12.682 -0.5639  1.9675 -0.5310
16416TIP3    H270664   6.101   4.059  12.574 -0.3518  0.0208  0.4136
16417TIP3   OH270665   0.970   0.012   2.856 -0.0899 -0.6846 -0.4374
16417TIP3    H170666   0.955  -0.068   2.906 -1.4065  0.4492  1.0667
16417TIP3    H270667   1.054   0.044   2.887  0.1720 -1.1585 -0.6363
16418TIP3   OH270668   4.489   0.082   3.023 -0.2204  0.0882  0.1222
16418TIP3    H170669   4.483   0.135   2.944 -0.9509  0.3288  0.3307
16418TIP3    H270670   4.514   0.144   3.092 -0.0612 -0.0315  0.1747
16419TIP3   OH270671   2.403   1.172   6.130 -0.1333 -0.2005 -0.3756
16419TIP3    H170672   2.389   1.077   6.125 -0.9017 -0.1680  0.8550
16419TIP3    H270673   2.465   1.184   6.202  1.1735  0.1566 -1.5047
16420TIP3   OH270674   5.023   4.563  11.155  0.1094  0.7445  0.4762
16420TIP3    H170675   4.947   4.507  11.170 -0.7320  1.6816 -0.1271
16420TIP3    H270676   5.004   4.606  11.071  2.0675 -0.2132 -0.5142
16421TIP3   OH270677   5.441   5.748  13.550  0.2078  0.6508 -0.9085
16421TIP3    H170678   5.504   5.795  13.495  1.4057 -0.8841 -0.9432
16421TIP3    H270679   5.480   5.750  13.638 -1.5380  2.8208 -0.1033
16422TIP3   OH270680   1.563   2.496  13.750  0.0618 -0.5279  0.0387
16422TIP3    H170681   1.652   2.470  13.729 -0.4812 -1.7094 -0.9673
16422TIP3    H270682   1.557   2.488  13.845  1.2123  0.2191  0.1815
16423TIP3   OH270683   3.666   3.215   1.681  0.2078 -0.7785  0.1693
16423TIP3    H170684   3.590   3.267   1.655 -0.1284 -1.2817  0.1162
16423TIP3    H270685   3.719   3.209   1.601 -0.0444 -1.0065  0.0167
16424TIP3   OH270686   5.675   4.851   4.629 -0.1032  0.7293  0.2623
16424TIP3    H170687   5.712   4.791   4.694 -0.7635 -0.9336 -0.8405
16424TIP3    H270688   5.747   4.910   4.607  0.9206 -0.3959  0.5163
16425TIP3   OH270689   6.517   3.131   1.075  0.3846  0.5396 -0.1599
16425TIP3    H170690   6.518   3.118   0.980  1.3121  0.0443 -0.0853
16425TIP3    H270691   6.543   3.047   1.111 -1.8872  0.0999  0.6268
16426TIP3   OH270692   4.120   3.321   2.837 -0.8708  0.2378  0.6012
16426TIP3    H170693   4.194   3.376   2.808 -2.1625  2.0092  0.4970
16426TIP3    H270694   4.053   3.384   2.864 -2.6922 -1.3095 -0.1482
16427TIP3   OH270695   0.526   5.861  13.668 -0.0760 -0.3460 -0.0373
16427TIP3    H170696   0.539   5.827  13.579 -0.7922 -1.5180  0.2712
16427TIP3    H270697   0.596   5.925  13.680 -0.5884  0.6084 -1.8092
16428TIP3   OH270698   1.863   5.273  15.983  0.2616 -0.5634 -0.5299
16428TIP3    H170699   1.897   5.232  16.063  1.1953 -1.2748 -1.2610
16428TIP3    H270700   1.935   5.265  15.921  0.5250  2.2455 -0.7158
16429TIP3   OH270701   4.345   4.231  13.154 -0.2506 -0.3373  0.3030
16429TIP3    H170702   4.348   4.171  13.228 -2.4432  0.2927  0.9810
16429TIP3    H270703   4.430   4.221  13.111  0.7772 -1.2958  2.4250
16430TIP3   OH270704   1.205   2.093   1.393 -0.4476  0.1096 -0.3349
16430TIP3    H170705   1.115   2.114   1.418 -0.7680 -0.9766 -0.5372
16430TIP3    H270706   1.256   2.168   1.422 -1.1371 -0.1039  1.5415
16431TIP3   OH270707   5.642   0.234  14.857  0.4273 -0.5102  0.2122
16431TIP3    H170708   5.579   0.215  14.787 -1.2407  1.4194  1.0951
16431TIP3    H270709   5.726   0.239  14.811 -0.0256 -2.8331 -1.0508
16432TIP3   OH270710   2.018   0.743   4.257  0.6659 -0.4461 -0.1869
16432TIP3    H170711   2.028   0.708   4.345 -1.5630 -2.5059 -0.6525
16432TIP3    H270712   2.053   0.832   4.262 -1.3943  0.3660  3.3732
16433TIP3   OH270713   2.832   5.481   4.716 -0.3082 -0.0147  0.4621
16433TIP3    H170714   2.914   5.531   4.720 -0.0041 -0.2755 -1.4148
16433TIP3    H270715   2.804   5.473   4.807  1.3386  0.7657  1.0802
16434TIP3   OH270716   3.156   5.736  14.950 -0.0298 -0.1699 -0.0879
16434TIP3    H170717   3.081   5.750  15.007 -0.8136  0.5402 -1.2650
16434TIP3    H270718   3.223   5.796  14.983  0.0208 -0.7644  0.9301
16435TIP3   OH270719   6.392   6.776   5.623  0.1747 -0.0440 -0.0927
16435TIP3    H170720   6.322   6.837   5.603  2.2724  1.9927 -1.6405
16435TIP3    H270721   6.424   6.803   5.710  0.9697  1.0053 -0.6896
16436TIP3   OH270722   1.305   5.260  14.417 -0.7349  0.0668  0.4706
16436TIP3    H170723   1.240   5.295  14.357 -3.2017 -2.4981  1.4335
16436TIP3    H270724   1.255   5.235  14.495  1.5183 -1.3891  1.5624
16437TIP3   OH270725   2.863   3.954   1.809 -0.4738 -0.2595  1.0633
16437TIP3    H170726   2.797   3.980   1.744 -0.8920  0.2864  1.6969
16437TIP3    H270727   2.825   3.877   1.851 -0.5538 -0.1523  1.1889
16438TIP3   OH270728   2.419   0.293   5.817 -0.5096  0.2258  0.2331
16438TIP3    H170729   2.352   0.361   5.812  1.4633  2.1758 -2.2823
16438TIP3    H270730   2.485   0.329   5.875 -0.6166 -0.7433  0.9800
16439TIP3   OH270731   3.807   2.488  12.777  0.8251  0.2383 -0.3969
16439TIP3    H170732   3.832   2.560  12.835  3.5705  0.4903 -1.7305
16439TIP3    H270733   3.747   2.527  12.714 -0.5586  0.4412  0.9866
16440TIP3   OH270734   6.107   5.326  17.232  0.2817 -0.3571  0.1090
16440TIP3    H170735   6.027   5.302  17.186 -1.9083 -0.0951  3.4867
16440TIP3    H270736   6.125   5.252  17.289  3.3704 -1.0257 -1.4911
16441TIP3   OH270737   1.171   4.534   1.271  0.2707 -0.4620 -0.0087
16441TIP3    H170738   1.221   4.479   1.211  1.1442 -1.1767  1.3141
16441TIP3    H270739   1.224   4.536   1.351 -0.3219  1.3370  0.3934
16442TIP3   OH270740   5.811   1.928   2.997 -0.6285  0.1406  0.4092
16442TIP3    H170741   5.844   1.968   2.916 -1.6335 -0.5663 -0.3759
16442TIP3    H270742   5.880   1.944   3.061  2.0047 -2.4630 -1.4723
16443TIP3   OH270743   3.314   2.003   3.356  0.0796 -0.3280  0.3814
16443TIP3    H170744   3.219   2.010   3.362 -0.2326  0.8275 -3.3028
16443TIP3    H270745   3.347   2.087   3.387 -0.1347 -0.4087  0.8397
16444TIP3   OH270746   0.986   6.761   4.002 -0.3833 -0.0386 -0.4141
16444TIP3    H170747   1.054   6.750   4.068 -2.4024 -1.0997  1.6376
16444TIP3    H270748   1.021   6.718   3.924  2.0784  1.2450 -0.1202
16445TIP3   OH270749   6.513   3.656  11.558  0.6197 -0.6790 -0.4041
16445TIP3    H170750   6.426   3.659  11.518 -0.3802  2.1850  1.6604
16445TIP3    H270751   6.566   3.714  11.504  0.9721 -1.5089 -0.9756
16446TIP3   OH270752   3.157   4.891   0.366 -0.0913 -0.0316  0.7155
16446TIP3    H170753   3.107   4.810   0.359 -0.0518  0.0153 -0.1635
16446TIP3    H270754   3.098   4.951   0.411 -0.8204  0.0057 -0.2586
16447TIP3   OH270755   5.477   2.818   3.100  0.1200 -0.2477  0.2979
16447TIP3    H170756   5.442   2.803   3.188  0.3149  2.9870  1.0373
16447TIP3    H270757   5.406   2.792   3.041 -1.0092 -0.0304  1.5189
16448TIP3   OH270758   0.502   2.373  15.995 -0.0541 -0.0481 -1.0810
16448TIP3    H170759   0.544   2.360  15.910 -0.9193 -0.9746 -1.3812
16448TIP3    H270760   0.408   2.373  15.975 -0.4769 -3.6680  0.2342
16449TIP3   OH270761   6.726   6.345   1.587  0.1758 -0.6408 -0.3624
16449TIP3    H170762   6.784   6.401   1.535 -0.9523  1.5575  0.6339
16449TIP3    H270763   6.715   6.267   1.533  1.4157  0.2675 -2.0598
16450TIP3   OH270764   3.446   2.664  15.446 -0.4303 -0.2836 -0.1340
16450TIP3    H170765   3.384   2.644  15.516  0.9709  0.7524  1.4712
16450TIP3    H270766   3.510   2.593  15.450  0.0437  0.1567  0.1099
16451TIP3   OH270767   6.106   0.777  12.289  0.1857  0.1038  0.3244
16451TIP3    H170768   6.167   0.851  12.290  0.2777  0.0319 -0.1015
16451TIP3    H270769   6.085   0.763  12.382  0.2742  0.5735  0.4173
16452TIP3   OH270770   5.046   6.000   0.868 -0.2634 -0.2187 -0.0587
16452TIP3    H170771   5.030   6.023   0.960  1.1036  0.5109  0.0314
16452TIP3    H270772   5.033   6.082   0.820  0.4562 -0.2509 -0.3184
16453TIP3   OH270773   4.090   3.286   0.195 -0.6306 -0.1328 -0.1265
16453TIP3    H170774   4.088   3.325   0.107  0.5521  2.7046  0.9742
16453TIP3    H270775   4.048   3.201   0.185 -1.1647  0.3927 -3.2868
16454TIP3   OH270776   6.559   2.892  11.535 -0.2405 -0.0623  0.3278
16454TIP3    H170777   6.482   2.895  11.478 -1.0436 -0.0996  1.3799
16454TIP3    H270778   6.623   2.840  11.486 -1.1593 -0.6982 -0.2300
16455TIP3   OH270779   4.606   2.732  14.129  0.1614  0.7098  0.6880
16455TIP3    H170780   4.646   2.737  14.215 -0.9195  0.2010  1.2475
16455TIP3    H270781   4.635   2.648  14.093  0.2424  0.7122  0.7504
16456TIP3   OH270782   5.326   1.687  11.605 -0.4760 -0.5747  0.0653
16456TIP3    H170783   5.334   1.598  11.570  1.8885 -0.2883 -0.2886
16456TIP3    H270784   5.344   1.678  11.699  1.0149 -0.3568 -0.1729
16457TIP3   OH270785   5.561   3.993  14.301 -0.0180 -0.1318 -0.1184
16457TIP3    H170786   5.541   3.934  14.374 -1.1005 -0.1520 -0.4181
16457TIP3    H270787   5.530   4.079  14.331 -0.4914 -0.1457 -0.5572
16458TIP3   OH270788   0.884   3.241  11.787 -0.0195 -0.3285 -0.2970
16458TIP3    H170789   0.791   3.239  11.808  0.0214 -0.9867 -0.1534
16458TIP3    H270790   0.927   3.256  11.871  0.0332 -0.7082 -0.2533
16459TIP3   OH270791   4.704   1.509   3.238 -0.0145  0.0628  0.4093
16459TIP3    H170792   4.684   1.447   3.168 -1.3113  0.1382  0.6821
16459TIP3    H270793   4.630   1.571   3.236 -0.5556 -0.4473  2.4186
16460TIP3   OH270794   4.201   5.693  12.481  0.2383  0.2950 -0.0890
16460TIP3    H170795   4.141   5.719  12.411 -0.6364  1.3793  1.0100
16460TIP3    H270796   4.278   5.747  12.468  0.1324  0.3993 -0.2885
16461TIP3   OH270797   5.964   6.693  11.667  0.0296  0.5707 -0.1938
16461TIP3    H170798   5.978   6.771  11.720 -3.0662 -0.5558  2.6568
16461TIP3    H270799   6.026   6.629  11.701 -0.0414  0.6750  0.1333
16462TIP3   OH270800   0.556   6.356   2.817 -0.3118  0.2910 -0.4333
16462TIP3    H170801   0.613   6.429   2.841 -1.6829  1.7975 -1.5806
16462TIP3    H270802   0.475   6.397   2.790 -0.4042 -1.5250 -3.2276
16463TIP3   OH270803   5.845   0.791  14.759  0.3206 -0.1373 -0.0698
16463TIP3    H170804   5.898   0.782  14.679  1.2128  0.7876  0.3832
16463TIP3    H270805   5.901   0.756  14.828 -0.5886 -1.2648  0.1224
16464TIP3   OH270806   5.939   0.528   3.656  0.5771  0.0696 -0.3429
16464TIP3    H170807   6.006   0.468   3.688 -1.6102 -1.9178  0.8079
16464TIP3    H270808   5.981   0.575   3.583  3.0712 -1.2487  0.1471
16465TIP3   OH270809   0.980   1.878   5.169  0.1235  0.1363  0.4430
16465TIP3    H170810   0.930   1.799   5.188 -1.7509  1.6505  2.2904
16465TIP3    H270811   1.056   1.847   5.119 -1.1916 -2.6187 -0.0312
16466TIP3   OH270812   6.028   5.425  12.314 -0.5924 -0.1234 -0.1727
16466TIP3    H170813   5.940   5.435  12.278 -0.5984  1.9709  0.3349
16466TIP3    H270814   6.016   5.429  12.409  0.0705  0.5404 -0.1074
16467TIP3   OH270815   1.344   3.832  11.988  0.1672 -0.0520 -0.1452
16467TIP3    H170816   1.377   3.835  11.898 -0.8322  0.0285 -0.5243
16467TIP3    H270817   1.346   3.739  12.011 -0.3031 -0.1592 -0.5336
16468TIP3   OH270818   2.796   0.183  14.401  0.0002 -0.1886  0.0154
16468TIP3    H170819   2.884   0.193  14.365 -0.1404  0.2270 -0.2132
16468TIP3    H270820   2.799   0.098  14.445  0.4013 -0.3573 -0.3172
16469TIP3   OH270821   2.552   3.998   0.276  0.3175 -0.1681 -0.1435
16469TIP3    H170822   2.582   4.001   0.367 -0.1806 -2.0560  0.1208
16469TIP3    H270823   2.627   3.964   0.227  0.4101  0.3408 -0.3600
16470TIP3   OH270824   4.296   6.726   2.414 -0.2066  0.1068  0.1337
16470TIP3    H170825   4.212   6.762   2.441  0.4390  0.8846  1.2194
16470TIP3    H270826   4.303   6.747   2.321 -1.5757 -0.7384 -0.1783
16471TIP3   OH270827   5.989   6.277  11.522 -0.4036 -0.7772 -0.1258
16471TIP3    H170828   5.904   6.292  11.483 -0.0666  0.4905 -0.3921
16471TIP3    H270829   5.969   6.251  11.612 -1.0562 -0.1034 -0.0681
16472TIP3   OH270830   6.148   0.730   0.880  0.0934 -0.5226  0.5927
16472TIP3    H170831   6.196   0.743   0.798  1.2169  2.1781  1.5309
16472TIP3    H270832   6.215   0.740   0.948 -1.3796  1.2479  1.8894
16473TIP3   OH270833   5.696   0.085   0.743 -0.3447  0.7672 -0.0222
16473TIP3    H170834   5.636   0.112   0.814 -0.8045  2.4391 -0.9738
16473TIP3    H270835   5.654   0.008   0.705  0.2635 -0.5992  1.9185
16474TIP3   OH270836   5.018   1.950   6.348  0.0852 -0.1453 -0.7531
16474TIP3    H170837   5.061   1.970   6.431 -1.6654 -1.3043  0.5012
16474TIP3    H270838   4.939   1.903   6.373  0.2312 -1.8256 -3.1661
16475TIP3   OH270839   2.001   1.087  11.520  0.0623  0.4090  0.3902
16475TIP3    H170840   2.064   1.039  11.466 -0.7573 -1.6371  1.1451
16475TIP3    H270841   1.974   1.160  11.465  1.3028 -0.0349 -0.8806
16476TIP3   OH270842   2.669   3.935   5.534  0.0612 -0.2630  0.3659
16476TIP3    H170843   2.741   3.881   5.501  0.4447 -0.0324  0.8108
16476TIP3    H270844   2.660   4.005   5.469  0.8202  0.1960  0.7309
16477TIP3   OH270845   0.981   4.570  13.918  0.4859 -0.6938 -0.8751
16477TIP3    H170846   1.069   4.544  13.893  1.2119 -0.2919  1.0869
16477TIP3    H270847   0.976   4.553  14.012 -1.1719  0.2575 -0.7389
16478TIP3   OH270848   2.053   3.970   4.573 -0.2989  0.1046  0.0660
16478TIP3    H170849   1.998   3.909   4.623  0.3702 -0.6777 -0.1227
16478TIP3    H270850   2.063   3.928   4.487 -0.2275  0.7262 -0.2344
16479TIP3   OH270851   0.788   3.910   2.918 -0.0586 -0.1730  0.1384
16479TIP3    H170852   0.869   3.891   2.966  0.0509 -1.1323 -0.3838
16479TIP3    H270853   0.774   3.831   2.865 -1.0481  0.2080 -0.1747
16480TIP3   OH270854   6.301   4.429  16.361  0.1061  0.1132  0.2158
16480TIP3    H170855   6.321   4.501  16.420 -0.4426 -0.6690  1.4045
16480TIP3    H270856   6.209   4.442  16.338 -0.0892 -0.3733  0.6968
16481TIP3   OH270857   3.319   6.415   5.931 -0.0707  0.2967  0.0301
16481TIP3    H170858   3.236   6.455   5.908 -1.5280 -1.9974  0.9394
16481TIP3    H270859   3.306   6.322   5.915  0.9291 -0.6678  3.7693
16482TIP3   OH270860   6.744   5.731   4.964 -0.5470 -0.0444  0.0475
16482TIP3    H170861   6.809   5.715   4.896 -0.5644 -0.4556  0.1240
16482TIP3    H270862   6.691   5.803   4.930 -0.7743 -0.4776 -0.5436
16483TIP3   OH270863   5.907   4.584  11.676  0.0384 -0.1323  0.1269
16483TIP3    H170864   5.953   4.502  11.692  1.0249  0.5383  0.8711
16483TIP3    H270865   5.896   4.588  11.581 -1.3757 -1.8104  0.1550
16484TIP3   OH270866   4.803   2.039   0.622  0.7212  0.8084 -0.4604
16484TIP3    H170867   4.834   2.113   0.674  0.3820 -0.1089  1.0855
16484TIP3    H270868   4.782   1.972   0.686 -1.1028  0.1528 -1.6929
16485TIP3   OH270869   4.602   0.752  12.865 -0.0939 -0.2876 -0.1375
16485TIP3    H170870   4.673   0.689  12.851 -1.5957 -1.9555 -0.6801
16485TIP3    H270871   4.547   0.712  12.933 -0.7629  0.7403 -0.0457
16486TIP3   OH270872   3.535   2.048   0.781  0.3087  0.4003  0.5326
16486TIP3    H170873   3.474   1.982   0.815 -0.5565  0.8834 -0.0434
16486TIP3    H270874   3.600   2.058   0.851 -1.6203  1.6308  2.2639
16487TIP3   OH270875   6.271   4.551   2.332 -0.0209  0.1585  0.5458
16487TIP3    H170876   6.237   4.516   2.414  0.5889 -0.2944  0.6055
16487TIP3    H270877   6.194   4.584   2.287 -0.2334  1.5668  1.8478
16488TIP3   OH270878   1.820   2.635   1.163  0.3985  0.2639  0.0301
16488TIP3    H170879   1.824   2.554   1.112  0.6821  0.6708 -0.6145
16488TIP3    H270880   1.909   2.670   1.160  0.4914  0.1548  1.0571
16489TIP3   OH270881   5.858   6.002   4.632  0.0395 -0.0114  0.1567
16489TIP3    H170882   5.893   6.042   4.711  0.5453 -1.0424  0.4638
16489TIP3    H270883   5.918   5.930   4.612 -0.5961 -0.3385 -0.6356
16490TIP3   OH270884   5.301   6.427   0.874 -0.3495  0.2259  0.1254
16490TIP3    H170885   5.251   6.348   0.854 -1.9933  1.1246  0.4442
16490TIP3    H270886   5.270   6.491   0.810 -1.8396  1.6392  2.1305
16491TIP3   OH270887   1.012   1.916   4.470  0.7274 -0.1973  0.1798
16491TIP3    H170888   1.060   1.955   4.543  0.1829  0.7319  0.0569
16491TIP3    H270889   0.932   1.882   4.510  1.4193 -1.6848  0.3731
16492TIP3   OH270890   4.071   5.938   1.671  0.0336  0.3099 -0.2303
16492TIP3    H170891   4.137   5.918   1.738 -0.9096 -0.4525  0.4876
16492TIP3    H270892   4.106   5.897   1.591 -0.0692 -1.0440  0.3855
16493TIP3   OH270893   4.177   4.894   4.812  0.2825  0.1682  0.3212
16493TIP3    H170894   4.216   4.818   4.771  1.3580  0.1945  1.2667
16493TIP3    H270895   4.085   4.893   4.783  1.2391  0.9254 -3.1283
16494TIP3   OH270896   0.351   1.756  15.868  0.4541  0.0170  0.1676
16494TIP3    H170897   0.442   1.736  15.892  0.2831  1.3693  2.2005
16494TIP3    H270898   0.356   1.782  15.776  2.0655 -0.2980  0.1318
16495TIP3   OH270899   3.028   5.213  14.400  0.3222 -0.2697  0.3260
16495TIP3    H170900   3.092   5.250  14.340  1.2760  0.5331  1.7843
16495TIP3    H270901   3.077   5.146  14.449 -0.4399 -0.9205  0.2264
16496TIP3   OH270902   0.315   0.227   3.153  0.2026 -0.7697 -0.1270
16496TIP3    H170903   0.381   0.290   3.180  0.8639 -2.1117  1.6333
16496TIP3    H270904   0.231   0.266   3.179  0.7053 -1.2338  2.4911
16497TIP3   OH270905   0.742   6.737  11.631 -0.6787  0.0050 -0.1635
16497TIP3    H170906   0.662   6.734  11.579 -0.0708  0.8034 -1.1869
16497TIP3    H270907   0.780   6.649  11.622  0.2205  0.5456 -2.4430
16498TIP3   OH270908   2.158   2.695  15.888 -0.0371  0.1105 -0.4149
16498TIP3    H170909   2.210   2.704  15.968 -1.4121  0.2786  0.5058
16498TIP3    H270910   2.088   2.633  15.913 -0.7235  0.4898 -1.3582
16499TIP3   OH270911   6.406   5.717  12.202 -0.5870 -0.0434  0.2699
16499TIP3    H170912   6.437   5.732  12.112  2.1887  0.7026  1.2419
16499TIP3    H270913   6.441   5.632  12.226  0.2504  0.5372  1.1991
16500TIP3   OH270914   5.115   5.133  13.506  0.3917  0.2422 -0.3797
16500TIP3    H170915   5.129   5.196  13.435 -0.9504  0.7602 -0.2055
16500TIP3    H270916   5.045   5.076  13.475 -1.5186  1.5958  1.1696
16501TIP3   OH270917   2.041   4.130  13.129  0.4423  0.4709 -0.1954
16501TIP3    H170918   1.991   4.049  13.130  0.6360  0.3523 -0.0110
16501TIP3    H270919   1.991   4.189  13.072 -1.0576  1.0852  1.6694
16502TIP3   OH270920   2.798   5.907  15.194  0.3287 -0.7702  0.0165
16502TIP3    H170921   2.806   5.924  15.100  1.3414  0.7875  0.3650
16502TIP3    H270922   2.874   5.852  15.215  0.9385  0.1200  0.1861
16503TIP3   OH270923   5.022   5.359   5.855  0.1753 -0.3441  0.5635
16503TIP3    H170924   5.060   5.426   5.798 -1.6669  0.4047  0.1450
16503TIP3    H270925   4.935   5.342   5.818 -0.6013 -0.7310  2.4411
16504TIP3   OH270926   5.040   4.960  11.623 -0.2277  0.6321  0.6153
16504TIP3    H170927   5.133   4.943  11.612 -0.1167 -0.9152  3.2395
16504TIP3    H270928   5.000   4.929  11.541  1.3002 -1.1212  0.4664
16505TIP3   OH270929   1.169   3.549   2.748 -0.0384  0.1529  0.2149
16505TIP3    H170930   1.100   3.535   2.683 -0.2737 -0.0134  0.5028
16505TIP3    H270931   1.251   3.538   2.699 -0.2127 -0.5173  0.0652
16506TIP3   OH270932   0.997   3.780  16.726  0.6350  0.3007  0.0519
16506TIP3    H170933   0.981   3.792  16.820  0.6876 -0.4600  0.1599
16506TIP3    H270934   1.087   3.747  16.721  0.3860 -0.3516 -0.2165
16507TIP3   OH270935   5.144   1.441  11.367 -0.1819  0.1381  0.1933
16507TIP3    H170936   5.234   1.467  11.382  0.3572 -1.2708 -0.3872
16507TIP3    H270937   5.091   1.503  11.417  1.1165  0.8494  0.6989
16508TIP3   OH270938   3.242   0.387  12.953  0.8252  0.5019  0.2493
16508TIP3    H170939   3.262   0.319  12.889 -2.1794 -0.7065  0.4765
16508TIP3    H270940   3.196   0.455  12.903 -0.6046  0.0299  0.8815
16509TIP3   OH270941   4.678   5.807  15.957 -0.1573 -0.5882 -0.2193
16509TIP3    H170942   4.678   5.780  15.865 -0.2173  0.7510 -0.6433
16509TIP3    H270943   4.603   5.762  15.995 -1.2995  0.3081 -1.3163
16510TIP3   OH270944   0.136   3.808  14.099 -0.3582  0.0988 -0.2636
16510TIP3    H170945   0.227   3.817  14.129 -0.5667  0.3859  0.2911
16510TIP3    H270946   0.092   3.887  14.132 -0.1623  1.4598 -2.9776
16511TIP3   OH270947   4.292   2.845  15.661  0.4336  0.0280 -0.2776
16511TIP3    H170948   4.386   2.862  15.657  0.3838  0.2453 -0.5981
16511TIP3    H270949   4.255   2.922  15.705  0.4920 -0.4156  0.5630
16512TIP3   OH270950   2.715   2.672   3.603  1.1244  0.0495  0.1914
16512TIP3    H170951   2.623   2.664   3.630  1.1435  0.0219  0.2489
16512TIP3    H270952   2.719   2.628   3.518  0.5344  2.2120 -1.0494
16513TIP3   OH270953   0.811   0.111  16.728  0.3799 -0.0196  0.4752
16513TIP3    H170954   0.742   0.157  16.680  0.3223  0.6131  1.1459
16513TIP3    H270955   0.764   0.051  16.786  0.3946  0.4079  0.9287
16514TIP3   OH270956   1.084   2.044   2.944 -0.1880  0.0913  0.0275
16514TIP3    H170957   1.080   1.957   2.984 -2.6009 -0.7066 -1.7218
16514TIP3    H270958   1.005   2.049   2.890  1.8403  1.7959 -3.1022
16515TIP3   OH270959   2.976   0.422   5.744  0.1725 -0.0123  0.1648
16515TIP3    H170960   2.966   0.415   5.838  0.0100  0.6317  0.2034
16515TIP3    H270961   2.984   0.516   5.728 -4.7072  0.4883 -0.9284
16516TIP3   OH270962   2.557   5.380  12.427 -0.0011 -0.1919  0.4484
16516TIP3    H170963   2.592   5.340  12.507 -0.4343 -0.8869  0.2994
16516TIP3    H270964   2.463   5.389  12.443 -0.4852 -2.3888 -0.7865
16517TIP3   OH270965   2.115   0.515  14.953  0.4501 -0.3705 -0.0743
16517TIP3    H170966   2.117   0.445  15.018 -0.6607 -0.6650 -0.3341
16517TIP3    H270967   2.026   0.513  14.919  0.5778  0.7901 -0.5089
16518TIP3   OH270968   1.261   0.245  11.481 -0.8815  0.0933  0.6599
16518TIP3    H170969   1.351   0.229  11.508 -1.1872 -2.4348  0.4523
16518TIP3    H270970   1.255   0.340  11.473  2.1090  0.2873 -0.5612
16519TIP3   OH270971   5.358   6.026   1.371  0.3634 -0.7526 -0.1525
16519TIP3    H170972   5.326   6.109   1.336 -0.1350 -1.3302 -1.1215
16519TIP3    H270973   5.324   6.023   1.461 -0.3498 -0.3026 -0.3986
16520TIP3   OH270974   5.196   0.460  16.229 -0.1227 -0.4216 -0.1649
16520TIP3    H170975   5.238   0.524  16.286  1.5481 -1.3979 -0.2350
16520TIP3    H270976   5.113   0.441  16.271  0.4671 -0.0722  1.1956
16521TIP3   OH270977   6.519   0.527  12.599  0.2479 -0.1029  0.4388
16521TIP3    H170978   6.552   0.617  12.592 -0.7420  0.4292  2.0506
16521TIP3    H270979   6.441   0.526  12.543  1.0218 -0.3836 -0.6703
16522TIP3   OH270980   2.383   3.960   1.759 -0.1595  0.0542 -0.5375
16522TIP3    H170981   2.476   3.980   1.764  0.0214 -0.8297 -0.1637
16522TIP3    H270982   2.345   4.001   1.837  0.2245 -1.1104  0.2810
16523TIP3   OH270983   6.470   3.576  11.810 -0.0560  0.0482 -0.4424
16523TIP3    H170984   6.548   3.536  11.849 -0.0360 -0.7228 -1.2550
16523TIP3    H270985   6.498   3.605  11.724 -0.4165  0.6711 -0.3568
16524TIP3   OH270986   0.517   0.157   3.822  0.0459  0.2085  0.5205
16524TIP3    H170987   0.497   0.243   3.785  0.4581  0.7645  1.5525
16524TIP3    H270988   0.467   0.153   3.903 -1.3466 -1.2551 -0.3458
16525TIP3   OH270989   5.838   1.052  17.161 -0.4437 -0.0680 -0.0635
16525TIP3    H170990   5.783   1.044  17.239  1.5948 -1.2366  1.3486
16525TIP3    H270991   5.797   0.995  17.097 -1.7641  0.3334  0.4002
16526TIP3   OH270992   0.765   6.557  15.782  0.2162  0.0615  0.7778
16526TIP3    H170993   0.716   6.476  15.793  0.6208 -0.0470  1.9535
16526TIP3    H270994   0.712   6.624  15.825 -0.3889  0.5480 -0.6798
16527TIP3   OH270995   0.130   3.551   2.225 -0.7131  0.1265 -0.2421
16527TIP3    H170996   0.055   3.549   2.285  1.2061 -0.7301  2.2675
16527TIP3    H270997   0.151   3.644   2.217 -0.3637  0.2055  1.3180
16528TIP3   OH270998   3.917   4.098  11.412 -0.0791 -0.2441 -0.2132
16528TIP3    H170999   3.873   4.065  11.334 -0.6819 -2.6844  1.0793
16528TIP3    H271000   3.848   4.107  11.477  0.7890 -0.7220  0.8003
16529TIP3   OH271001   0.265   0.960  15.381  0.2911 -0.0766 -0.1060
16529TIP3    H171002   0.309   1.044  15.382  0.0280  0.0658 -0.2400
16529TIP3    H271003   0.321   0.904  15.328  0.2208  0.1561 -0.4306
16530TIP3   OH271004   4.187   2.487  11.454 -0.2379 -0.0493  0.6315
16530TIP3    H171005   4.205   2.508  11.362 -0.9815  0.7901  0.6592
16530TIP3    H271006   4.130   2.559  11.484  0.1504 -0.2144  1.8019
16531TIP3   OH271007   4.931   0.733   0.910  0.6029 -0.6485 -0.0926
16531TIP3    H171008   4.845   0.770   0.889  1.4585  1.6803  0.2765
16531TIP3    H271009   4.985   0.754   0.834  0.9887 -1.7202 -0.1294
16532TIP3   OH271010   1.890   2.457   2.266 -0.1879  0.3119 -0.0694
16532TIP3    H171011   1.968   2.476   2.319 -0.3985  0.1205  0.3121
16532TIP3    H271012   1.871   2.365   2.284  0.7083 -0.2405 -1.7479
16533TIP3   OH271013   1.858   6.312  15.955 -0.1687  0.2564 -0.4449
16533TIP3    H171014   1.901   6.244  15.905 -1.5472 -0.5730 -0.5560
16533TIP3    H271015   1.765   6.301  15.936 -0.5408  1.2917  0.6234
16534TIP3   OH271016   0.826   4.309  14.294 -0.8463 -0.0448 -0.3805
16534TIP3    H171017   0.733   4.321  14.313 -0.7444 -0.7470  0.6795
16534TIP3    H271018   0.833   4.216  14.271 -0.4577  0.0795 -0.7680
16535TIP3   OH271019   0.585   3.702   2.514 -0.6114  0.7367 -0.4187
16535TIP3    H171020   0.557   3.782   2.470 -0.3398  0.3993 -1.2318
16535TIP3    H271021   0.503   3.659   2.540 -0.7618  1.1761 -0.1723
16536TIP3   OH271022   2.102   3.846  11.625 -0.4833 -0.8552  0.5117
16536TIP3    H171023   2.149   3.929  11.627 -1.2737 -0.2923 -1.9023
16536TIP3    H271024   2.014   3.867  11.655 -0.1402 -1.2962  1.9444
16537TIP3   OH271025   3.925   5.848  14.319  0.6491 -0.0423 -0.1670
16537TIP3    H171026   3.994   5.865  14.383 -0.5094  0.2566  1.0450
16537TIP3    H271027   3.944   5.909  14.247  1.0062  0.8504  0.6616
16538TIP3   OH271028   0.602   5.154   3.253 -0.1270  0.8487 -0.1284
16538TIP3    H171029   0.553   5.106   3.320  1.3806  0.1604  0.5237
16538TIP3    H271030   0.588   5.246   3.274  1.2572  0.6633  1.9220
16539TIP3   OH271031   2.384   5.804  13.769  0.8660 -0.0233  0.0874
16539TIP3    H171032   2.472   5.819  13.803  1.7131 -0.9141 -1.5653
16539TIP3    H271033   2.387   5.836  13.679 -0.2215 -0.8940 -0.2832
16540TIP3   OH271034   0.274   4.541  11.590 -0.8110 -0.5515 -0.2641
16540TIP3    H171035   0.357   4.585  11.610 -1.2121  0.2420 -0.3039
16540TIP3    H271036   0.225   4.546  11.672  0.0943 -3.1913  0.5239
16541TIP3   OH271037   5.091   6.615   3.676  0.2902 -0.2513 -0.2620
16541TIP3    H171038   5.176   6.659   3.685 -0.1180  0.5366 -0.1751
16541TIP3    H271039   5.097   6.571   3.591  0.4106  0.6567 -0.7415
16542TIP3   OH271040   0.128   5.802  15.771 -0.1589 -0.3967 -0.2981
16542TIP3    H171041   0.169   5.731  15.822  0.2779  0.0833  0.0295
16542TIP3    H271042   0.197   5.832  15.712 -0.5834 -0.7655 -0.9857
16543TIP3   OH271043   6.005   1.867   3.760 -0.5303  0.1059  0.2106
16543TIP3    H171044   6.007   1.919   3.680 -0.1916  1.6858  1.2044
16543TIP3    H271045   6.068   1.796   3.744  0.9937  1.4911 -0.2434
16544TIP3   OH271046   5.386   5.230  16.540  0.0186 -0.4093 -0.1414
16544TIP3    H171047   5.473   5.215  16.502 -0.8718 -0.7203 -2.2319
16544TIP3    H271048   5.387   5.321  16.567  1.4837 -0.8181  1.3249
16545TIP3   OH271049   4.348   1.444   3.243  0.2280 -0.3662  0.2585
16545TIP3    H171050   4.281   1.505   3.213 -0.2389 -1.2474 -0.5132
16545TIP3    H271051   4.317   1.414   3.328 -0.9889 -1.6841 -0.6197
16546TIP3   OH271052   2.409   2.285  17.138 -0.4721 -0.0230  0.3131
16546TIP3    H171053   2.382   2.370  17.102  2.1301  0.1816 -1.4069
16546TIP3    H271054   2.375   2.221  17.075 -0.8751 -0.1224  0.6295
16547TIP3   OH271055   3.635   0.681  14.661  0.0867 -0.0593 -0.1663
16547TIP3    H171056   3.553   0.705  14.703  0.8576  1.5308  0.5395
16547TIP3    H271057   3.677   0.620  14.722 -0.0014  0.1368  0.0906
16548TIP3   OH271058   2.851   5.314   3.679  0.7729  0.5722 -0.0543
16548TIP3    H171059   2.816   5.306   3.590  0.3691 -0.0480  0.1564
16548TIP3    H271060   2.782   5.279   3.735  1.8279 -0.9036  0.3632
16549TIP3   OH271061   1.195   1.023   4.507 -0.2241  0.0955 -0.1757
16549TIP3    H171062   1.218   0.972   4.585  0.0988  0.4127 -0.0607
16549TIP3    H271063   1.125   1.081   4.535 -0.8701 -0.5586 -0.4104
16550TIP3   OH271064   5.081   2.584   1.629  0.1683 -0.3625  0.0133
16550TIP3    H171065   5.003   2.529   1.631  0.1896 -0.3765  0.8844
16550TIP3    H271066   5.049   2.670   1.603 -0.6790  0.4020  3.1533
16551TIP3   OH271067   5.638   2.799  17.087 -0.6935 -0.6500 -0.1925
16551TIP3    H171068   5.713   2.857  17.101 -0.4439 -0.7862 -0.8996
16551TIP3    H271069   5.563   2.857  17.081 -0.5669 -0.4683 -0.0389
16552TIP3   OH271070   6.573   2.168  14.235  0.3119 -0.2367  0.5689
16552TIP3    H171071   6.483   2.185  14.208  0.4613  2.3777  1.3769
16552TIP3    H271072   6.585   2.074  14.223 -1.7587 -0.3023 -1.7761
16553TIP3   OH271073   6.728   0.777   1.911 -0.1187 -0.2303 -0.2212
16553TIP3    H171074   6.726   0.719   1.987  0.2372 -1.6498 -1.2545
16553TIP3    H271075   6.658   0.840   1.928 -0.8912 -1.2852  0.6881
16554TIP3   OH271076   0.016   5.104  12.705 -0.2745 -0.0512 -0.0543
16554TIP3    H171077  -0.027   5.025  12.674 -0.8377  0.2965 -0.1810
16554TIP3    H271078   0.052   5.144  12.626 -0.9040  0.3557 -0.1423
16555TIP3   OH271079   5.477   6.351   3.464 -0.3857  0.0202 -0.2062
16555TIP3    H171080   5.415   6.346   3.537  1.7677 -0.3816  1.7417
16555TIP3    H271081   5.482   6.261   3.431  0.8355 -0.5047  1.2431
16556TIP3   OH271082   5.458   5.918   2.662  0.4078  0.2223 -0.3250
16556TIP3    H171083   5.539   5.932   2.711  0.3218  0.3241 -0.2117
16556TIP3    H271084   5.468   5.971   2.583  0.0841  0.9279  0.0996
16557TIP3   OH271085   5.568   2.570  11.846 -0.4931  0.3127  0.0455
16557TIP3    H171086   5.639   2.634  11.853  1.0006 -1.1573 -0.9139
16557TIP3    H271087   5.552   2.560  11.752 -0.2180 -1.1589  0.1167
16558TIP3   OH271088   3.274   5.634  16.369 -0.4371  0.3469  0.2280
16558TIP3    H171089   3.278   5.571  16.440 -1.2300  0.2078  0.1568
16558TIP3    H271090   3.182   5.660  16.365 -0.1975  1.1981 -0.0117
16559TIP3   OH271091   5.408   4.923  15.572  0.2509  0.3722 -0.7960
16559TIP3    H171092   5.438   4.868  15.644  0.0355 -2.3566 -2.6435
16559TIP3    H271093   5.325   4.960  15.602  0.5166 -0.1277  0.5923
16560TIP3   OH271094   1.319   0.686   5.412  0.3225 -0.3298 -0.6707
16560TIP3    H171095   1.406   0.677   5.372  0.1338 -2.2096 -0.7514
16560TIP3    H271096   1.259   0.677   5.338  0.0348  0.1713 -0.4986
16561TIP3   OH271097   2.631   5.335  12.688  0.7978 -0.3462  0.0424
16561TIP3    H171098   2.605   5.255  12.732 -0.2547  0.5317  1.0638
16561TIP3    H271099   2.676   5.386  12.755  0.2244  0.5140 -0.2142
16562TIP3   OH271100   6.041   1.058   1.305 -0.4594 -0.0871  0.2246
16562TIP3    H171101   6.062   1.011   1.225  0.1915 -1.5350  1.2002
16562TIP3    H271102   5.948   1.078   1.298 -0.5416 -0.7454 -0.6110
16563TIP3   OH271103   1.543   5.875   2.555  0.5796  0.0326 -0.6760
16563TIP3    H171104   1.452   5.905   2.555  0.1372 -1.2196  0.1267
16563TIP3    H271105   1.551   5.825   2.473  0.5959  0.2711 -0.8213
16564TIP3   OH271106   3.395   1.062  11.054  0.0370 -0.3126 -0.3308
16564TIP3    H171107   3.408   1.000  10.982  1.0105  0.8968 -1.2613
16564TIP3    H271108   3.386   1.008  11.132 -2.3828 -1.7352 -1.4855
16565TIP3   OH271109   2.208   3.972   0.971  0.2149 -0.7772 -0.4568
16565TIP3    H171110   2.195   3.974   0.876 -0.0636 -0.0469 -0.4100
16565TIP3    H271111   2.250   4.055   0.991  1.7562 -1.6081 -0.1339
16566TIP3   OH271112   0.941   2.693   2.891 -0.5589  0.4784  0.2762
16566TIP3    H171113   1.025   2.655   2.917  0.6048  1.3469 -1.8956
16566TIP3    H271114   0.880   2.620   2.891  0.7008 -0.6150 -0.0768
16567TIP3   OH271115   1.371   3.018   5.303 -0.3987 -0.2999  0.4615
16567TIP3    H171116   1.450   3.003   5.354 -0.2208  0.8139  0.5263
16567TIP3    H271117   1.381   2.961   5.226  0.2560 -0.4864  0.6847
16568TIP3   OH271118   1.640   1.961  15.112  0.4592 -0.4310  0.3740
16568TIP3    H171119   1.581   1.890  15.136  0.6984 -0.9665 -0.5863
16568TIP3    H271120   1.678   1.990  15.195 -0.2140 -0.9025  0.8594
16569TIP3   OH271121   0.081   5.382  11.596 -0.0725  0.0681 -0.1372
16569TIP3    H171122   0.134   5.389  11.517  1.1372  0.2840  0.6589
16569TIP3    H271123   0.076   5.288  11.613  1.4079  0.0940  0.6233
16570TIP3   OH271124   0.986   0.518  14.956 -0.0923  0.0293 -0.1105
16570TIP3    H171125   1.027   0.435  14.932 -1.1385 -0.4648 -0.2482
16570TIP3    H271126   1.038   0.584  14.910  1.7179 -0.3852  1.2368
16571TIP3   OH271127   0.935   4.161   3.401  0.4438  0.3393 -0.2595
16571TIP3    H171128   0.905   4.132   3.315 -1.4428  0.2694  0.3660
16571TIP3    H271129   0.904   4.093   3.461 -0.2385  1.4875  0.7237
16572TIP3   OH271130   4.890   0.799   3.093  0.3312  0.3676  0.5716
16572TIP3    H171131   4.878   0.786   3.187 -1.1866  2.9676  0.8276
16572TIP3    H271132   4.933   0.885   3.086 -1.9019  1.4486 -1.1113
16573TIP3   OH271133   5.152   4.276   3.599  0.1058 -0.3186  0.3038
16573TIP3    H171134   5.162   4.330   3.678 -0.2170 -1.0476  0.8605
16573TIP3    H271135   5.151   4.338   3.527 -0.6119  0.4445  0.9554
16574TIP3   OH271136   1.153   1.356  14.456  0.4058  0.3375 -0.1171
16574TIP3    H171137   1.091   1.329  14.389  1.5654  1.1534 -1.5786
16574TIP3    H271138   1.100   1.401  14.522 -0.5709  0.9135 -1.2691
16575TIP3   OH271139   3.776   3.800   0.695 -0.0252  0.4303 -0.4179
16575TIP3    H171140   3.769   3.877   0.640 -2.2082  1.0481  0.6376
16575TIP3    H271141   3.700   3.747   0.673  0.2650 -0.3792  0.4329
16576TIP3   OH271142   4.375   3.858   5.134 -0.1189  0.1894 -0.4924
16576TIP3    H171143   4.400   3.910   5.057  0.3561  1.3779  0.4249
16576TIP3    H271144   4.459   3.827   5.169 -0.1125  1.5802  0.8213
16577TIP3   OH271145   4.169   3.516   5.357 -0.7847  0.1569 -0.7236
16577TIP3    H171146   4.089   3.506   5.304 -1.9006  1.3951  0.6481
16577TIP3    H271147   4.208   3.597   5.327 -0.7922  0.2583 -0.4635
16578TIP3   OH271148   2.357   3.176   1.886 -0.0884 -0.1933 -0.3784
16578TIP3    H171149   2.302   3.225   1.947 -0.8724 -0.5521 -0.7817
16578TIP3    H271150   2.414   3.242   1.847 -0.8714  0.3487 -0.6374
16579TIP3   OH271151   5.324   2.819  13.694 -0.4609 -0.5946 -0.4891
16579TIP3    H171152   5.250   2.861  13.738  0.1789  0.3116 -0.2316
16579TIP3    H271153   5.358   2.886  13.635 -0.7518 -1.4987 -1.7235
16580TIP3   OH271154   2.474   4.404  16.301  0.1076  0.0645 -0.4781
16580TIP3    H171155   2.401   4.454  16.265  0.8079  0.1160 -1.8988
16580TIP3    H271156   2.444   4.313  16.301 -0.4135  0.2283  0.1686
16581TIP3   OH271157   3.130   1.406  16.674  0.8289 -0.0172  0.0033
16581TIP3    H171158   3.153   1.368  16.759  2.2251 -0.8686 -0.7240
16581TIP3    H271159   3.193   1.369  16.613 -0.9672 -0.4731 -1.6779
16582TIP3   OH271160   6.092   5.211  15.648  0.2298 -1.2822  0.6283
16582TIP3    H171161   6.041   5.131  15.638  0.1205 -1.0400 -0.9423
16582TIP3    H271162   6.166   5.200  15.589 -1.1430  0.8184 -1.7163
16583TIP3   OH271163   6.059   2.347   5.468 -0.2698  0.2704 -0.2261
16583TIP3    H171164   6.085   2.287   5.539  2.1155  0.3059 -0.9911
16583TIP3    H271165   6.038   2.429   5.513  0.6498  0.1213  0.5083
16584TIP3   OH271166   0.827   3.689  16.093  0.3205  0.1318 -0.4969
16584TIP3    H171167   0.815   3.769  16.041 -2.4151  2.0914  2.7050
16584TIP3    H271168   0.894   3.712  16.157  1.8126 -1.3587 -1.4351
16585TIP3   OH271169   0.786   6.365   3.342 -0.1438  0.2624  0.4144
16585TIP3    H171170   0.731   6.420   3.398 -0.5735  0.0041  0.2538
16585TIP3    H271171   0.798   6.284   3.391 -1.0196 -0.1989 -0.1080
16586TIP3   OH271172   0.699   6.004  15.551  0.6360 -0.0856 -0.0595
16586TIP3    H171173   0.687   6.097  15.534  0.9806  0.1356  0.8196
16586TIP3    H271174   0.617   5.964  15.523 -0.1266  0.6956  0.9765
16587TIP3   OH271175   5.578   2.190  17.232 -0.2208 -0.4960 -0.2327
16587TIP3    H171176   5.606   2.119  17.175 -1.9762 -1.2815 -0.1959
16587TIP3    H271177   5.488   2.208  17.205 -0.4752  0.3596  1.0792
16588TIP3   OH271178   1.858   2.423  10.988  0.1948  0.2900  0.5073
16588TIP3    H171179   1.942   2.404  10.948 -0.5237 -0.9996 -0.4693
16588TIP3    H271180   1.833   2.509  10.953  0.1525 -0.2649 -0.8938
16589TIP3   OH271181   4.889   3.748   5.804 -0.2640  0.7186  0.8409
16589TIP3    H171182   4.977   3.784   5.814  0.1131 -0.6274  2.9051
16589TIP3    H271183   4.873   3.750   5.710  1.7346  1.5157  0.4618
16590TIP3   OH271184   6.239   5.564   0.774  0.5797 -0.6338 -0.0953
16590TIP3    H171185   6.325   5.604   0.783  1.0878 -1.6207 -0.4113
16590TIP3    H271186   6.235   5.537   0.682  0.0007 -0.7432 -0.0411
16591TIP3   OH271187   2.244   3.605   0.481  0.0696 -0.1916 -0.4921
16591TIP3    H171188   2.286   3.687   0.454  0.8414 -0.6337 -0.6740
16591TIP3    H271189   2.175   3.632   0.540 -0.5960  0.6902 -1.6343
16592TIP3   OH271190   6.309   2.847  13.969  0.5033  0.6828  0.5794
16592TIP3    H171191   6.282   2.918  13.912  2.1571  0.8317 -0.0786
16592TIP3    H271192   6.361   2.789  13.913  0.3176 -0.3424  1.4198
16593TIP3   OH271193   4.033   2.703  12.514  0.3519 -0.1850  0.8072
16593TIP3    H171194   3.968   2.765  12.481  0.9362  0.0421  0.0394
16593TIP3    H271195   4.040   2.721  12.607 -0.0353  0.3894  0.7243
16594TIP3   OH271196   3.041   4.674  14.967  0.8385  0.1443  0.0207
16594TIP3    H171197   3.029   4.579  14.970  0.2357  0.2306  1.5837
16594TIP3    H271198   2.953   4.709  14.948  0.5630  0.4394  1.6888
16595TIP3   OH271199   6.009   3.263   6.303  0.1001 -0.8147  0.4554
16595TIP3    H171200   6.035   3.330   6.367  1.0026 -2.4637  1.9102
16595TIP3    H271201   6.052   3.183   6.333 -1.0506 -2.1066 -1.1374
16596TIP3   OH271202   5.696   5.378  13.057  0.1238  0.2679 -0.1148
16596TIP3    H171203   5.665   5.366  12.967 -1.0831  0.0997  0.2975
16596TIP3    H271204   5.641   5.319  13.109  0.2432  0.9746  0.8364
16597TIP3   OH271205   6.361   2.707   1.459  0.3873 -0.6249 -0.0621
16597TIP3    H171206   6.268   2.686   1.464 -0.1317  1.4133 -0.4537
16597TIP3    H271207   6.369   2.791   1.505  1.5871  0.4552 -2.1127
16598TIP3   OH271208   3.574   6.483   2.622  0.1742 -0.2323 -0.1951
16598TIP3    H171209   3.493   6.435   2.638 -0.3070 -0.5505 -3.0535
16598TIP3    H271210   3.639   6.440   2.677 -1.4653 -0.2414  1.8362
16599TIP3   OH271211   5.970   2.599   5.530 -0.2292 -0.1730 -0.3735
16599TIP3    H171212   6.035   2.658   5.491  0.4865 -1.4204 -1.1397
16599TIP3    H271213   5.890   2.614   5.479 -0.2146  0.5347 -0.1921
16600TIP3   OH271214   4.403   1.648   1.672 -0.0988 -0.0824  0.2713
16600TIP3    H171215   4.437   1.578   1.727 -1.2160 -1.1078 -0.2905
16600TIP3    H271216   4.432   1.728   1.715 -0.4430 -0.8472  2.0191
16601TIP3   OH271217   6.475   1.318   1.165  0.0931  0.4548  0.1945
16601TIP3    H171218   6.488   1.228   1.195  0.0993  0.5324  0.4236
16601TIP3    H271219   6.402   1.312   1.103 -1.9375  0.7150  2.3916
16602TIP3   OH271220   1.700   6.177  15.083 -0.2871 -0.3348 -0.1635
16602TIP3    H171221   1.759   6.105  15.107 -1.9018 -2.5299 -2.3029
16602TIP3    H271222   1.619   6.133  15.055 -1.8471  2.4139 -0.2811
16603TIP3   OH271223   0.010   1.671  15.263 -0.3686  0.5092  0.2877
16603TIP3    H171224  -0.084   1.689  15.253 -0.4024 -0.5683 -1.8005
16603TIP3    H271225   0.053   1.745  15.220 -0.3144  0.0857 -0.3944
16604TIP3   OH271226   6.092   3.916   2.684 -0.1318 -0.4213  0.1425
16604TIP3    H171227   6.086   3.822   2.672  0.8328 -0.3356 -1.1606
16604TIP3    H271228   6.069   3.930   2.776 -1.9198 -1.7401 -0.0424
16605TIP3   OH271229   1.237   4.862  14.518 -0.6952 -0.4237 -0.1953
16605TIP3    H171230   1.146   4.838  14.536 -0.7045  1.0487  2.0997
16605TIP3    H271231   1.247   4.948  14.559  2.1506 -1.2308  1.0245
16606TIP3   OH271232   4.724   4.190  16.158 -0.2141 -0.1476 -0.0481
16606TIP3    H171233   4.744   4.257  16.223  0.0878  0.5250 -0.8254
16606TIP3    H271234   4.656   4.228  16.103 -0.2191 -0.5768 -0.3480
16607TIP3   OH271235   3.866   1.932   2.413  0.3958  0.3902  0.2398
16607TIP3    H171236   3.812   1.910   2.489  0.9468  0.7216  0.7296
16607TIP3    H271237   3.804   1.936   2.340  0.1962 -2.7308  0.0798
16608TIP3   OH271238   6.721   6.780   2.905  0.7214 -0.1380  0.1230
16608TIP3    H171239   6.730   6.740   2.992  1.4770  0.0011  0.1198
16608TIP3    H271240   6.747   6.871   2.918 -1.9800  0.7003  0.3528
16609TIP3   OH271241   2.309   3.601  15.155 -0.1965 -0.7557 -0.1318
16609TIP3    H171242   2.227   3.648  15.173 -0.4829 -1.1793 -0.3003
16609TIP3    H271243   2.288   3.546  15.080  0.2691 -0.8166 -0.2148
16610TIP3   OH271244   2.084   0.029   3.010  0.8123 -0.4491  0.0620
16610TIP3    H171245   2.023  -0.039   3.040  0.5210 -0.6182 -0.8772
16610TIP3    H271246   2.097   0.085   3.086 -1.1886  0.0832  0.0528
16611TIP3   OH271247   4.668   3.692   5.588 -0.3008  0.2520  0.3362
16611TIP3    H171248   4.642   3.781   5.612 -1.6968  0.2836 -1.1262
16611TIP3    H271249   4.602   3.636   5.628  0.9852 -0.2448  1.8846
16612TIP3   OH271250   3.897   5.187   0.254 -0.1918  0.3897 -0.2345
16612TIP3    H171251   3.929   5.228   0.173 -0.4608 -4.0001 -2.8730
16612TIP3    H271252   3.802   5.191   0.246 -0.2346 -1.2591 -0.9390
16613TIP3   OH271253   1.410   1.279   5.098  0.0690 -0.0508 -0.1345
16613TIP3    H171254   1.362   1.291   5.179  0.6707  2.1793 -0.0450
16613TIP3    H271255   1.350   1.309   5.030 -0.5273 -2.1374 -0.6079
16614TIP3   OH271256   0.990   4.985   1.633  0.0808 -0.1018 -0.3764
16614TIP3    H171257   1.042   4.906   1.620 -0.5842 -0.6127 -0.0231
16614TIP3    H271258   0.933   4.964   1.708 -0.4787  0.5147 -0.6175
16615TIP3   OH271259   0.742   1.761   2.099 -0.0048 -0.5244 -0.4479
16615TIP3    H171260   0.788   1.846   2.097  0.6032 -0.8530 -1.9056
16615TIP3    H271261   0.650   1.784   2.112  0.1698  0.3605 -0.7023
16616TIP3   OH271262   3.440   4.583   5.346  0.2507  0.3049  0.0548
16616TIP3    H171263   3.475   4.667   5.317  1.3992 -0.1068  0.2238
16616TIP3    H271264   3.513   4.522   5.339 -0.8167 -0.9116 -0.9932
16617TIP3   OH271265   6.119   4.448   1.770 -0.0042  0.4080 -0.0904
16617TIP3    H171266   6.055   4.517   1.752 -0.4228 -0.5243 -2.7001
16617TIP3    H271267   6.173   4.444   1.691  1.2456 -0.9625  0.7752
16618TIP3   OH271268   5.885   1.775  15.849 -0.0494 -0.2389 -0.2485
16618TIP3    H171269   5.949   1.719  15.806  0.1057  0.0396 -0.3836
16618TIP3    H271270   5.821   1.794  15.780 -0.4825 -0.8212 -0.0153
16619TIP3   OH271271   4.586   0.039   3.666  0.3040 -0.0188 -0.0440
16619TIP3    H171272   4.524  -0.019   3.711 -0.4042  1.4507  0.9527
16619TIP3    H271273   4.640   0.075   3.736  0.6668  0.5950 -0.6354
16620TIP3   OH271274   3.360   2.256   0.471  0.3108  0.5777  0.1274
16620TIP3    H171275   3.374   2.229   0.380  2.3262  0.4480  0.4342
16620TIP3    H271276   3.280   2.211   0.497  0.5389 -0.6279 -1.1099
16621TIP3   OH271277   5.911   4.605   1.636 -0.0666  1.1149  0.3079
16621TIP3    H171278   5.859   4.525   1.626  0.0182  1.1293 -0.2607
16621TIP3    H271279   5.847   4.675   1.641 -0.1041  1.2468 -1.4046
16622TIP3   OH271280   1.623   1.184   2.751  0.3617 -0.5101 -0.7898
16622TIP3    H171281   1.708   1.211   2.716  0.7188 -2.0254 -1.1886
16622TIP3    H271282   1.633   1.090   2.766 -0.9255 -0.5248  0.1274
16623TIP3   OH271283   4.380   3.812   2.635  0.0806 -0.1018  0.2086
16623TIP3    H171284   4.422   3.753   2.572  0.8334  1.7054 -1.0758
16623TIP3    H271285   4.436   3.810   2.712  0.1558 -0.9505  0.1422
16624TIP3   OH271286   4.995   2.006   2.869  0.7600 -0.1656 -0.6891
16624TIP3    H171287   5.040   1.985   2.787 -1.3370  0.0734 -1.9612
16624TIP3    H271288   4.943   1.928   2.888  1.7790 -0.5137  0.8635
16625TIP3   OH271289   1.700   2.810  14.702  0.3078  0.1753  0.0500
16625TIP3    H171290   1.640   2.853  14.641  1.2417  1.7007  0.1407
16625TIP3    H271291   1.766   2.769  14.646  0.2551  0.1610 -0.0016
16626TIP3   OH271292   5.071   2.023   6.591  0.4652  0.0832  0.1695
16626TIP3    H171293   5.110   2.011   6.678 -0.4594  0.4333  0.6411
16626TIP3    H271294   4.989   2.069   6.608 -0.8405 -1.7961 -0.6648
16627TIP3   OH271295   1.824   3.318  15.906 -0.6712  0.0837 -1.0117
16627TIP3    H171296   1.753   3.358  15.857  0.7653  0.9606 -2.4403
16627TIP3    H271297   1.876   3.272  15.840 -0.3335 -1.2399  0.1199
16628TIP3   OH271298   2.864   0.056   2.162  0.0296 -0.2944  0.1953
16628TIP3    H171299   2.817   0.121   2.111 -1.6121 -1.9388 -0.5200
16628TIP3    H271300   2.947   0.043   2.115 -0.0314  0.5747 -0.1670
16629TIP3   OH271301   4.453   5.808  12.307  0.4315  0.6415  0.3574
16629TIP3    H171302   4.440   5.882  12.248 -1.4877  2.1665  2.4909
16629TIP3    H271303   4.535   5.827  12.352 -0.1958  1.7193  1.1053
16630TIP3   OH271304   0.191   5.431  11.343  0.0586 -0.2146 -0.3061
16630TIP3    H171305   0.101   5.428  11.311 -0.1779  0.3990  0.2832
16630TIP3    H271306   0.242   5.462  11.268 -0.4546  0.9651 -0.1865
16631TIP3   OH271307   5.074   1.809   4.490  0.2261  0.0495 -0.0466
16631TIP3    H171308   5.055   1.742   4.555  0.8107 -1.1037 -1.0383
16631TIP3    H271309   4.998   1.808   4.431  0.2459  0.2466 -0.0782
16632TIP3   OH271310   1.337   2.507  13.018 -0.0914  0.0582 -0.2575
16632TIP3    H171311   1.318   2.600  13.014 -2.2620 -0.3192  0.1496
16632TIP3    H271312   1.356   2.490  13.110 -0.0189  0.0344 -0.2770
16633TIP3   OH271313   4.700   6.508   3.228  0.2944 -0.4356  0.1751
16633TIP3    H171314   4.708   6.585   3.286 -0.3709  0.5887 -1.0318
16633TIP3    H271315   4.669   6.545   3.145 -0.0958 -2.0371 -0.4132
16634TIP3   OH271316   1.676   2.953  14.199 -0.4486 -0.1075 -0.1765
16634TIP3    H171317   1.633   2.889  14.142  1.1022 -1.2095 -0.1679
16634TIP3    H271318   1.617   3.028  14.200 -2.4140 -1.5944 -0.0418
16635TIP3   OH271319   5.458   4.493   0.944  0.1441  0.5371  0.3841
16635TIP3    H171320   5.407   4.415   0.966 -1.2444  0.2629 -3.0551
16635TIP3    H271321   5.393   4.563   0.936  1.0656  1.5107  1.1915
16636TIP3   OH271322   4.375   5.013  16.755 -0.2009  0.4186  0.3653
16636TIP3    H171323   4.469   4.996  16.751 -0.4438 -0.8777 -0.4022
16636TIP3    H271324   4.366   5.077  16.825  1.0849 -0.7016  1.6453
16637TIP3   OH271325   3.189   6.568  11.692 -0.1116  0.3015  0.1769
16637TIP3    H171326   3.159   6.544  11.779  0.9117 -0.5152  0.3321
16637TIP3    H271327   3.117   6.546  11.634 -0.9885  1.3069  0.8534
16638TIP3   OH271328   6.569   3.128  14.464  0.6900  1.0158  0.1546
16638TIP3    H171329   6.539   3.050  14.510  2.2546 -0.2306 -0.8510
16638TIP3    H271330   6.518   3.130  14.384  1.2105  0.5545 -0.1936
16639TIP3   OH271331   4.484   2.872  13.706  0.1214  0.0682  0.0955
16639TIP3    H171332   4.566   2.913  13.677  0.0267  2.5048  2.8485
16639TIP3    H271333   4.453   2.824  13.629  2.5823  1.5360 -1.9769
16640TIP3   OH271334   3.820   2.209  11.400 -0.8699  0.3576  0.0662
16640TIP3    H171335   3.908   2.245  11.410 -1.1623  2.0339 -2.4172
16640TIP3    H271336   3.771   2.244  11.474  0.2832  0.2302  0.9230
16641TIP3   OH271337   6.518   2.368   6.418 -0.5930  0.1720 -0.1243
16641TIP3    H171338   6.588   2.381   6.354 -2.0909 -0.7227 -2.0480
16641TIP3    H271339   6.490   2.456   6.441  1.2540  0.5559  0.8443
16642TIP3   OH271340   3.497   1.026   0.657 -0.1781 -0.0374  0.0362
16642TIP3    H171341   3.549   1.068   0.726  0.2988  1.4235 -1.1361
16642TIP3    H271342   3.556   1.025   0.581  0.4578 -4.4007  0.3344
16643TIP3   OH271343   0.290   2.220   0.132 -0.2076 -0.8019 -0.1215
16643TIP3    H171344   0.385   2.215   0.129  0.1536  1.9641  2.0527
16643TIP3    H271345   0.267   2.186   0.219 -0.8726  1.1148  0.4981
16644TIP3   OH271346   6.775   1.106   5.702 -0.1928 -0.4255  1.0013
16644TIP3    H171347   6.789   1.171   5.633 -1.1043  1.2221  2.3076
16644TIP3    H271348   6.687   1.072   5.687  0.1110 -1.0600  0.5908
16645TIP3   OH271349   3.343   5.934  13.994 -0.2492 -0.3645 -0.1448
16645TIP3    H171350   3.275   5.939  13.927 -0.4883 -1.7808 -0.0410
16645TIP3    H271351   3.425   5.927  13.946 -0.2590  0.2646 -0.2677
16646TIP3   OH271352   6.291   2.995   0.117  0.5116  0.0679 -0.2616
16646TIP3    H171353   6.386   3.004   0.125  0.4938 -0.0030  0.0639
16646TIP3    H271354   6.259   2.996   0.207  0.1910  0.2182 -0.3738
16647TIP3   OH271355   2.317   3.313  15.620  0.3121  0.1743  0.5403
16647TIP3    H171356   2.315   3.364  15.540  1.0936  0.0793  0.4518
16647TIP3    H271357   2.410   3.290  15.631 -0.2429 -3.2696 -0.7509
16648TIP3   OH271358   1.362   5.801   3.161 -0.5098  0.4382  0.3720
16648TIP3    H171359   1.299   5.873   3.160  0.0138  0.9149  0.8354
16648TIP3    H271360   1.420   5.822   3.234 -0.6829 -0.7461  0.8746
16649TIP3   OH271361   4.108   3.584  17.146  0.1875  0.0630 -0.1029
16649TIP3    H171362   4.086   3.493  17.162 -1.2508  0.1071 -1.5185
16649TIP3    H271363   4.065   3.632  17.217  0.9782 -0.3557  0.6617
16650TIP3   OH271364   0.105   6.585   5.771  0.5319 -0.3263  0.1331
16650TIP3    H171365   0.097   6.498   5.809  1.5301 -0.6610 -0.3964
16650TIP3    H271366   0.033   6.591   5.708  1.6305 -1.5725 -1.3324
16651TIP3   OH271367   4.941   4.410   4.355  0.4794  0.2942 -0.7673
16651TIP3    H171368   4.902   4.433   4.439  0.1736 -0.2283 -0.7623
16651TIP3    H271369   4.888   4.337   4.323  0.0016  1.0756 -1.8529
16652TIP3   OH271370   5.719   3.973  14.656  0.5986  0.6348 -0.2148
16652TIP3    H171371   5.640   3.936  14.696  0.3598 -0.2016 -1.3982
16652TIP3    H271372   5.792   3.934  14.706  0.2922  1.6209  1.0604
16653TIP3   OH271373   2.333   1.361   4.120  0.8086  0.5980  0.1836
16653TIP3    H171374   2.331   1.440   4.066 -1.8701  0.7694  0.3879
16653TIP3    H271375   2.407   1.375   4.180  0.9242  2.5627 -0.3395
16654TIP3   OH271376   4.436   2.032   3.904  0.1313  0.5556  0.3314
16654TIP3    H171377   4.531   2.046   3.906  0.0754  0.9480  0.3805
16654TIP3    H271378   4.399   2.118   3.924 -0.2396  0.4691  0.0204
16655TIP3   OH271379   5.569   0.256   1.762  0.2249 -0.3914 -0.0824
16655TIP3    H171380   5.662   0.257   1.784  0.6153  1.4279 -1.6235
16655TIP3    H271381   5.565   0.210   1.678 -0.4669 -1.6440  0.6063
16656TIP3   OH271382   2.186   6.044  13.018 -0.3826  0.1646 -0.7270
16656TIP3    H171383   2.134   6.114  12.978 -0.7979 -0.9442 -2.2411
16656TIP3    H271384   2.199   6.072  13.108 -2.1525  1.2880 -0.7694
16657TIP3   OH271385   0.441   2.325  12.950  0.1009 -0.6118  0.1830
16657TIP3    H171386   0.489   2.408  12.950 -0.2993 -0.3731 -0.3792
16657TIP3    H271387   0.356   2.347  12.986 -0.5685 -0.4208 -1.4257
16658TIP3   OH271388   5.693   1.895  13.506 -0.4969 -0.2711 -0.4699
16658TIP3    H171389   5.753   1.958  13.545  0.4141 -1.4314  0.0796
16658TIP3    H271390   5.713   1.898  13.413 -0.8903  0.6764 -0.5329
16659TIP3   OH271391   4.086   6.138   4.765 -0.3720  0.1438  0.2668
16659TIP3    H171392   4.054   6.223   4.796 -1.3531  0.2343 -0.8870
16659TIP3    H271393   4.177   6.134   4.795 -0.6246  1.1333  1.2399
16660TIP3   OH271394   3.761   0.722   1.455  0.0866  0.3138  0.0143
16660TIP3    H171395   3.705   0.792   1.423 -2.0649 -0.7625  1.1871
16660TIP3    H271396   3.805   0.758   1.532 -0.4397  0.6068  0.1795
16661TIP3   OH271397   1.690   4.016  12.281 -0.0781 -0.1721  0.4366
16661TIP3    H171398   1.697   4.052  12.192  0.3320  0.4056  0.6965
16661TIP3    H271399   1.764   4.055  12.328 -1.2507  0.8602  1.4820
16662TIP3   OH271400   2.525   4.516  12.380 -1.1269  0.1948 -0.1530
16662TIP3    H171401   2.573   4.579  12.326 -1.7033 -1.6455 -3.0224
16662TIP3    H271402   2.591   4.482  12.441  0.2279  0.5768 -1.3505
16663TIP3   OH271403   5.796   6.177  13.036 -0.1192  0.0502  0.6252
16663TIP3    H171404   5.706   6.165  13.066  0.0473 -1.2590  0.6509
16663TIP3    H271405   5.833   6.089  13.035  1.5248  0.6878  1.7298
16664TIP3   OH271406   2.115   1.314   3.910  0.1590  0.1753 -0.0131
16664TIP3    H171407   2.089   1.400   3.943 -1.7755  0.1592 -1.2987
16664TIP3    H271408   2.177   1.333   3.840  0.8054  0.4405  0.6254
16665TIP3   OH271409   5.329   2.198   1.423  0.2823  0.1097 -0.0270
16665TIP3    H171410   5.283   2.267   1.375  1.6165  2.0696  1.3577
16665TIP3    H271411   5.302   2.210   1.514  1.2853 -0.5732  0.3786
16666TIP3   OH271412   4.792   3.042   2.620 -0.0191  0.4729  0.2630
16666TIP3    H171413   4.718   2.987   2.646  1.0423 -0.7457  0.8576
16666TIP3    H271414   4.832   3.068   2.703  0.0648  1.3633 -0.0441
16667TIP3   OH271415   6.455   2.917   6.534  0.2505  0.8021  0.0934
16667TIP3    H171416   6.394   2.989   6.555  0.3835  0.5882  1.2625
16667TIP3    H271417   6.536   2.941   6.577  0.0074 -0.5285  1.3544
16668TIP3   OH271418   4.634   4.736  15.414 -0.4428 -0.2941 -0.2145
16668TIP3    H171419   4.629   4.816  15.466  1.1847  0.8955 -1.7814
16668TIP3    H271420   4.669   4.764  15.330 -0.8542 -2.5105 -1.1968
16669TIP3   OH271421   4.821   0.681  14.606 -0.1365 -0.4155 -0.2371
16669TIP3    H171422   4.756   0.656  14.540 -0.2184  0.5685 -0.5495
16669TIP3    H271423   4.861   0.761  14.571  0.5878 -0.4898  0.3950
16670TIP3   OH271424   4.374   2.238   6.764  0.6921  0.2693 -0.2089
16670TIP3    H171425   4.357   2.283   6.846  0.5927 -2.0887  1.1699
16670TIP3    H271426   4.310   2.274   6.703  0.6881  2.0016  0.7535
16671TIP3   OH271427   1.236   5.921   0.998 -0.1823 -0.7240  0.1056
16671TIP3    H171428   1.178   5.847   0.979 -0.6485 -0.1329 -0.8830
16671TIP3    H271429   1.224   5.980   0.923  1.6658 -0.5604 -0.0889
16672TIP3   OH271430   3.239   3.572   2.556  0.6618 -0.1871 -0.5858
16672TIP3    H171431   3.227   3.539   2.466 -0.5376  0.5679 -0.7254
16672TIP3    H271432   3.151   3.598   2.584  0.7857 -1.5862  1.2956
16673TIP3   OH271433   2.645   4.151   0.911  0.4334  0.1282  0.1032
16673TIP3    H171434   2.600   4.234   0.929  1.4963  0.4887  1.1497
16673TIP3    H271435   2.650   4.107   0.996  0.3026 -0.8042 -0.3611
16674TIP3   OH271436   0.605   0.483  16.743  0.1393 -0.3438 -0.8445
16674TIP3    H171437   0.635   0.397  16.713  2.0778 -0.1743  0.4456
16674TIP3    H271438   0.662   0.504  16.817 -1.6027  1.1797  0.1518
16675TIP3   OH271439   4.685   5.616   0.541  0.2833 -0.0660 -0.0163
16675TIP3    H171440   4.674   5.708   0.566  1.1973 -0.0574  0.3934
16675TIP3    H271441   4.728   5.576   0.617  0.5538 -0.6719 -0.4847
16676TIP3   OH271442   0.867   2.626   3.498 -0.0592  0.2235 -0.1627
16676TIP3    H171443   0.856   2.683   3.574  2.2485  0.3711  0.1306
16676TIP3    H271444   0.777   2.608   3.468 -0.9575  1.3955  1.6491
16677TIP3   OH271445   0.276   2.965  12.246  0.2495  0.2912  0.2521
16677TIP3    H171446   0.201   3.024  12.245  0.7444  0.9324  0.3864
16677TIP3    H271447   0.279   2.932  12.336 -1.1113 -1.3803 -0.2546
16678TIP3   OH271448   0.994   1.440  13.431  0.0238  0.1929  0.0379
16678TIP3    H171449   0.989   1.388  13.351 -2.4857  1.1665 -0.5145
16678TIP3    H271450   0.975   1.378  13.501  1.6658 -0.5453 -0.1366
16679TIP3   OH271451   1.810   3.137   5.635  0.2978  0.5201 -0.5863
16679TIP3    H171452   1.855   3.129   5.719 -2.0302  1.6145  0.8647
16679TIP3    H271453   1.843   3.219   5.598  0.4481  0.6559 -0.1609
16680TIP3   OH271454   0.343   5.022  14.899 -0.0959 -0.3487  0.2636
16680TIP3    H171455   0.384   5.100  14.934 -0.9112 -0.1502  0.8040
16680TIP3    H271456   0.407   4.986  14.838  0.5514  0.3707  0.5112
16681TIP3   OH271457   0.573   2.010   3.894  0.5957 -0.3520 -0.0545
16681TIP3    H171458   0.510   1.983   3.827  1.5721  2.8930 -2.5261
16681TIP3    H271459   0.521   2.063   3.955  0.1586 -1.4096  0.5325
16682TIP3   OH271460   4.729   3.763   0.651 -0.4536 -0.0395  0.5440
16682TIP3    H171461   4.648   3.753   0.601 -0.1271 -1.3975  0.2531
16682TIP3    H271462   4.781   3.825   0.598 -0.8245 -0.0718  0.1329
16683TIP3   OH271463   2.563   2.448  14.639  0.2498  0.2957 -0.2785
16683TIP3    H171464   2.469   2.457  14.655 -0.1008 -0.2233 -1.8688
16683TIP3    H271465   2.585   2.521  14.580  0.3871 -0.7597 -1.5777
16684TIP3   OH271466   5.383   1.584  14.970 -0.1964  0.1788  0.2181
16684TIP3    H171467   5.388   1.623  15.057 -4.1873  0.1021  0.6640
16684TIP3    H271468   5.380   1.658  14.910 -0.6797  0.3390  0.4392
16685TIP3   OH271469   5.952   1.790   4.588  0.0653  0.1089  0.2404
16685TIP3    H171470   5.867   1.773   4.547  0.4163  0.9424 -0.8801
16685TIP3    H271471   5.933   1.852   4.658 -0.2257  0.4240 -0.1153
16686TIP3   OH271472   5.859   6.342   4.100 -0.3267  0.7249 -0.3671
16686TIP3    H171473   5.903   6.301   4.174  0.9174  1.3630 -0.7387
16686TIP3    H271474   5.925   6.398   4.060 -1.2106  1.0049 -1.4924
16687TIP3   OH271475   5.936   1.775   4.884  0.1273 -0.7102 -0.4045
16687TIP3    H171476   5.995   1.825   4.941 -0.8309 -0.4261  0.3460
16687TIP3    H271477   5.857   1.763   4.936 -1.1510  0.3973 -2.0201
16688TIP3   OH271478   6.140   0.008   0.361 -0.2759 -0.1167 -0.2987
16688TIP3    H171479   6.078  -0.063   0.379  0.2995 -0.5077  0.1705
16688TIP3    H271480   6.135   0.065   0.437 -1.4739  0.9158 -1.1043
16689TIP3   OH271481   2.596   5.205   5.221  0.0890 -0.3803 -0.3440
16689TIP3    H171482   2.527   5.271   5.210  0.1780  0.0886  1.6299
16689TIP3    H271483   2.590   5.151   5.141 -0.4761  1.5227 -1.6541
16690TIP3   OH271484   4.424   4.437   4.745 -0.4063  0.0607  0.2549
16690TIP3    H171485   4.381   4.517   4.773  1.2314  0.2248  2.6169
16690TIP3    H271486   4.513   4.443   4.781 -0.1720 -2.7432  0.4188
16691TIP3   OH271487   3.703   0.427  16.549 -0.7974  0.0467  0.0247
16691TIP3    H171488   3.676   0.445  16.639 -1.2560 -2.3041  0.4047
16691TIP3    H271489   3.756   0.503  16.524 -0.9592  0.8994  2.1350
16692TIP3   OH271490   5.247   6.301   3.137 -0.3347 -0.1010 -0.1092
16692TIP3    H171491   5.219   6.320   3.226 -0.8477  0.7097 -0.4275
16692TIP3    H271492   5.186   6.234   3.106 -0.8324  0.3809 -0.1969
16693TIP3   OH271493   4.870   2.940  12.719  0.4130 -0.6916 -0.0554
16693TIP3    H171494   4.950   2.886  12.717  1.2174  0.4692 -0.5008
16693TIP3    H271495   4.801   2.879  12.744  1.3401 -1.8631 -0.2277
16694TIP3   OH271496   1.485   4.616  14.410 -0.0273 -0.5102  0.3739
16694TIP3    H171497   1.560   4.557  14.403  0.0309 -0.3237 -0.7877
16694TIP3    H271498   1.491   4.652  14.499  2.1910  0.7205 -0.1886
16695TIP3   OH271499   2.645   5.605  13.435 -0.1960 -0.0276  0.6477
16695TIP3    H171500   2.724   5.612  13.381 -0.0038 -0.8270  0.8221
16695TIP3    H271501   2.630   5.511  13.444 -1.4017  0.1052  0.2780
16696TIP3   OH271502   0.781   2.663   1.928 -0.0833 -0.2804  0.0533
16696TIP3    H171503   0.815   2.633   1.844  0.4813  1.7945 -0.5144
16696TIP3    H271504   0.846   2.727   1.959 -0.5552 -0.5892  1.8209
16697TIP3   OH271505   4.919   4.521   4.996  0.0821  0.1266  0.1109
16697TIP3    H171506   4.985   4.484   5.055  0.0563 -1.2167 -0.6749
16697TIP3    H271507   4.964   4.595   4.955  0.9366 -0.4477 -0.0266
16698TIP3   OH271508   5.527   4.900   2.681  0.4289 -0.7858  0.3367
16698TIP3    H171509   5.486   4.821   2.646  0.4982 -0.8676  0.4411
16698TIP3    H271510   5.508   4.898   2.775 -1.7541  0.6080 -0.0141
16699TIP3   OH271511   5.323   3.103  15.716 -0.3220  0.7414  0.1737
16699TIP3    H171512   5.412   3.118  15.747 -0.7222  1.0987  1.2020
16699TIP3    H271513   5.301   3.181  15.665 -0.1313  0.7610  0.1236
16700TIP3   OH271514   0.097   0.315  13.205  0.0623 -0.3418  0.0056
16700TIP3    H171515   0.101   0.296  13.299 -2.0558 -0.1324  0.1904
16700TIP3    H271516   0.087   0.410  13.200 -1.8967 -0.5061 -0.2671
16701TIP3   OH271517   6.343   4.730  12.376  0.0478  0.6351  0.4555
16701TIP3    H171518   6.281   4.715  12.305 -0.8656  0.0213  1.3567
16701TIP3    H271519   6.303   4.800  12.428  0.0371  0.1468  1.1130
16702TIP3   OH271520   3.584   5.235  11.222  0.0388 -0.6200  0.7230
16702TIP3    H171521   3.648   5.176  11.261 -0.0671 -0.6134  0.9113
16702TIP3    H271522   3.529   5.179  11.168 -1.8105 -1.2161  3.0537
16703TIP3   OH271523   1.911   1.099   2.847 -0.5805  0.1756  0.6694
16703TIP3    H171524   1.863   1.023   2.880 -0.7092  0.9031  2.2568
16703TIP3    H271525   2.003   1.075   2.856 -0.5986 -0.4549 -0.5326
16704TIP3   OH271526   6.432   4.089  16.093  0.0880 -0.0777 -0.2116
16704TIP3    H171527   6.433   4.018  16.029 -0.8143 -0.3004  0.0089
16704TIP3    H271528   6.378   4.056  16.165 -1.0417  1.1349 -0.4708
16705TIP3   OH271529   2.809   4.658   4.185  0.1305  0.2021  0.6035
16705TIP3    H171530   2.814   4.736   4.240 -0.5649  0.2704  0.5851
16705TIP3    H271531   2.790   4.692   4.097 -0.1667  0.0214  0.5943
16706TIP3   OH271532   2.468   5.448  14.727 -0.0178 -0.4733 -0.1670
16706TIP3    H171533   2.469   5.407  14.641 -2.1483  0.8457 -0.9083
16706TIP3    H271534   2.560   5.464  14.747  0.4984  1.0630 -3.1654
16707TIP3   OH271535   5.971   0.711  15.012 -0.0388  0.1229 -0.3180
16707TIP3    H171536   5.948   0.675  15.097  1.6572 -1.8438 -0.5987
16707TIP3    H271537   6.024   0.643  14.971  1.7188  2.2146 -1.7497
16708TIP3   OH271538   1.823   0.386  14.303  0.4724  0.4712  0.0022
16708TIP3    H171539   1.792   0.356  14.389 -1.5736 -0.5207 -0.9995
16708TIP3    H271540   1.767   0.339  14.240  1.5227  1.6054 -1.8616
16709TIP3   OH271541   4.435   0.805  16.922 -0.3680  0.0531  0.5187
16709TIP3    H171542   4.420   0.819  17.015 -0.9493  1.4629  0.2272
16709TIP3    H271543   4.486   0.881  16.894 -2.1443  0.8379 -0.7707
16710TIP3   OH271544   6.320   3.398  11.629 -0.2957  0.4512 -0.3868
16710TIP3    H171545   6.406   3.423  11.594  0.1512  0.5967  0.7568
16710TIP3    H271546   6.261   3.467  11.600  0.5592  1.9405  1.2020
16711TIP3   OH271547   1.189   3.622   5.708  0.0118 -0.0644  0.1611
16711TIP3    H171548   1.093   3.618   5.709  0.0060 -1.7680 -1.2443
16711TIP3    H271549   1.209   3.715   5.700 -1.5963  0.2168 -1.0804
16712TIP3   OH271550   6.304   4.423  12.577  0.6879  0.4018  0.0805
16712TIP3    H171551   6.277   4.461  12.661 -2.2260  2.1539 -1.4770
16712TIP3    H271552   6.279   4.489  12.512 -0.6663 -2.4083 -2.4745
16713TIP3   OH271553   2.009   0.776   3.331  0.3173 -0.1596  0.1509
16713TIP3    H171554   1.947   0.775   3.404  1.4572 -0.3066  1.1517
16713TIP3    H271555   2.011   0.686   3.300  1.0667 -0.4772  1.0580
16714TIP3   OH271556   1.872   1.021   2.581  0.1308 -0.2308 -0.1075
16714TIP3    H171557   1.898   1.083   2.649 -1.7435  1.9568 -1.2531
16714TIP3    H271558   1.955   0.985   2.549  1.2904  1.4776  0.8255
16715TIP3   OH271559   0.840   3.815  14.132  0.1085  0.0563 -0.6335
16715TIP3    H171560   0.840   3.724  14.160  1.7816  0.8184  2.2473
16715TIP3    H271561   0.916   3.823  14.074 -0.2281 -0.4116 -1.1506
16716TIP3   OH271562   1.031   2.847   2.006  0.1879  0.0516  0.0707
16716TIP3    H171563   1.022   2.812   2.094  1.2758 -0.2590  0.0705
16716TIP3    H271564   1.114   2.893   2.006 -0.8643  2.0402 -0.1574
16717TIP3   OH271565   6.226   5.843   1.709 -0.1669 -0.4927 -0.4259
16717TIP3    H171566   6.156   5.888   1.661 -1.4106 -1.4438  0.4415
16717TIP3    H271567   6.268   5.912   1.760 -2.5298 -0.3216  1.4766
16718TIP3   OH271568   6.025   2.659   3.362 -0.6744 -0.4815 -0.5659
16718TIP3    H171569   5.988   2.679   3.276 -3.1869 -1.7217  0.1485
16718TIP3    H271570   6.050   2.567   3.358 -2.5333 -1.0911  0.5259
16719TIP3   OH271571   3.138   5.893  16.980 -0.1460  0.4277 -0.9609
16719TIP3    H171572   3.185   5.959  16.929  0.8820  1.5338  1.2998
16719TIP3    H271573   3.200   5.820  16.987  0.1138  0.6999 -0.4220
16720TIP3   OH271574   0.757   5.838  13.433 -0.0143  0.0132  0.4228
16720TIP3    H171575   0.675   5.790  13.418 -1.0886  1.8822 -0.0357
16720TIP3    H271576   0.811   5.779  13.485 -1.1003 -1.8231 -0.4517
16721TIP3   OH271577   1.506   4.678  15.107  0.1345 -0.0009 -0.0145
16721TIP3    H171578   1.576   4.729  15.067  0.9266 -0.3991  0.8447
16721TIP3    H271579   1.550   4.607  15.154 -0.7276  0.6426  1.8634
16722TIP3   OH271580   2.231   4.116   5.593 -0.6111 -0.3707 -0.5633
16722TIP3    H171581   2.245   4.042   5.533 -1.2180  0.2047 -1.4375
16722TIP3    H271582   2.293   4.182   5.564 -1.2702  0.1094 -0.9068
16723TIP3   OH271583   5.111   3.540   2.722 -0.1771  0.6703  0.4308
16723TIP3    H171584   5.112   3.461   2.776 -1.3332 -0.0370 -0.5205
16723TIP3    H271585   5.068   3.605   2.776  0.2587  0.4843  1.0106
16724TIP3   OH271586   3.978   1.187  12.360 -0.2927  0.7542  0.6816
16724TIP3    H171587   4.022   1.272  12.354  1.3929 -0.1722 -0.9340
16724TIP3    H271588   3.910   1.190  12.292 -0.9344  1.1515  1.3186
16725TIP3   OH271589   4.043   5.538  14.130 -0.2130  0.4639 -0.4185
16725TIP3    H171590   4.055   5.466  14.068 -0.7453  0.7326 -0.8445
16725TIP3    H271591   4.131   5.556  14.164 -0.4277 -2.5597  2.2274
16726TIP3   OH271592   4.384   2.159  12.069  0.2842 -0.1985 -0.1420
16726TIP3    H171593   4.337   2.098  12.126  0.6741 -2.5597 -2.1935
16726TIP3    H271594   4.346   2.245  12.090 -1.1978 -1.2781  1.9598
16727TIP3   OH271595   4.578   1.699  17.207 -0.4053 -0.2282  0.0177
16727TIP3    H171596   4.632   1.624  17.234  0.3035  0.1584 -0.2910
16727TIP3    H271597   4.641   1.771  17.199 -0.5111 -0.3611 -2.8825
16728TIP3   OH271598   2.306   1.767   5.258 -0.7693 -0.0225 -0.1800
16728TIP3    H171599   2.346   1.789   5.342 -1.3176 -1.9100  0.6326
16728TIP3    H271600   2.265   1.848   5.229 -1.1482  0.5208  1.7130
16729TIP3   OH271601   5.142   2.665  14.007  0.0392 -0.3935  0.1920
16729TIP3    H171602   5.203   2.626  14.069  3.6829  1.6106 -1.8277
16729TIP3    H271603   5.087   2.723  14.060  2.1813  0.3117  1.7796
16730TIP3   OH271604   3.100   3.584  12.948  0.1082 -0.1301 -0.0006
16730TIP3    H171605   3.062   3.627  12.871 -0.7033 -1.0493 -0.1284
16730TIP3    H271606   3.075   3.640  13.022 -1.7116 -0.8027 -0.0536
16731TIP3   OH271607   1.859   4.440  12.729  0.6761 -0.2160 -0.4665
16731TIP3    H171608   1.905   4.426  12.647  1.6663  0.0701  0.0265
16731TIP3    H271609   1.926   4.430  12.797 -0.1133 -0.4223  0.3140
16732TIP3   OH271610   2.990   4.751  14.150 -0.3107 -0.0916 -0.2058
16732TIP3    H171611   3.001   4.837  14.110  1.0038  0.2432  0.8072
16732TIP3    H271612   2.993   4.768  14.244 -1.3297 -1.1043  0.0319
16733TIP3   OH271613   2.579   2.242   2.441  0.4003  0.0701  0.3773
16733TIP3    H171614   2.584   2.196   2.357 -0.5286  0.2765  0.1993
16733TIP3    H271615   2.514   2.193   2.491 -0.7688  1.2913  0.1079
16734TIP3   OH271616   1.824   6.745  10.986 -0.3231  0.1775 -0.3089
16734TIP3    H171617   1.917   6.734  11.006 -0.2515  1.7603  0.3620
16734TIP3    H271618   1.778   6.712  11.063 -0.3547 -0.9885 -0.8082
16735TIP3   OH271619   2.538   1.645  14.159 -0.2179  0.0554 -0.1791
16735TIP3    H171620   2.556   1.554  14.133 -1.6053 -0.2028 -0.3096
16735TIP3    H271621   2.547   1.695  14.077  0.5518  0.0520 -0.1065
16736TIP3   OH271622   1.353   2.912   0.677 -0.4086  0.2122 -0.0234
16736TIP3    H171623   1.319   2.994   0.714  1.4295  1.5249 -1.0540
16736TIP3    H271624   1.376   2.934   0.587  1.3182 -1.0595  0.0437
16737TIP3   OH271625   4.708   1.257   1.676 -0.0540  0.0401 -0.0158
16737TIP3    H171626   4.631   1.210   1.646  0.1608  0.5995 -1.5146
16737TIP3    H271627   4.779   1.228   1.618  0.6063  0.3952  0.5954
16738TIP3   OH271628   5.835   1.098   6.242 -0.5737 -0.1376 -0.1617
16738TIP3    H171629   5.821   1.041   6.317  0.3588  0.7096  0.7098
16738TIP3    H271630   5.929   1.116   6.244 -0.9577  2.1397  0.1799
16739TIP3   OH271631   4.798   6.181   2.008 -0.5263  0.6731  0.4525
16739TIP3    H171632   4.804   6.124   1.932 -1.4566  0.7360  0.3257
16739TIP3    H271633   4.720   6.151   2.055 -0.7212  1.4973  0.6686
16740TIP3   OH271634   1.787   1.247  12.462  0.0448  0.0474  0.0442
16740TIP3    H171635   1.704   1.204  12.484 -0.6002  1.4442  0.4374
16740TIP3    H271636   1.786   1.254  12.366 -0.8796  1.1640  0.1227
16741TIP3   OH271637   2.239   0.825   5.480  0.0075  0.3045  0.1631
16741TIP3    H171638   2.333   0.840   5.479  0.3743 -1.6816 -1.1807
16741TIP3    H271639   2.230   0.731   5.498 -1.6885  0.3263 -0.3974
16742TIP3   OH271640   1.819   6.607   4.159  0.5867 -0.5758 -0.1755
16742TIP3    H171641   1.883   6.676   4.173  1.5939 -1.4992 -0.0581
16742TIP3    H271642   1.866   6.541   4.107 -0.6348 -0.7601 -1.0745
16743TIP3   OH271643   3.055   4.095   5.691  0.2351 -0.2756 -0.6296
16743TIP3    H171644   2.982   4.121   5.635  0.4722 -1.2685 -1.4399
16743TIP3    H271645   3.057   4.160   5.761 -1.9074 -0.6826 -0.1472
16744TIP3   OH271646   5.888   0.232  14.685  0.0018  0.0041 -0.3876
16744TIP3    H171647   5.854   0.242  14.596  0.8734  1.2259 -0.6073
16744TIP3    H271648   5.948   0.158  14.679 -0.7964 -0.6520 -0.5341
16745TIP3   OH271649   3.046   5.059   0.832 -0.0054  0.4062 -0.7642
16745TIP3    H171650   3.135   5.025   0.828 -0.1889 -0.0174 -1.6533
16745TIP3    H271651   2.992   4.989   0.794 -0.7131  0.6653 -0.2548
16746TIP3   OH271652   2.934   5.919  12.315  0.6282 -0.0499 -0.3675
16746TIP3    H171653   2.876   5.879  12.250 -0.1154 -1.5685  1.1520
16746TIP3    H271654   2.994   5.850  12.340  1.6679  0.8631 -0.2744
16747TIP3   OH271655   4.264   3.493   3.213 -0.5157  0.1690  0.0498
16747TIP3    H171656   4.277   3.538   3.296  0.7861 -1.3242  0.7171
16747TIP3    H271657   4.301   3.551   3.148  2.0426 -0.2700  0.9988
16748TIP3   OH271658   3.279   4.811   5.010 -0.3463  0.5197  0.4451
16748TIP3    H171659   3.251   4.752   5.080  0.6722 -0.3584  0.1399
16748TIP3    H271660   3.365   4.778   4.984 -1.7397 -0.8798 -3.0518
16749TIP3   OH271661   6.783   2.215   2.150  0.4450  0.4118  0.3831
16749TIP3    H171662   6.842   2.141   2.167  0.5770  0.5496  0.5255
16749TIP3    H271663   6.793   2.272   2.227  1.5023  1.3516 -0.4148
16750TIP3   OH271664   4.567   2.034   5.268  0.0360 -0.0490  0.4193
16750TIP3    H171665   4.575   1.954   5.320 -0.3336  0.4422  1.2537
16750TIP3    H271666   4.640   2.088   5.297 -0.4508  0.4218  0.7856
16751TIP3   OH271667   6.323   4.800  11.341 -0.1256  0.2515  0.5705
16751TIP3    H171668   6.319   4.773  11.249  1.1756 -0.2597  0.6348
16751TIP3    H271669   6.414   4.828  11.353  0.1024 -1.0116  2.0558
16752TIP3   OH271670   1.825   0.611  10.561 -0.7128 -0.2238 -0.7478
16752TIP3    H171671   1.815   0.620  10.467 -1.4382 -0.0949 -0.6687
16752TIP3    H271672   1.753   0.553  10.587  0.6915 -1.9588 -0.5382
16753TIP3   OH271673   6.415   2.848   3.211 -0.0213  0.2726 -0.3163
16753TIP3    H171674   6.468   2.900   3.150 -0.2056  0.0031 -0.7120
16753TIP3    H271675   6.479   2.805   3.268  0.2881 -1.1652 -1.6783
16754TIP3   OH271676   4.325   1.070   2.630 -0.0648 -0.2339  0.6969
16754TIP3    H171677   4.414   1.042   2.651 -0.1453 -0.0648  1.2893
16754TIP3    H271678   4.269   1.001   2.667 -0.2133  0.0967  1.0872
16755TIP3   OH271679   3.811   1.938   3.472  0.3116 -0.3643  0.4562
16755TIP3    H171680   3.749   1.952   3.400 -0.8805 -0.5000  1.4079
16755TIP3    H271681   3.789   1.851   3.506  1.1493 -0.4843  0.7187
16756TIP3   OH271682   1.501   2.744  12.277  0.6483 -0.0568 -0.2074
16756TIP3    H171683   1.512   2.655  12.243  1.4608  0.1210 -0.4178
16756TIP3    H271684   1.436   2.784  12.220 -0.2609 -0.7378  0.3189
16757TIP3   OH271685   6.677   5.831  15.890 -0.2223  0.2240 -0.1085
16757TIP3    H171686   6.630   5.754  15.921  0.5409  0.3228  1.4065
16757TIP3    H271687   6.763   5.798  15.864 -0.0458  0.5052  0.1163
16758TIP3   OH271688   1.326   1.023  12.283  0.5228  0.1976  0.6726
16758TIP3    H171689   1.365   0.948  12.327 -0.4324 -0.0787  1.0724
16758TIP3    H271690   1.362   1.020  12.194  1.0424 -0.3135  0.8926
16759TIP3   OH271691   3.735   2.595  13.547  0.0274 -0.3379  0.2663
16759TIP3    H171692   3.756   2.512  13.590  0.2061 -0.4619 -0.0531
16759TIP3    H271693   3.655   2.625  13.589  0.1689 -0.4825  0.6473
16760TIP3   OH271694   1.713   2.623   3.621  0.4707  0.6010  0.2634
16760TIP3    H171695   1.772   2.601   3.549 -0.5161 -0.5465 -0.2409
16760TIP3    H271696   1.675   2.539   3.647 -0.9709  1.3091  0.5285
16761TIP3   OH271697   0.290   4.786  15.181 -0.1019 -0.4267  0.2961
16761TIP3    H171698   0.280   4.708  15.235 -0.8520 -1.1627 -0.8545
16761TIP3    H271699   0.340   4.756  15.105  0.8103  0.5510  0.4876
16762TIP3   OH271700   5.765   5.315  11.684 -0.6118 -0.0652  0.2805
16762TIP3    H171701   5.738   5.240  11.630  0.0302 -0.0453 -0.0748
16762TIP3    H271702   5.747   5.391  11.628  0.2613 -0.0570 -0.0034
16763TIP3   OH271703   3.223   4.148   2.413 -0.5275  0.1627  0.0142
16763TIP3    H171704   3.208   4.054   2.429  1.7520 -0.1645  0.7295
16763TIP3    H271705   3.276   4.150   2.333  1.2510  0.6158  1.1438
16764TIP3   OH271706   5.707   5.951   1.077 -0.3856 -0.4032  0.1056
16764TIP3    H171707   5.638   5.897   1.114 -0.8501  0.0299 -0.1090
16764TIP3    H271708   5.671   5.981   0.993 -1.0722  2.0171  1.1601
16765TIP3   OH271709   5.999   0.303  15.110  0.3480 -0.0188 -0.2689
16765TIP3    H171710   6.008   0.365  15.038 -0.6363 -0.1639 -0.5280
16765TIP3    H271711   5.972   0.357  15.185 -1.4793 -0.2235 -0.7311
16766TIP3   OH271712   0.456   5.213   2.235 -0.3790 -0.4623  0.7914
16766TIP3    H171713   0.502   5.132   2.212  0.7305  0.0756  1.0400
16766TIP3    H271714   0.381   5.217   2.175  0.8563 -0.4983 -0.8034
16767TIP3   OH271715   0.796   0.457  15.390  0.6246 -0.1394  0.4426
16767TIP3    H171716   0.846   0.507  15.325 -0.7249  0.3303 -0.2756
16767TIP3    H271717   0.800   0.512  15.469 -0.8398  1.1847 -0.3366
16768TIP3   OH271718   5.668   0.740   0.561  0.1216 -0.1729  0.3414
16768TIP3    H171719   5.703   0.793   0.490  0.1538  0.0229  0.5025
16768TIP3    H271720   5.743   0.722   0.617  0.2656 -1.0277 -0.1084
16769TIP3   OH271721   6.088   0.161   5.263 -0.4099 -0.4830  0.3744
16769TIP3    H171722   6.148   0.225   5.301 -0.7478 -0.9800  1.7884
16769TIP3    H271723   6.091   0.179   5.169 -1.2527  2.2661  0.7946
16770TIP3   OH271724   1.219   0.608  15.287  0.3322 -0.0091 -0.4754
16770TIP3    H171725   1.205   0.660  15.366  1.4265  0.8192 -0.7915
16770TIP3    H271726   1.302   0.641  15.251  1.4948 -2.4477 -0.3000
16771TIP3   OH271727   3.541   3.256  12.878 -0.0719 -0.3794  0.0934
16771TIP3    H171728   3.506   3.262  12.789  2.2451 -0.4632 -0.8831
16771TIP3    H271729   3.479   3.199  12.924 -1.7156  0.2685 -1.2162
16772TIP3   OH271730   0.133   0.332  13.486  0.4505  0.5304 -0.0480
16772TIP3    H171731   0.166   0.364  13.570  1.8884  0.1391 -0.4274
16772TIP3    H271732   0.054   0.283  13.507  2.2017 -1.8226  1.4372
16773TIP3   OH271733   2.333   0.396  12.976 -0.3359 -0.1080  0.1420
16773TIP3    H171734   2.390   0.332  13.018 -0.7806 -0.8358 -0.3389
16773TIP3    H271735   2.245   0.371  13.005 -0.8205 -1.5342 -2.2945
16774TIP3   OH271736   5.956   3.169  15.502 -0.8367 -0.0895  0.2169
16774TIP3    H171737   6.044   3.156  15.466 -1.2757 -2.1021 -0.2313
16774TIP3    H271738   5.949   3.107  15.574 -2.5567 -1.4470 -1.0266
16775TIP3   OH271739   5.317   1.734  13.465  0.0785  0.0426 -1.0190
16775TIP3    H171740   5.359   1.774  13.541  0.1203  0.0065 -1.0232
16775TIP3    H271741   5.367   1.766  13.391  0.3165 -0.2797 -0.9980
16776TIP3   OH271742   0.503   0.438  15.598  0.3058 -0.0444  0.1829
16776TIP3    H171743   0.446   0.451  15.674  1.4505  1.4731  0.8242
16776TIP3    H271744   0.484   0.348  15.570 -1.8957  0.1653  0.7632
16777TIP3   OH271745   0.607   4.537   0.240  0.0904  0.5463 -0.2913
16777TIP3    H171746   0.670   4.609   0.243  0.2832  0.3582  0.5328
16777TIP3    H271747   0.660   4.458   0.227  0.1769  0.2473  1.5886
16778TIP3   OH271748   6.424   2.071  12.258 -0.3002  0.0656  0.3869
16778TIP3    H171749   6.402   2.125  12.333 -0.8310  0.3461  0.0363
16778TIP3    H271750   6.387   1.985  12.278 -0.6141  0.1934  0.3598
16779TIP3   OH271751   0.721   2.455  16.794  0.0113  0.4543  0.7489
16779TIP3    H171752   0.740   2.488  16.707 -1.0234  0.9222  0.6802
16779TIP3    H271753   0.784   2.384  16.808  0.7236  0.9236 -0.0391
16780TIP3   OH271754   5.334   4.135   5.116 -0.3481 -0.1458 -0.2709
16780TIP3    H171755   5.244   4.117   5.089 -1.0690  2.4116  0.2150
16780TIP3    H271756   5.387   4.105   5.042 -1.5345 -1.7520 -0.5450
16781TIP3   OH271757   2.259   3.955  16.900  0.4638  0.1643 -0.0752
16781TIP3    H171758   2.327   3.894  16.870  1.8279  0.8171  1.5779
16781TIP3    H271759   2.180   3.924  16.856  1.7748 -0.6772 -2.0022
16782TIP3   OH271760   0.467   4.172  12.150 -0.1756 -0.2278 -0.5022
16782TIP3    H171761   0.536   4.149  12.088  1.3097  1.1773  0.5546
16782TIP3    H271762   0.403   4.219  12.097  0.4825 -0.0972 -1.2026
16783TIP3   OH271763   2.912   2.901  11.620 -0.1040  0.0541 -0.2998
16783TIP3    H171764   2.872   2.827  11.664  0.0418 -0.0070 -0.2676
16783TIP3    H271765   2.909   2.972  11.684 -1.1139  0.3565 -0.6717
16784TIP3   OH271766   3.544   6.374   3.702  0.0648 -0.2834 -0.2381
16784TIP3    H171767   3.478   6.331   3.647  0.4131 -0.5992 -0.4145
16784TIP3    H271768   3.499   6.388   3.786 -0.5086  0.3152 -0.6401
16785TIP3   OH271769   3.368   3.484  11.978 -0.1872  0.2145 -0.2048
16785TIP3    H171770   3.357   3.579  11.985 -0.6089  0.3401 -2.1258
16785TIP3    H271771   3.287   3.448  12.013 -0.7351  0.6391 -0.9966
16786TIP3   OH271772   3.377   6.422  15.663 -0.5489  0.2458 -0.1567
16786TIP3    H171773   3.349   6.334  15.689  0.7027 -0.3422 -0.6970
16786TIP3    H271774   3.410   6.462  15.743 -0.4036 -0.0642 -0.0625
16787TIP3   OH271775   4.965   2.456  15.730 -0.0444  0.7025 -0.3577
16787TIP3    H171776   5.049   2.483  15.693  0.1703  0.3351 -0.1432
16787TIP3    H271777   4.901   2.484  15.665  0.2083  1.3184 -0.3501
16788TIP3   OH271778   3.206   3.200   3.855 -0.0634 -0.3768 -0.4404
16788TIP3    H171779   3.187   3.106   3.849 -0.7172 -0.2192 -1.0038
16788TIP3    H271780   3.122   3.241   3.872  0.2491  0.0984 -0.0087
16789TIP3   OH271781   4.677   2.535  12.134  0.5022 -0.0821  0.4253
16789TIP3    H171782   4.609   2.555  12.198  0.3364 -1.3310  0.6765
16789TIP3    H271783   4.645   2.573  12.052  0.5002  1.1277  0.9666
16790TIP3   OH271784   4.555   0.837  13.441 -0.1258 -0.1552 -0.7667
16790TIP3    H171785   4.504   0.884  13.375 -2.6197 -0.3799  0.8544
16790TIP3    H271786   4.532   0.745  13.429  0.9935 -0.4496 -0.8371
16791TIP3   OH271787   3.780   1.754   6.030  0.1969 -0.2281  0.1153
16791TIP3    H171788   3.861   1.799   6.051 -0.0999 -0.4439  1.8690
16791TIP3    H271789   3.715   1.794   6.088 -0.8811 -0.3013 -1.0049
16792TIP3   OH271790   4.633   0.656   5.103 -0.6612  0.4158 -0.3244
16792TIP3    H171791   4.678   0.601   5.038 -1.8290  0.3156 -1.0839
16792TIP3    H271792   4.632   0.604   5.183 -0.4386 -0.0573 -0.6255
16793TIP3   OH271793   1.998   0.012   4.149 -0.0083  0.0273 -0.0423
16793TIP3    H171794   2.014   0.017   4.055 -1.1124  1.2061 -0.1852
16793TIP3    H271795   2.068   0.066   4.187  0.0694  0.0595 -0.2276
16794TIP3   OH271796   5.814   4.213   2.791  0.7696  0.3234  0.3944
16794TIP3    H171797   5.851   4.206   2.879 -2.1977 -0.2159  1.7212
16794TIP3    H271798   5.725   4.247   2.805  0.2436  0.3492 -2.4277
16795TIP3   OH271799   4.280   6.616  16.849 -0.7636  0.2889 -0.2300
16795TIP3    H171800   4.273   6.535  16.800 -0.8188  0.6514 -0.8252
16795TIP3    H271801   4.194   6.627  16.890 -0.7764  0.0835 -0.2023
16796TIP3   OH271802   4.842   0.387   2.830  0.2191 -0.4514  0.0774
16796TIP3    H171803   4.811   0.419   2.915  0.0531  1.5002 -0.6712
16796TIP3    H271804   4.937   0.384   2.839  0.2207  0.0285  0.2477
16797TIP3   OH271805   5.571   1.054   3.438 -0.7663 -0.1713  0.6959
16797TIP3    H171806   5.502   1.035   3.375  1.0810  2.3218 -2.3842
16797TIP3    H271807   5.635   0.984   3.425 -0.2773  0.4646 -0.5040
16798TIP3   OH271808   3.006   3.327   5.506 -0.4030 -0.2741  0.0683
16798TIP3    H171809   2.918   3.323   5.543 -0.6301 -1.5591 -0.5674
16798TIP3    H271810   3.015   3.417   5.476 -0.6909  0.4565  2.0440
16799TIP3   OH271811   4.010   6.009   4.499  0.2842  0.0360  0.2257
16799TIP3    H171812   4.053   6.025   4.415  0.0322  1.4738  0.3409
16799TIP3    H271813   4.059   6.063   4.561 -0.0068 -0.4218  0.8563
16800TIP3   OH271814   2.273   5.885  14.698  0.1612 -0.3733 -0.1085
16800TIP3    H171815   2.247   5.836  14.620 -0.9966  0.4558 -0.2762
16800TIP3    H271816   2.193   5.930  14.725  0.6704 -0.2704  1.2868
16801TIP3   OH271817   6.457   3.829  14.702 -0.0711 -0.1261  0.3943
16801TIP3    H171818   6.545   3.790  14.698  0.3544  0.9029 -1.7660
16801TIP3    H271819   6.470   3.920  14.677 -1.6624  0.2772  0.9237
16802TIP3   OH271820   2.852   0.684   3.393 -0.4221  0.2333 -0.3905
16802TIP3    H171821   2.940   0.721   3.384 -1.4363  4.2156  2.7794
16802TIP3    H271822   2.808   0.709   3.312  0.4114  1.4748 -0.4956
16803TIP3   OH271823   0.495   3.699   5.117 -0.0665  0.3533  0.0706
16803TIP3    H171824   0.576   3.750   5.125 -0.6215  0.9809  2.3366
16803TIP3    H271825   0.517   3.629   5.055  1.6491  1.5462 -0.7500
16804TIP3   OH271826   2.527   5.448  16.041  0.2889  0.5731  0.3578
16804TIP3    H171827   2.503   5.541  16.042 -1.4181  0.1566  0.5488
16804TIP3    H271828   2.559   5.432  15.952  2.5931  1.7730  0.8805
16805TIP3   OH271829   4.647   0.811  17.249  0.5631 -0.5506 -0.5337
16805TIP3    H171830   4.552   0.819  17.264  0.8322  2.0758  0.2582
16805TIP3    H271831   4.654   0.753  17.174 -1.7012 -0.5294 -0.8448
16806TIP3   OH271832   5.882   2.210  12.674  0.0516  0.5766 -0.8300
16806TIP3    H171833   5.973   2.193  12.699 -0.1969 -0.9200 -0.8280
16806TIP3    H271834   5.844   2.254  12.751 -0.2248 -2.3610  0.8826
16807TIP3   OH271835   3.549   1.040  13.379  0.0148  0.2841 -0.3078
16807TIP3    H171836   3.486   1.051  13.308 -0.6053  0.0951  0.2036
16807TIP3    H271837   3.501   0.991  13.446  1.2538 -1.4659 -0.6466
16808TIP3   OH271838   6.676   2.628  17.072 -0.2547 -0.0852  0.0953
16808TIP3    H171839   6.661   2.568  16.999  0.9236  1.2327 -1.3185
16808TIP3    H271840   6.594   2.630  17.120 -1.8734  0.6627 -2.4986
16809TIP3   OH271841   4.368   1.002   5.335 -0.6248 -0.0701 -0.1251
16809TIP3    H171842   4.323   0.920   5.350  1.5323 -1.4010 -0.4579
16809TIP3    H271843   4.371   1.010   5.239  1.2050 -0.8807 -0.1806
16810TIP3   OH271844   5.768   0.772   2.559 -0.2093 -0.0795  0.2407
16810TIP3    H171845   5.720   0.771   2.642  0.5042  1.0131  0.6892
16810TIP3    H271846   5.850   0.818   2.579  0.6728 -1.1720 -0.6999
16811TIP3   OH271847   2.477   0.138  16.572  0.0906  0.1415 -0.5042
16811TIP3    H171848   2.526   0.071  16.621  2.2398  1.9316 -0.0825
16811TIP3    H271849   2.428   0.088  16.507  2.7742 -1.7952 -1.2141
16812TIP3   OH271850   5.541   4.699   0.544  0.1559  0.4713  0.4822
16812TIP3    H171851   5.510   4.785   0.574  0.6725  0.7193  0.3307
16812TIP3    H271852   5.511   4.638   0.611  0.0383  0.8124  0.7480
16813TIP3   OH271853   3.769   3.409   3.022 -0.4825  0.5626  0.0893
16813TIP3    H171854   3.845   3.461   3.046  1.6247 -1.7835 -0.9326
16813TIP3    H271855   3.720   3.464   2.961 -0.3150  2.5901  1.6866
16814TIP3   OH271856   4.604   4.179  15.048  0.0840  0.0189 -0.0543
16814TIP3    H171857   4.663   4.107  15.023 -0.6806 -0.8771  0.6514
16814TIP3    H271858   4.592   4.167  15.142 -0.2694  0.9253  0.0181
16815TIP3   OH271859   5.118   4.910   1.583 -0.2840  0.2403 -0.4559
16815TIP3    H171860   5.164   4.845   1.636 -0.2647 -0.6774 -1.5762
16815TIP3    H271861   5.113   4.987   1.640  1.2851 -0.1304  0.2378
16816TIP3   OH271862   5.292   6.323  12.350 -0.5050  0.7444 -0.1514
16816TIP3    H171863   5.246   6.295  12.271  0.0287  0.5538 -0.4034
16816TIP3    H271864   5.314   6.242  12.395  0.5844  0.7488 -0.6198
16817TIP3   OH271865   1.200   2.531  12.361  0.0491  0.6170 -0.1415
16817TIP3    H171866   1.163   2.578  12.435 -1.6527 -0.0250 -0.5409
16817TIP3    H271867   1.286   2.501  12.392 -0.3877  0.8553  1.3576
16818TIP3   OH271868   2.957   3.170   0.302 -0.3731 -0.7919 -0.2715
16818TIP3    H171869   3.017   3.095   0.306 -0.0951 -0.5177  1.8221
16818TIP3    H271870   2.975   3.219   0.382 -2.1574  0.2740 -0.4777
16819TIP3   OH271871   5.315   1.622   0.150  0.0767  0.3243  0.2055
16819TIP3    H171872   5.357   1.668   0.223  0.5217  0.0261  0.1441
16819TIP3    H271873   5.222   1.620   0.173  0.2427  0.0104  0.8965
16820TIP3   OH271874   6.201   5.706  12.397 -0.8069 -0.1153 -0.2399
16820TIP3    H171875   6.194   5.652  12.476 -1.1257  0.7813  0.3647
16820TIP3    H271876   6.292   5.698  12.371 -0.6792 -0.3622  0.2632
16821TIP3   OH271877   4.238   2.723  13.257 -0.3223  0.5414  0.3533
16821TIP3    H171878   4.234   2.771  13.340 -0.1558  0.7472  0.2441
16821TIP3    H271879   4.221   2.632  13.281  1.0821  0.3700  0.8175
16822TIP3   OH271880   1.099   6.655   3.769  0.7277 -0.2706  0.7060
16822TIP3    H171881   1.096   6.598   3.692  0.3462  0.5919  0.0636
16822TIP3    H271882   1.174   6.623   3.819  2.7263  0.8473 -1.3831
16823TIP3   OH271883   3.913   0.713  13.711 -0.1842  0.0859  0.4057
16823TIP3    H171884   3.818   0.718  13.712 -0.1157  1.6340  0.5238
16823TIP3    H271885   3.932   0.619  13.706 -1.7078 -0.2006 -0.4298
16824TIP3   OH271886   3.472   1.893   3.623  0.6501  0.2049 -0.7153
16824TIP3    H171887   3.520   1.975   3.638  1.7730 -0.4177 -0.7624
16824TIP3    H271888   3.380   1.916   3.635  0.8810  1.6577 -1.5151
16825TIP3   OH271889   2.159   4.693   2.873  0.0031 -0.1570  0.1922
16825TIP3    H171890   2.071   4.725   2.853  0.2482  0.4947  0.1296
16825TIP3    H271891   2.214   4.771   2.871  0.4160 -0.3972  1.2293
16826TIP3   OH271892   2.919   3.284   1.788  0.0603 -0.0028 -0.2704
16826TIP3    H171893   3.006   3.325   1.796  0.1698 -0.2632 -0.0955
16826TIP3    H271894   2.876   3.305   1.871 -0.3116  0.7308 -0.6422
16827TIP3   OH271895   2.590   0.999  16.465 -0.0245  0.4042  0.6326
16827TIP3    H171896   2.684   1.017  16.472  0.1261 -0.1607  0.0860
16827TIP3    H271897   2.572   0.999  16.371 -0.1515 -1.5906  0.6321
16828TIP3   OH271898   3.123   3.307  12.603 -0.2690 -0.0481  0.3679
16828TIP3    H171899   3.043   3.359  12.591  0.2124  0.9476  1.2968
16828TIP3    H271900   3.164   3.307  12.516 -0.4554  0.8470  0.2656
16829TIP3   OH271901   1.354   0.687  13.110  0.3302 -0.1398  0.6533
16829TIP3    H171902   1.320   0.709  13.023 -0.5228 -0.6421  0.8450
16829TIP3    H271903   1.321   0.757  13.167 -0.4051 -0.6355  0.8431
16830TIP3   OH271904   3.105   5.934   3.844  0.2185 -0.0818  0.1209
16830TIP3    H171905   3.050   5.953   3.920  0.1559 -1.4149  0.4404
16830TIP3    H271906   3.043   5.916   3.774  0.2700  1.9843 -0.5166
16831TIP3   OH271907   2.066   5.943   2.542  0.1539  0.0692 -0.1946
16831TIP3    H171908   1.999   6.011   2.553 -0.8062 -0.9765  0.6290
16831TIP3    H271909   2.124   5.954   2.618  0.4803  0.4611 -0.4899
16832TIP3   OH271910   1.485   6.041  17.067  0.0275  0.2233 -0.3745
16832TIP3    H171911   1.395   6.065  17.047  0.2529 -0.0661 -1.9232
16832TIP3    H271912   1.527   6.123  17.090 -0.6757  0.3253  0.5741
16833TIP3   OH271913   0.488   1.440  14.439  0.2378  0.0872 -0.1785
16833TIP3    H171914   0.519   1.470  14.354  0.9559 -0.9854 -0.3211
16833TIP3    H271915   0.448   1.355  14.420 -0.8227  0.4597  0.3521
16834TIP3   OH271916   6.175   4.959  12.029  0.6148  0.5108 -0.6819
16834TIP3    H171917   6.126   4.962  11.947 -1.1721 -0.0119  0.3186
16834TIP3    H271918   6.155   5.042  12.072 -1.6403 -0.7314  0.8983
16835TIP3   OH271919   2.541   1.850  14.365 -0.4093  0.0070 -0.1589
16835TIP3    H171920   2.562   1.938  14.335  0.1668 -0.3074 -0.7185
16835TIP3    H271921   2.560   1.794  14.290 -1.4140 -0.5260 -0.0360
16836TIP3   OH271922   0.610   4.396  16.276  0.4386 -0.4072 -1.0018
16836TIP3    H171923   0.534   4.448  16.248  0.1736  0.4772  1.0976
16836TIP3    H271924   0.591   4.307  16.246 -0.7399  0.0726 -1.7558
16837TIP3   OH271925   0.871   1.537   1.271  0.1907  0.5508 -0.4361
16837TIP3    H171926   0.960   1.568   1.288  0.1270  0.9331 -0.7821
16837TIP3    H271927   0.844   1.583   1.192  0.4637 -1.1400 -1.5742
16838TIP3   OH271928   6.222   5.299  16.143  0.3936 -0.3902  0.1346
16838TIP3    H171929   6.232   5.370  16.206 -0.3525 -2.1103  2.3019
16838TIP3    H271930   6.310   5.262  16.134  0.6295  0.2681 -0.4051
16839TIP3   OH271931   0.620   4.669  13.774 -0.3594  0.2699  0.3713
16839TIP3    H171932   0.666   4.623  13.845  0.9259  0.6495 -0.1915
16839TIP3    H271933   0.676   4.745  13.755 -0.9778  0.4709 -0.6738
16840TIP3   OH271934   4.331   0.202  16.359 -0.2918  0.6579 -0.7248
16840TIP3    H171935   4.422   0.179  16.342 -0.8358 -3.3806  0.7747
16840TIP3    H271936   4.285   0.180  16.278 -0.0642  2.3212 -1.3420
16841TIP3   OH271937   1.328   3.121  13.619 -0.7075 -0.2192 -0.2189
16841TIP3    H171938   1.260   3.111  13.687 -0.3029  0.9281  0.3769
16841TIP3    H271939   1.407   3.142  13.668  0.1397 -1.6770 -0.9037
16842TIP3   OH271940   5.199   5.502  14.663  0.0149  0.5422 -0.0945
16842TIP3    H171941   5.117   5.453  14.676  0.2841  0.3067  0.8076
16842TIP3    H271942   5.247   5.452  14.598 -0.7862  0.9864 -1.0672
16843TIP3   OH271943   6.496   2.206   0.452  0.2560 -0.2308 -0.1695
16843TIP3    H171944   6.586   2.230   0.432  0.1246  0.9108  0.4914
16843TIP3    H271945   6.443   2.260   0.394 -0.0417  1.0431  1.2103
16844TIP3   OH271946   4.415   3.544   2.282 -0.1474  0.7631  0.2555
16844TIP3    H171947   4.380   3.593   2.208 -0.5758  0.7252  0.4307
16844TIP3    H271948   4.342   3.536   2.343 -0.3861 -0.9353 -0.1842
16845TIP3   OH271949   6.409   6.228   2.896  0.1242 -0.4002  0.1553
16845TIP3    H171950   6.487   6.218   2.951  0.2850  0.2228  0.0460
16845TIP3    H271951   6.373   6.140   2.889 -1.6729 -0.1490  3.8298
16846TIP3   OH271952   0.461   6.378   0.631 -0.1283  0.0932  0.6136
16846TIP3    H171953   0.507   6.461   0.646 -0.7461  0.6703 -0.5704
16846TIP3    H271954   0.528   6.320   0.594 -0.2530  0.8789 -0.9442
16847TIP3   OH271955   5.562   4.309  11.437 -0.0230  0.2335 -0.4573
16847TIP3    H171956   5.633   4.245  11.445  0.7749  1.0441 -0.9233
16847TIP3    H271957   5.493   4.276  11.495  1.2770  0.1744  1.0942
16848TIP3   OH271958   2.012   1.979   5.360 -0.0831  0.0192  0.0756
16848TIP3    H171959   2.038   2.071   5.359  0.6966 -0.1463  1.6438
16848TIP3    H271960   1.921   1.980   5.390 -0.7034  0.3651 -1.7172
16849TIP3   OH271961   1.137   6.422   1.812 -0.0202 -0.6467  0.2881
16849TIP3    H171962   1.104   6.337   1.782 -1.4845  0.3335 -1.0054
16849TIP3    H271963   1.170   6.404   1.900 -1.3668 -2.3261  0.5118
16850TIP3   OH271964   1.721   0.273  16.680 -0.5258  0.5905  0.0718
16850TIP3    H171965   1.628   0.294  16.686 -0.3973  2.3680 -2.4141
16850TIP3    H271966   1.723   0.186  16.639 -1.0951  0.6121 -0.0115
16851TIP3   OH271967   0.756   0.377   5.595  0.6433  0.3116 -0.0803
16851TIP3    H171968   0.757   0.282   5.604  1.1073  0.3186 -0.0636
16851TIP3    H271969   0.679   0.405   5.645 -0.4476 -0.1900 -1.4021
16852TIP3   OH271970   4.328   5.202  14.889 -0.1082  0.0687  0.2011
16852TIP3    H171971   4.388   5.169  14.956  0.6293  0.0963 -0.4225
16852TIP3    H271972   4.269   5.130  14.871 -0.0610 -0.0716  0.6046
16853TIP3   OH271973   2.955   4.116  12.217 -0.3193 -0.1656 -0.2298
16853TIP3    H171974   3.018   4.044  12.207 -1.1186 -0.7554 -1.2454
16853TIP3    H271975   3.005   4.186  12.258  0.9008 -0.7613 -0.6451
16854TIP3   OH271976   2.055   1.841  17.176 -0.1481  0.5320  0.4590
16854TIP3    H171977   1.973   1.889  17.179  0.5111  1.9365 -1.5826
16854TIP3    H271978   2.029   1.749  17.174 -1.6374  0.9258  0.4907
16855TIP3   OH271979   4.818   6.224  16.796  0.1385 -0.0624 -0.5977
16855TIP3    H171980   4.888   6.282  16.766  0.4399 -0.4882 -0.7166
16855TIP3    H271981   4.831   6.218  16.890  0.2230 -0.0939 -0.6112
16856TIP3   OH271982   2.765   3.548   6.149  0.1156 -0.2740 -0.6171
16856TIP3    H171983   2.730   3.603   6.079 -0.6769  0.9506  0.6794
16856TIP3    H271984   2.688   3.514   6.194  0.5325  1.0405  1.2125
16857TIP3   OH271985   0.623   4.118  12.951  0.4625  0.4807  0.1457
16857TIP3    H171986   0.569   4.186  12.992 -2.0328 -0.8166 -0.7520
16857TIP3    H271987   0.670   4.163  12.881 -0.6483  1.4249 -0.0213
16858TIP3   OH271988   5.767   6.184  15.215  0.4166  0.0892 -0.4557
16858TIP3    H171989   5.857   6.205  15.242  0.1030 -0.2453  0.9238
16858TIP3    H271990   5.713   6.214  15.288 -0.7503  1.6195 -1.8856
16859TIP3   OH271991   6.577   4.258  14.050 -0.0795  0.0514  0.5027
16859TIP3    H171992   6.501   4.211  14.016  0.4375  0.1167 -0.8020
16859TIP3    H271993   6.649   4.231  13.993  0.4783  1.4573  0.5010
16860TIP3   OH271994   3.113   5.131   5.641 -0.0042  0.5031  0.1181
16860TIP3    H171995   3.169   5.180   5.701  1.3538 -0.0316 -0.6752
16860TIP3    H271996   3.122   5.040   5.668 -3.1159  0.6237  2.0870
16861TIP3   OH271997   1.115   4.725  12.774  0.1122 -0.0129 -0.3752
16861TIP3    H171998   1.184   4.669  12.809  0.8635  1.6231  0.8827
16861TIP3    H271999   1.161   4.798  12.734 -0.8630  0.6404 -0.3558
16862TIP3   OH272000   5.646   1.425  17.183 -0.0149 -0.3571 -0.0650
16862TIP3    H172001   5.659   1.390  17.095  0.3554 -0.6751  0.1174
16862TIP3    H272002   5.553   1.411  17.200  0.0301 -0.8238 -0.1814
16863TIP3   OH272003   0.647   2.465   5.624  0.1754 -0.2170 -0.1212
16863TIP3    H172004   0.704   2.516   5.681  0.5745 -2.9345  2.1293
16863TIP3    H272005   0.697   2.452   5.544  1.5805 -0.1757  0.7228
16864TIP3   OH272006   3.909   5.566   5.745  0.5772 -0.3030 -0.2047
16864TIP3    H172007   3.858   5.639   5.780  0.3436 -0.8312  0.5724
16864TIP3    H272008   3.875   5.489   5.790  1.5471 -0.7611 -0.2221
16865TIP3   OH272009   2.202   2.097   5.714 -0.2051 -0.5506  0.7725
16865TIP3    H172010   2.169   2.082   5.803 -1.1270  1.7440  0.8737
16865TIP3    H272011   2.124   2.105   5.660  0.3132 -0.3841  0.0307
16866TIP3   OH272012   0.443   2.524   5.147 -0.5888 -0.4433 -0.2898
16866TIP3    H172013   0.408   2.592   5.090 -0.4845 -0.6911 -0.6489
16866TIP3    H272014   0.365   2.480   5.182 -0.6495 -0.3744 -0.3386
16867TIP3   OH272015   5.009   0.548  15.203  0.1766 -0.5351 -0.0884
16867TIP3    H172016   5.088   0.553  15.257  0.2201 -0.1153 -0.1891
16867TIP3    H272017   5.029   0.481  15.137  0.3449 -0.6202  0.0473
16868TIP3   OH272018   0.450   2.938  14.373  0.1205 -0.4244  0.4019
16868TIP3    H172019   0.376   2.877  14.380  0.5892 -1.1180 -0.4599
16868TIP3    H272020   0.524   2.883  14.346  0.6842  0.4445  0.1382
16869TIP3   OH272021   1.582   5.710   0.843  0.2313 -0.2708 -0.9602
16869TIP3    H172022   1.661   5.751   0.878  1.6774 -0.6267 -3.5596
16869TIP3    H272023   1.569   5.633   0.898  0.1932  1.0941  1.0553
16870TIP3   OH272024   2.238   0.957   1.994  0.4167  0.5842 -0.1234
16870TIP3    H172025   2.196   0.948   1.909  0.0183 -0.9070  0.2084
16870TIP3    H272026   2.327   0.925   1.981  0.6577  1.2734 -0.2006
16871TIP3   OH272027   3.804   6.172  12.054  0.1048 -0.1342  0.1721
16871TIP3    H172028   3.710   6.154  12.051 -0.0055  0.1361  1.3859
16871TIP3    H272029   3.823   6.214  11.970 -0.8371 -0.2778 -0.1233
16872TIP3   OH272030   0.077   2.869  14.881  0.1084  0.5670  0.1062
16872TIP3    H172031   0.046   2.914  14.802 -1.1194  1.4678  1.0612
16872TIP3    H272032   0.065   2.776  14.862 -0.2485  0.7718 -0.7241
16873TIP3   OH272033   0.528   0.537   4.119 -0.3183  0.0627  0.1340
16873TIP3    H172034   0.524   0.533   4.215 -2.4402  3.2114  0.3578
16873TIP3    H272035   0.616   0.568   4.100 -0.0919  0.0742  1.1352
16874TIP3   OH272036   5.101   3.657   4.747 -0.1212  0.0462  1.0112
16874TIP3    H172037   5.160   3.606   4.802  0.3040 -2.6186 -1.7135
16874TIP3    H272038   5.028   3.598   4.728 -0.5237  1.0522 -0.8298
16875TIP3   OH272039   1.687   4.781  16.643  0.1018  0.0882  0.1335
16875TIP3    H172040   1.715   4.819  16.726 -0.8705 -0.1274  0.5694
16875TIP3    H272041   1.593   4.764  16.654 -0.0497  0.0580 -1.0039
16876TIP3   OH272042   1.283   3.782  14.923 -0.2350  0.2138 -0.3185
16876TIP3    H172043   1.262   3.833  15.001  1.6845 -1.7233  1.6225
16876TIP3    H272044   1.270   3.691  14.949  1.7789 -0.5743 -1.7625
16877TIP3   OH272045   3.932   1.299  10.784  0.0762  0.6143 -0.2217
16877TIP3    H172046   4.003   1.283  10.723 -0.6677  1.6343 -1.4203
16877TIP3    H272047   3.865   1.343  10.731 -1.2917  0.0127  0.9452
16878TIP3   OH272048   0.282   4.750  14.082 -0.7511  0.5526 -0.2354
16878TIP3    H172049   0.305   4.683  14.018 -3.3367 -0.5555 -0.1295
16878TIP3    H272050   0.337   4.730  14.158  1.7946  1.4118 -1.7414
16879TIP3   OH272051   3.070   2.388  15.574  0.0829 -0.0846 -0.1016
16879TIP3    H172052   3.037   2.332  15.505 -2.6773  1.6450 -0.3388
16879TIP3    H272053   3.065   2.335  15.654 -0.9311 -0.6808 -0.5577
16880TIP3   OH272054   5.618   3.282   2.119 -0.1514  0.0960  0.3947
16880TIP3    H172055   5.620   3.192   2.153  0.2949  0.1913  0.6298
16880TIP3    H272056   5.554   3.279   2.048 -0.9221 -0.1720  1.0679
16881TIP3   OH272057   5.371   2.521   6.158 -0.3149 -0.4170  0.0828
16881TIP3    H172058   5.416   2.480   6.232  0.4751 -1.6998 -1.0416
16881TIP3    H272059   5.369   2.614   6.179  0.7079 -0.6458  1.2915
16882TIP3   OH272060   1.647   0.630   0.453 -0.4635 -0.3212 -0.8066
16882TIP3    H172061   1.713   0.672   0.397 -0.5079 -0.2907 -0.8352
16882TIP3    H272062   1.635   0.543   0.414 -1.9070  0.3735 -1.9820
16883TIP3   OH272063   6.638   4.727  17.133  0.3024  0.3680 -0.5836
16883TIP3    H172064   6.708   4.725  17.198 -1.0434  0.0408  0.9163
16883TIP3    H272065   6.630   4.636  17.103  1.5233  0.6627 -1.9509
16884TIP3   OH272066   3.071   4.001  11.677 -0.1543  0.1276 -0.2809
16884TIP3    H172067   3.085   4.095  11.663 -0.0772 -0.0742 -1.7655
16884TIP3    H272068   2.994   3.980  11.625 -0.8623 -0.4353  0.9559
16885TIP3   OH272069   2.543   4.664  14.120  1.1883 -0.3039 -0.0922
16885TIP3    H172070   2.587   4.580  14.135  2.0334 -0.0244 -0.8980
16885TIP3    H272071   2.592   4.704  14.048 -0.0754  0.2577 -0.6818
16886TIP3   OH272072   2.989   2.976  16.332 -0.1669  0.2765  0.7353
16886TIP3    H172073   2.988   3.024  16.249  0.8491 -1.4257 -0.3305
16886TIP3    H272074   3.038   2.896  16.313  0.2264 -0.1154  3.0295
16887TIP3   OH272075   1.683   0.643   2.143  0.3727  0.2583 -0.0776
16887TIP3    H172076   1.717   0.670   2.228  1.5485 -0.2625 -0.3695
16887TIP3    H272077   1.712   0.553   2.132  0.4906  0.4077 -1.1585
16888TIP3   OH272078   4.064   2.530   3.457 -0.2020 -0.0555 -0.2452
16888TIP3    H172079   4.010   2.482   3.394  2.9202 -0.8159 -2.5474
16888TIP3    H272080   4.050   2.622   3.436 -0.3173 -0.2516 -1.0400
16889TIP3   OH272081   3.290   3.202  10.329 -0.2440  0.2917  0.1009
16889TIP3    H172082   3.318   3.180  10.417  1.2120 -0.1069 -0.4343
16889TIP3    H272083   3.368   3.188  10.274 -0.7811  1.6267 -1.0746
16890TIP3   OH272084   6.017   3.401   5.287  0.3323 -0.0913  0.5831
16890TIP3    H172085   5.976   3.335   5.231  2.9481 -1.5887  0.2520
16890TIP3    H272086   5.962   3.478   5.277  0.1796 -0.4988 -3.5142
16891TIP3   OH272087   0.791   0.705   2.422 -0.3606  0.3027 -0.3070
16891TIP3    H172088   0.803   0.788   2.376 -1.8599  1.2840  0.9715
16891TIP3    H272089   0.736   0.653   2.364 -2.3901  1.5969  0.3354
16892TIP3   OH272090   0.642   1.379   2.917 -0.3012 -0.3819 -0.1950
16892TIP3    H172091   0.629   1.468   2.882  0.8615 -0.5182 -1.0254
16892TIP3    H272092   0.732   1.380   2.950 -0.6837 -0.9063  0.8945
16893TIP3   OH272093   0.639   1.456   1.160  0.4319 -0.3705 -0.4552
16893TIP3    H172094   0.706   1.488   1.220 -0.2075  1.7790 -0.8018
16893TIP3    H272095   0.561   1.448   1.214  0.4578 -0.8295 -0.4868
16894TIP3   OH272096   5.228   0.369   2.615  0.1437 -0.2942  0.1760
16894TIP3    H172097   5.157   0.307   2.635  1.0761 -1.2595  0.6590
16894TIP3    H272098   5.299   0.313   2.583  0.5719  0.6906 -0.6371
16895TIP3   OH272099   5.080   3.213   3.641  0.4435 -0.2077  0.0593
16895TIP3    H172100   5.081   3.202   3.736  0.4848 -1.7266 -0.0875
16895TIP3    H272101   5.107   3.128   3.607 -1.8741 -0.4448 -1.3641
16896TIP3   OH272102   0.019   3.644  14.313 -0.1170 -0.3311  0.0107
16896TIP3    H172103   0.047   3.692  14.236  0.4270 -0.7972 -0.0920
16896TIP3    H272104  -0.075   3.631  14.301 -0.4669  1.4587  0.4727
16897TIP3   OH272105   3.729   3.992   0.884 -0.1664 -0.1570 -0.7823
16897TIP3    H172106   3.791   4.000   0.956  2.3525  1.3637 -2.9218
16897TIP3    H272107   3.722   3.898   0.868 -3.3585 -0.9130  3.2619
16898TIP3   OH272108   6.314   2.204  16.987  0.4057 -0.1725 -0.0965
16898TIP3    H172109   6.381   2.149  17.028 -1.7255 -0.7138  3.0625
16898TIP3    H272110   6.312   2.283  17.040 -0.6895  0.2841 -0.7825
16899TIP3   OH272111   4.018   4.857   2.224 -0.3990 -0.4019 -0.2901
16899TIP3    H172112   4.011   4.874   2.318  0.2951 -1.0846 -0.1129
16899TIP3    H272113   4.069   4.931   2.191  1.4371 -1.3426  0.2712
16900TIP3   OH272114   3.822   4.694  10.838 -0.0674 -0.6792 -0.3701
16900TIP3    H172115   3.822   4.775  10.889 -0.3528 -0.3735 -0.8471
16900TIP3    H272116   3.771   4.632  10.890  0.5970 -0.7129  0.2457
16901TIP3   OH272117   1.343   1.465   4.277 -0.3038  0.1494  0.4361
16901TIP3    H172118   1.429   1.484   4.314  0.5002 -0.4173 -1.0712
16901TIP3    H272119   1.349   1.491   4.185 -2.4487  2.1218  0.7667
16902TIP3   OH272120   0.833   2.430   6.215 -0.0084 -0.7436 -0.1668
16902TIP3    H172121   0.866   2.490   6.281 -2.2886 -1.7331  2.0550
16902TIP3    H272122   0.748   2.465   6.191 -0.8028 -2.3127  0.2103
16903TIP3   OH272123   5.072   4.291  13.091  0.4552  0.2942 -0.1721
16903TIP3    H172124   5.143   4.276  13.154 -0.1480  0.1595  0.4923
16903TIP3    H272125   5.006   4.339  13.141 -0.5612 -0.8834 -0.3405
16904TIP3   OH272126   0.379   3.711  14.269  0.2837  0.1813  0.1350
16904TIP3    H172127   0.394   3.646  14.338  0.1276 -0.2384 -0.2259
16904TIP3    H272128   0.443   3.689  14.201  0.1254  0.3115 -0.0569
16905TIP3   OH272129   5.796   6.337  13.289 -0.2492  0.1942  0.0132
16905TIP3    H172130   5.734   6.285  13.237 -1.6667  0.1638  1.6279
16905TIP3    H272131   5.748   6.418  13.309  0.7282  0.7299  0.2263
16906TIP3   OH272132   0.636   4.075   0.604 -0.4329 -0.1852 -0.6111
16906TIP3    H172133   0.689   4.119   0.671 -0.7049  0.4622 -0.8097
16906TIP3    H272134   0.549   4.070   0.643 -0.0431 -2.1332  0.1172
16907TIP3   OH272135   0.087   0.079   3.402 -0.2350 -0.6996  0.2666
16907TIP3    H172136  -0.004   0.083   3.371 -0.7724 -1.0285  1.6893
16907TIP3    H272137   0.136   0.042   3.329 -1.5324 -1.9698 -0.0056
16908TIP3   OH272138   3.652   3.489   3.610  0.4121 -0.6231  0.2859
16908TIP3    H172139   3.569   3.502   3.656 -1.2687 -0.1098 -2.5788
16908TIP3    H272140   3.715   3.466   3.678 -1.7702  0.2474  2.7693
16909TIP3   OH272141   4.637   1.641  16.635  0.4166  0.2134 -0.4395
16909TIP3    H172142   4.566   1.662  16.695  1.0975 -0.1882  0.5431
16909TIP3    H272143   4.689   1.722  16.630  1.0934 -0.1304  0.5880
16910TIP3   OH272144   6.573   6.347  16.673  0.2160  0.1221 -0.3600
16910TIP3    H172145   6.493   6.399  16.679  0.2508  0.2510 -0.9158
16910TIP3    H272146   6.547   6.270  16.622  0.2895 -0.1572  0.0196
16911TIP3   OH272147   5.418   1.645   2.214 -0.3093 -0.3431 -0.2284
16911TIP3    H172148   5.443   1.587   2.142  0.3857 -1.4060  0.8252
16911TIP3    H272149   5.371   1.588   2.275 -0.8499  0.5284  0.1810
16912TIP3   OH272150   1.737   1.832   0.170 -0.0731 -0.0279  0.8849
16912TIP3    H172151   1.651   1.873   0.167 -0.2616 -0.4840 -0.1994
16912TIP3    H272152   1.793   1.889   0.118 -0.2345 -0.8723 -0.2527
16913TIP3   OH272153   2.343   5.437  12.129 -0.1019 -0.2151 -0.2496
16913TIP3    H172154   2.391   5.386  12.064 -0.7929 -0.0812 -0.8720
16913TIP3    H272155   2.314   5.515  12.082  2.7245  1.8734  1.1794
16914TIP3   OH272156   2.677   6.613   3.198  0.2054 -0.1963 -0.2600
16914TIP3    H172157   2.681   6.517   3.196 -0.2106 -0.2261 -0.0358
16914TIP3    H272158   2.764   6.642   3.172 -0.1076 -0.6108 -1.9002
16915TIP3   OH272159   2.573   2.284  15.662 -0.5251  0.2433  0.6484
16915TIP3    H172160   2.586   2.369  15.620  1.3975 -0.4834 -0.3256
16915TIP3    H272161   2.580   2.303  15.756  3.4023  0.7692  0.4325
16916TIP3   OH272162   4.256   4.388   4.419  0.2561 -0.7335  0.1274
16916TIP3    H172163   4.251   4.337   4.500 -0.0098 -2.8932 -1.1603
16916TIP3    H272164   4.346   4.373   4.388 -0.0771 -1.1288 -0.6785
16917TIP3   OH272165   0.343   1.451   0.941  0.5952  0.3074 -0.0657
16917TIP3    H172166   0.412   1.492   0.993  0.3382  1.0816 -0.3254
16917TIP3    H272167   0.385   1.428   0.859  1.5472 -2.7782  1.1544
16918TIP3   OH272168   0.525   0.271   5.375 -0.4651 -0.4530 -0.6129
16918TIP3    H172169   0.437   0.274   5.338 -0.6703  0.8202 -0.0797
16918TIP3    H272170   0.522   0.199   5.439 -1.3130 -0.0235 -0.1524
16919TIP3   OH272171   2.681   1.769   4.103 -0.0726 -0.0480  0.1277
16919TIP3    H172172   2.710   1.723   4.024  2.3026 -0.5710  1.2235
16919TIP3    H272173   2.587   1.780   4.091 -0.5403 -3.9283 -0.8370
16920TIP3   OH272174   2.678   3.428  15.311  0.2101 -0.1198  0.3153
16920TIP3    H172175   2.718   3.428  15.224 -1.1453  1.6043 -0.3727
16920TIP3    H272176   2.708   3.347  15.351  2.0789 -0.2482 -1.1871
16921TIP3   OH272177   2.034   6.778  15.950 -0.1049 -0.1572  0.0445
16921TIP3    H172178   2.031   6.785  15.855 -1.4020  0.1562  0.0901
16921TIP3    H272179   2.084   6.854  15.978  0.7828 -0.5599 -0.4078
16922TIP3   OH272180   4.791   4.509   4.138  0.1640  0.0639 -0.2867
16922TIP3    H172181   4.852   4.470   4.075 -1.7794 -2.6847 -0.6821
16922TIP3    H272182   4.834   4.498   4.223  1.0193 -0.0492 -0.7183
16923TIP3   OH272183   0.330   1.140  16.138 -0.2949 -0.2769 -0.4084
16923TIP3    H172184   0.328   1.097  16.223 -2.3658  0.1902 -0.1795
16923TIP3    H272185   0.253   1.107  16.092  0.9190 -0.7297 -2.2481
16924TIP3   OH272186   4.725   2.403  12.485  0.4993 -0.0567 -0.4269
16924TIP3    H172187   4.745   2.421  12.577 -3.7740  2.2923  0.2885
16924TIP3    H272188   4.730   2.489  12.443 -2.1254 -0.2269 -1.2480
16925TIP3   OH272189   4.560   1.872   5.016  0.6571  0.2260 -0.2411
16925TIP3    H172190   4.577   1.940   5.081  0.7092  1.1738 -1.2130
16925TIP3    H272191   4.646   1.855   4.977  0.2451  1.6233 -1.8984
16926TIP3   OH272192   1.866   5.944  16.986 -0.6076  0.4431  0.2719
16926TIP3    H172193   1.775   5.961  17.011 -0.2547  3.7782 -0.2113
16926TIP3    H272194   1.860   5.911  16.896 -1.3397 -0.1818  0.5348
16927TIP3   OH272195   4.475   3.954   3.246  0.6104  0.2959  0.2601
16927TIP3    H172196   4.560   3.984   3.211  0.8358 -0.1067  0.4601
16927TIP3    H272197   4.411   4.013   3.206  0.8722 -0.0891 -0.7648
16928TIP3   OH272198   0.987   4.946   3.998 -0.7028  0.0872  0.2427
16928TIP3    H172199   0.926   5.006   3.955  0.5823  1.7552  0.6783
16928TIP3    H272200   0.949   4.933   4.085 -1.3725 -0.3596 -0.1040
16929TIP3   OH272201   6.172   4.658  16.930  0.1467 -0.1677  0.0423
16929TIP3    H172202   6.253   4.654  16.982 -0.2673 -0.2781  0.6893
16929TIP3    H272203   6.183   4.736  16.875  0.3019  0.3682  0.8038
16930TIP3   OH272204   5.352   1.042   0.213 -0.0799  0.2574 -0.1874
16930TIP3    H172205   5.316   1.099   0.146 -1.0842  1.6959  1.4906
16930TIP3    H272206   5.280   0.982   0.235 -0.1069  0.4674  0.3107
16931TIP3   OH272207   6.112   0.409  14.428 -0.1272  0.0630  0.3823
16931TIP3    H172208   6.124   0.349  14.502  0.5295 -0.1702  0.0951
16931TIP3    H272209   6.030   0.382  14.387  0.1381 -0.6015  0.2872
16932TIP3   OH272210   1.731   1.218  16.801 -0.2025 -0.2383 -0.1713
16932TIP3    H172211   1.768   1.306  16.796 -2.2432  0.8859  2.2546
16932TIP3    H272212   1.667   1.215  16.730 -0.9214  0.6869  0.4130
16933TIP3   OH272213   2.286   6.693   0.099 -0.3757 -0.1721 -0.3587
16933TIP3    H172214   2.240   6.682   0.016 -1.3554 -0.4702  0.2086
16933TIP3    H272215   2.223   6.737   0.156 -0.5658 -2.0058  0.9316
16934TIP3   OH272216   1.617   2.636   5.009 -0.6160  0.1356  0.0640
16934TIP3    H172217   1.673   2.613   5.083  0.6506  0.4917 -0.7603
16934TIP3    H272218   1.576   2.553   4.984  0.2716 -0.3133  0.0784
16935TIP3   OH272219   6.180   4.336  13.954 -0.2337  0.5905 -0.3357
16935TIP3    H172220   6.128   4.384  14.017 -0.1998  0.4757 -0.2201
16935TIP3    H272221   6.219   4.264  14.004  0.9970  1.3572 -0.1541
16936TIP3   OH272222   1.886   6.591  14.895 -0.0421 -0.1745  0.1627
16936TIP3    H172223   1.798   6.617  14.921  0.1357 -0.8339  1.5045
16936TIP3    H272224   1.884   6.589  14.799 -1.4010  0.0664  0.1739
16937TIP3   OH272225   3.871   2.685   6.774  0.2935  0.0506  0.2021
16937TIP3    H172226   3.886   2.650   6.862  1.4775 -0.4283 -0.1614
16937TIP3    H272227   3.947   2.655   6.724 -0.2230  0.5603 -0.9112
16938TIP3   OH272228   6.716   2.355  14.119 -0.3952  0.2022  0.0771
16938TIP3    H172229   6.681   2.275  14.159  2.2749 -0.6391  0.9343
16938TIP3    H272230   6.739   2.410  14.193 -0.4867  0.9979 -0.4761
16939TIP3   OH272231   1.344   4.516  12.214  0.0282 -0.1209 -0.0158
16939TIP3    H172232   1.379   4.573  12.146 -0.4912 -0.1688 -0.3321
16939TIP3    H272233   1.389   4.543  12.294  1.2717 -0.6246 -0.5178
16940TIP3   OH272234   5.968   0.680   6.695  0.6628  0.4983 -0.5795
16940TIP3    H172235   6.063   0.680   6.702  0.6475 -1.9863  1.2849
16940TIP3    H272236   5.938   0.642   6.778 -1.9780  1.4778 -0.9794
16941TIP3   OH272237   1.561   4.222   3.884  0.3016  0.2004  0.4030
16941TIP3    H172238   1.484   4.199   3.833 -0.9352  2.0740  1.3107
16941TIP3    H272239   1.565   4.157   3.954  1.6009 -1.9664 -1.5323
16942TIP3   OH272240   0.955   5.894  12.302  0.8172 -0.1390 -0.1985
16942TIP3    H172241   0.874   5.870  12.258  0.0640 -0.5391  1.3448
16942TIP3    H272242   0.949   5.988  12.316  0.1996 -0.2959  0.6802
16943TIP3   OH272243   0.817   3.608  13.452  0.3408  0.3084 -0.1984
16943TIP3    H172244   0.816   3.703  13.458 -0.6095  0.3927 -1.3195
16943TIP3    H272245   0.852   3.589  13.365  0.0372 -0.3540 -0.1832
16944TIP3   OH272246   0.771   3.866   0.920 -0.0670  0.1454 -0.1918
16944TIP3    H172247   0.781   3.957   0.890 -3.1335  0.2712 -1.1655
16944TIP3    H272248   0.760   3.874   1.015 -0.2110  0.7917 -0.2532
16945TIP3   OH272249   4.918   3.897  16.326  0.0233 -0.0204 -0.3483
16945TIP3    H172250   4.986   3.839  16.359  0.4283  0.5300 -0.2058
16945TIP3    H272251   4.965   3.972  16.290 -0.5483  1.4900  1.8628
16946TIP3   OH272252   0.130   2.396   1.609 -0.6317 -0.2587  0.5673
16946TIP3    H172253   0.123   2.477   1.558  0.4072 -1.4855 -1.6582
16946TIP3    H272254   0.069   2.336   1.567 -0.8909 -0.8606  1.7662
16947TIP3   OH272255   5.786   0.014  14.382 -0.2264 -0.5764  0.2063
16947TIP3    H172256   5.727  -0.046  14.427  0.2671 -0.6441  0.7767
16947TIP3    H272257   5.731   0.057  14.317 -0.8633 -0.7707  0.6024
16948TIP3   OH272258   1.077   2.995  14.157 -0.4866  0.1252  0.3425
16948TIP3    H172259   1.068   2.937  14.233  0.1302 -0.6472 -0.1500
16948TIP3    H272260   1.053   3.081  14.189  2.0201  0.2812  2.0578
16949TIP3   OH272261   0.111   5.956   1.276 -0.2218  0.4230 -0.2934
16949TIP3    H172262   0.086   5.930   1.365 -0.7063  2.0290  0.0845
16949TIP3    H272263   0.204   5.978   1.283 -0.4526  1.3718  0.0600
16950TIP3   OH272264   1.355   6.667  11.031 -0.2527  0.7052  0.0803
16950TIP3    H172265   1.403   6.595  11.073 -0.3079  1.1678  0.9589
16950TIP3    H272266   1.410   6.744  11.048 -0.9897  1.1334  0.5499
16951TIP3   OH272267   4.082   4.529  12.369  0.0206  0.7959  0.3341
16951TIP3    H172268   4.115   4.487  12.448 -0.0878  0.5010  0.2234
16951TIP3    H272269   4.160   4.565  12.326  0.8566 -3.1132 -1.8881
16952TIP3   OH272270   6.774   3.508  17.164  0.3461 -0.4134  0.0584
16952TIP3    H172271   6.805   3.518  17.254 -1.7781  1.3412  0.6743
16952TIP3    H272272   6.783   3.595  17.126  1.1629 -1.1191 -1.4587
16953TIP3   OH272273   5.120   0.736   4.968  0.0989 -0.3509  0.0785
16953TIP3    H172274   5.031   0.726   5.001  0.8670 -1.0291  2.0767
16953TIP3    H272275   5.175   0.688   5.030  1.7557 -1.0479 -1.8038
16954TIP3   OH272276   1.894   3.434  13.665 -0.0562  0.3084  0.0557
16954TIP3    H172277   1.922   3.401  13.580 -0.0414  0.3167  0.0571
16954TIP3    H272278   1.938   3.518  13.674 -0.9529  0.8544 -0.4444
16955TIP3   OH272279   2.609   3.099   4.746  0.2405  0.2833  0.4173
16955TIP3    H172280   2.681   3.097   4.684  0.5666  0.7911  0.7770
16955TIP3    H272281   2.642   3.054   4.824  0.1929  0.5753  0.6074
16956TIP3   OH272282   1.483   3.792   5.095  0.6446 -0.0346 -0.0086
16956TIP3    H172283   1.476   3.860   5.028  1.2994 -0.6886 -0.7509
16956TIP3    H272284   1.392   3.772   5.118  0.4133  0.0339 -0.8565
16957TIP3   OH272285   6.775   3.042   6.225 -0.2569  0.0610  0.0322
16957TIP3    H172286   6.764   3.135   6.207 -2.8534 -0.1202  0.2965
16957TIP3    H272287   6.842   3.038   6.293  1.2114  1.5625 -1.2611
16958TIP3   OH272288   5.027   4.541  10.675  0.0028  0.6096  0.3159
16958TIP3    H172289   4.965   4.493  10.621 -0.4220  1.6820 -0.1835
16958TIP3    H272290   5.112   4.523  10.636 -0.4604  2.9823 -2.0669
16959TIP3   OH272291   1.356   1.381  10.960 -0.2145 -0.0779 -0.2182
16959TIP3    H172292   1.425   1.371  10.894 -1.2841  1.2563 -1.6052
16959TIP3    H272293   1.276   1.351  10.917 -0.8006 -0.0184  0.7884
16960TIP3   OH272294   1.053   6.525  10.424 -0.3205 -0.2886  0.8198
16960TIP3    H172295   1.027   6.446  10.377 -1.5399 -0.7513  2.2148
16960TIP3    H272296   0.991   6.532  10.496 -0.1877  1.9113  0.7853
16961TIP3   OH272297   0.216   5.644   1.657  0.0837  0.2843  0.0862
16961TIP3    H172298   0.226   5.684   1.743 -0.5371 -0.7799  0.6610
16961TIP3    H272299   0.193   5.553   1.674  3.5080 -0.9786 -1.1547
16962TIP3   OH272300   0.067   2.943   5.126 -0.1149 -0.2047 -0.1208
16962TIP3    H172301   0.019   3.025   5.111 -0.4298  0.0326  1.9322
16962TIP3    H272302   0.144   2.950   5.070 -0.6958  0.9945 -0.8145
16963TIP3   OH272303   6.071   2.334  16.396  0.5013 -0.3043 -0.6890
16963TIP3    H172304   5.977   2.317  16.398  0.2927  0.5904 -2.1300
16963TIP3    H272305   6.110   2.247  16.407 -0.4936 -0.8531 -1.3258
16964TIP3   OH272306   6.090   5.801  13.827 -0.1106 -0.3306  0.3617
16964TIP3    H172307   6.027   5.768  13.892 -0.7225  0.4494  0.1766
16964TIP3    H272308   6.175   5.790  13.869 -0.4984  0.1798  1.3221
16965TIP3   OH272309   5.550   2.310  11.917 -0.1615  0.0575 -0.2823
16965TIP3    H172310   5.505   2.295  11.834 -0.2704  1.0230 -0.4159
16965TIP3    H272311   5.581   2.400  11.910 -1.2695  0.5879  1.2475
16966TIP3   OH272312   5.162   1.809   4.973 -0.2466 -0.1605  0.3179
16966TIP3    H172313   5.115   1.869   4.915 -0.0481 -0.5205 -0.2262
16966TIP3    H272314   5.169   1.856   5.056  0.8491  1.0376 -0.4155
16967TIP3   OH272315   4.317   1.323   1.882 -0.4470 -0.4263  0.0583
16967TIP3    H172316   4.287   1.319   1.791 -0.7787  0.2842  0.1244
16967TIP3    H272317   4.386   1.388   1.882 -1.9374  1.2418  0.6762
16968TIP3   OH272318   0.517   0.895   5.412 -0.9909 -0.6894 -0.3040
16968TIP3    H172319   0.521   0.990   5.404 -0.8241 -0.6348  0.3650
16968TIP3    H272320   0.432   0.871   5.375 -1.1270 -0.2560 -0.2735
16969TIP3   OH272321   0.702   6.727  13.128  0.6222 -0.7444 -0.0941
16969TIP3    H172322   0.712   6.805  13.073 -3.2777  0.0818  0.1158
16969TIP3    H272323   0.760   6.742  13.202  1.4912  0.9465 -1.0464
16970TIP3   OH272324   4.672   5.306  17.097  0.1273  0.3804  0.5993
16970TIP3    H172325   4.598   5.254  17.066  0.0708  0.0470  1.2703
16970TIP3    H272326   4.748   5.247  17.090 -0.3213 -0.7796  3.7613
16971TIP3   OH272327   5.651   2.129  12.093  0.1817 -0.1201 -0.9753
16971TIP3    H172328   5.603   2.184  12.031  0.0287 -1.9448 -2.5811
16971TIP3    H272329   5.694   2.063  12.038 -0.2913 -2.0773  0.8558
16972TIP3   OH272330   1.611   0.228   4.023 -0.6067  0.4357 -0.0739
16972TIP3    H172331   1.658   0.158   3.978 -1.6031 -0.8986  0.8643
16972TIP3    H272332   1.658   0.308   4.000  1.4110 -0.6978 -0.0520
16973TIP3   OH272333   2.833   0.960   4.668 -0.5426  0.1402  0.2019
16973TIP3    H172334   2.904   1.024   4.666 -0.4561  0.0291 -0.4628
16973TIP3    H272335   2.771   0.992   4.603 -0.5295 -0.4192 -0.0875
16974TIP3   OH272336   1.736   3.041  12.743 -0.2419 -0.0308 -1.1119
16974TIP3    H172337   1.733   3.049  12.648  1.2622 -0.9324 -1.2699
16974TIP3    H272338   1.827   3.061  12.766 -0.6113  0.2809  0.1521
16975TIP3   OH272339   2.873   3.004  11.887  0.6352  0.0493  0.6960
16975TIP3    H172340   2.891   3.049  11.969 -0.0962 -0.5250  1.1777
16975TIP3    H272341   2.805   2.941  11.908 -0.8274  1.0764 -0.7215
16976TIP3   OH272342   5.160   0.340  14.629 -0.1012 -0.4127  0.5274
16976TIP3    H172343   5.074   0.344  14.587 -0.1991 -2.3047  0.4606
16976TIP3    H272344   5.172   0.248  14.650  1.9444 -0.2018  0.5037
16977TIP3   OH272345   5.827   1.679  14.572  0.8234  0.2915  0.4309
16977TIP3    H172346   5.870   1.595  14.584 -1.3554 -1.2821 -1.7739
16977TIP3    H272347   5.844   1.702  14.480 -0.7265  0.9580  0.2760
16978TIP3   OH272348   3.697   3.686  15.233  0.0205 -0.3092  0.2360
16978TIP3    H172349   3.685   3.668  15.326 -0.2761  0.6229  0.3860
16978TIP3    H272350   3.640   3.623  15.189 -1.5973  0.7137  0.7721
16979TIP3   OH272351   1.722   0.427   2.412  0.1446  0.2430 -0.2620
16979TIP3    H172352   1.738   0.347   2.462 -0.2133 -0.4989 -1.3059
16979TIP3    H272353   1.694   0.491   2.477 -0.7409 -0.8289  0.4312
16980TIP3   OH272354   4.064   0.263   2.731  0.6360 -0.2261  0.1662
16980TIP3    H172355   4.128   0.288   2.664  1.1586 -4.0421 -0.9908
16980TIP3    H272356   3.979   0.272   2.688  0.6591  1.1006  0.3722
16981TIP3   OH272357   6.755   2.082   1.725  0.4285  0.3973  0.2164
16981TIP3    H172358   6.782   2.135   1.650  3.2607 -2.7988 -1.3121
16981TIP3    H272359   6.683   2.028   1.692  0.2385  0.4957  0.4712
16982TIP3   OH272360   5.504   3.753  16.461  0.2610 -0.1030  0.3420
16982TIP3    H172361   5.485   3.769  16.553 -0.9621 -0.2397  0.1280
16982TIP3    H272362   5.555   3.829  16.434 -1.2271  1.0357  0.5950
16983TIP3   OH272363   1.356   1.389  11.672  0.6816 -0.3173  0.3156
16983TIP3    H172364   1.311   1.474  11.674  3.2792  1.1342  1.7297
16983TIP3    H272365   1.421   1.397  11.602  0.6335 -1.3753  0.1220
16984TIP3   OH272366   5.611   6.328   4.009  0.0140  0.1145  0.6147
16984TIP3    H172367   5.608   6.301   3.918 -0.2591 -6.2924  2.0278
16984TIP3    H272368   5.704   6.328   4.032  0.0091  0.4528  0.6440
16985TIP3   OH272369   5.473   5.252  11.407  0.5414 -0.2058  0.5523
16985TIP3    H172370   5.503   5.342  11.392  0.3856 -0.3481 -0.6513
16985TIP3    H272371   5.541   5.214  11.464 -0.0278  1.0240  2.1352
16986TIP3   OH272372   2.654   4.456  16.490 -0.2628 -0.2679 -0.5956
16986TIP3    H172373   2.600   4.489  16.562  0.3317 -1.7871  0.5996
16986TIP3    H272374   2.591   4.439  16.419 -1.2238 -0.9331  0.3744
16987TIP3   OH272375   0.266   2.960  11.785 -0.1870  0.4402  0.3824
16987TIP3    H172376   0.282   2.872  11.751  0.2915  0.8693 -0.5489
16987TIP3    H272377   0.174   2.977  11.765 -0.1425  0.3501  0.0957
16988TIP3   OH272378   6.275   2.863  17.134 -0.2204  0.1167 -0.0119
16988TIP3    H172379   6.326   2.782  17.141  1.0121  0.8994  0.4289
16988TIP3    H272380   6.293   2.909  17.216 -0.0620  1.3043 -0.6978
16989TIP3   OH272381   3.315   5.115  12.629  0.1226 -0.3193 -0.0071
16989TIP3    H172382   3.268   5.039  12.595  1.9322 -1.6835  0.3422
16989TIP3    H272383   3.381   5.134  12.563 -0.7813  1.4996 -0.4570
16990TIP3   OH272384   4.152   1.379   2.111  0.6421 -0.3066 -0.1185
16990TIP3    H172385   4.208   1.411   2.181 -1.0587  2.8379 -0.0121
16990TIP3    H272386   4.203   1.394   2.031  0.8060  0.4298  0.1223
16991TIP3   OH272387   6.691   5.245  16.388 -0.0406 -0.3483 -0.0410
16991TIP3    H172388   6.761   5.218  16.329  1.1583  0.8909  0.7725
16991TIP3    H272389   6.695   5.183  16.461 -0.6772 -1.0803 -0.6073
16992TIP3   OH272390   2.842   4.083   0.305  0.1852 -0.3645 -0.1659
16992TIP3    H172391   2.841   4.008   0.246 -2.0067 -0.7167  0.2595
16992TIP3    H272392   2.932   4.084   0.340  0.7778 -1.6747 -1.5268
16993TIP3   OH272393   3.262   5.001  17.096 -0.2547  0.2007  0.6392
16993TIP3    H172394   3.207   4.926  17.119  1.4932 -1.8604 -1.4247
16993TIP3    H272395   3.244   5.017  17.003  1.0323  0.8773  0.4782
16994TIP3   OH272396   3.791   2.893  16.539  0.4411 -0.2286 -0.1614
16994TIP3    H172397   3.747   2.893  16.454 -0.8620  0.9159  0.4718
16994TIP3    H272398   3.747   2.825  16.589 -0.9967  1.2169  0.6247
16995TIP3   OH272399   6.685   4.209  11.129  0.1548  0.1384  0.3330
16995TIP3    H172400   6.732   4.227  11.048  1.6940 -0.3196  1.0727
16995TIP3    H272401   6.648   4.293  11.155 -1.0781  0.1298 -1.2391
16996TIP3   OH272402   1.826   6.701   5.089  0.4151  0.1288 -0.3187
16996TIP3    H172403   1.782   6.663   5.165  0.9799  0.1596  0.0300
16996TIP3    H272404   1.780   6.663   5.013  1.8096 -2.3693 -0.0387
16997TIP3   OH272405   0.537   2.910  15.614  0.0330 -0.5105 -0.6674
16997TIP3    H172406   0.458   2.947  15.653 -0.0665  0.0571 -1.3714
16997TIP3    H272407   0.594   2.890  15.688 -0.0453  0.7834 -0.2373
16998TIP3   OH272408   0.854   4.542  11.154  0.2493  0.4998 -0.2510
16998TIP3    H172409   0.829   4.450  11.149 -1.5360  0.9153  0.1911
16998TIP3    H272410   0.945   4.541  11.184  0.4271 -1.1086 -0.7247
16999TIP3   OH272411   0.717   6.197  12.134  0.1807 -0.2142  0.3236
16999TIP3    H172412   0.699   6.291  12.127 -0.8200 -0.5294 -2.0846
16999TIP3    H272413   0.801   6.185  12.090  1.3835 -0.2392  2.4502
17000TIP3   OH272414   6.076   0.060   4.518  0.0010  0.2435 -0.3973
17000TIP3    H172415   6.157   0.068   4.570  0.0423  1.5381 -0.6216
17000TIP3    H272416   6.099  -0.001   4.448  0.5332 -0.0427  0.0155
17001TIP3   OH272417   5.218   3.682   0.842  0.0167 -0.1088  0.0432
17001TIP3    H172418   5.303   3.710   0.810 -0.3395 -0.2491 -1.0533
17001TIP3    H272419   5.213   3.717   0.931  1.8669 -1.4433  0.7333
17002TIP3   OH272420   4.172   2.202   4.126 -0.1126 -0.0981  0.0013
17002TIP3    H172421   4.169   2.219   4.220 -1.6803 -1.5527  0.2781
17002TIP3    H272422   4.145   2.110   4.118  0.6789 -0.2132 -1.8301
17003TIP3   OH272423   1.961   4.899   0.409 -0.1654  0.2598 -0.4687
17003TIP3    H172424   2.002   4.897   0.495 -1.7389  1.5362  0.3652
17003TIP3    H272425   2.034   4.898   0.347  1.0358  0.5313  0.9041
17004TIP3   OH272426   5.728   6.324  14.247  0.3164 -0.4351 -0.0295
17004TIP3    H172427   5.656   6.386  14.240  0.7498  0.2666  1.4580
17004TIP3    H272428   5.691   6.241  14.215 -1.1946 -0.1255  0.8140
17005TIP3   OH272429   1.638   4.916  11.457 -0.3870  0.5596  0.0721
17005TIP3    H172430   1.553   4.873  11.469 -0.4824  0.9238  0.7455
17005TIP3    H272431   1.623   4.979  11.386 -0.5987  0.4004 -0.0239
17006TIP3   OH272432   5.104   5.119  14.334 -0.2828 -0.3518  0.1543
17006TIP3    H172433   5.158   5.173  14.277  0.7296  0.3101  1.6753
17006TIP3    H272434   5.048   5.069  14.275  1.3620 -0.3705 -1.4444
17007TIP3   OH272435   2.529   3.832   5.746 -0.0686  0.3769 -0.3822
17007TIP3    H172436   2.449   3.832   5.693 -0.8024 -0.0140  0.6885
17007TIP3    H272437   2.598   3.861   5.686 -0.9280  0.2611 -1.4532
17008TIP3   OH272438   3.897   4.091   6.431 -0.4862  0.0300 -0.0690
17008TIP3    H172439   3.896   3.995   6.430  0.7259 -0.0186 -2.2996
17008TIP3    H272440   3.806   4.116   6.417 -0.6224 -0.8208 -0.7906
17009TIP3   OH272441   4.913   3.896   2.273 -0.1113  0.3661  0.1659
17009TIP3    H172442   4.968   3.818   2.262 -1.0528 -0.0210 -2.7199
17009TIP3    H272443   4.962   3.951   2.334  1.6734 -1.4921  0.5425
17010TIP3   OH272444   5.590   4.432   5.227 -0.4280 -0.1206  0.2199
17010TIP3    H172445   5.662   4.457   5.286  0.9937 -1.9423 -0.6331
17010TIP3    H272446   5.537   4.371   5.279 -0.7439  0.4019  0.5088
17011TIP3   OH272447   5.701   4.999   1.528 -0.2686  0.1087  0.1467
17011TIP3    H172448   5.747   4.936   1.473  0.0569 -1.1445  1.7769
17011TIP3    H272449   5.690   5.076   1.472  0.7426 -0.8075 -1.3897
17012TIP3   OH272450   3.793   3.109  12.497  0.0899 -0.0794 -0.5192
17012TIP3    H172451   3.836   3.174  12.442  1.5804 -2.1447 -1.9334
17012TIP3    H272452   3.859   3.087  12.564 -1.4565  1.9108  1.8735
17013TIP3   OH272453   5.808   1.654  12.300 -0.6227  0.4600  0.1705
17013TIP3    H172454   5.750   1.598  12.250 -1.6069  1.3743  0.2608
17013TIP3    H272455   5.893   1.610  12.295 -1.0498 -0.2966 -0.9350
17014TIP3   OH272456   6.025   4.653   0.916 -0.2965 -0.3821  0.6537
17014TIP3    H172457   6.041   4.570   0.961  0.1123  0.0197  1.2809
17014TIP3    H272458   5.965   4.632   0.845 -1.2225 -0.9966  1.5928
17015TIP3   OH272459   4.633   5.221   1.247  0.3587  0.2108  0.5332
17015TIP3    H172460   4.554   5.274   1.238  0.5576  0.3037 -1.0113
17015TIP3    H272461   4.604   5.141   1.292 -0.5571  0.3714  0.2506
17016TIP3   OH272462   0.119   4.966  15.050 -0.0844  0.8776  0.1196
17016TIP3    H172463   0.196   5.019  15.030  0.2608  0.5020  0.4425
17016TIP3    H272464   0.150   4.900  15.111 -0.3030 -0.2453 -0.9326
17017TIP3   OH272465   1.614   2.185   4.791 -0.9155  0.1364  0.6407
17017TIP3    H172466   1.662   2.180   4.709  1.6027 -1.2500  2.0854
17017TIP3    H272467   1.557   2.108   4.790 -1.0341  0.2268  0.1351
17018TIP3   OH272468   6.722   4.064  13.869 -0.1161  0.1654 -0.3464
17018TIP3    H172469   6.738   3.972  13.847 -0.1120 -0.2123  1.1220
17018TIP3    H272470   6.803   4.108  13.846 -0.0861 -0.2017 -0.9860
17019TIP3   OH272471   2.021   1.015  13.201  0.0615  0.1200  0.3946
17019TIP3    H172472   1.986   0.926  13.193 -0.9507  0.4423  1.0403
17019TIP3    H272473   2.108   1.010  13.161  0.1005 -1.1999  0.5895
17020TIP3   OH272474   0.191   0.895  14.019  0.1957  0.1143  0.7663
17020TIP3    H172475   0.130   0.854  14.081  0.7686  0.2072  1.3960
17020TIP3    H272476   0.172   0.852  13.936 -0.4228 -0.1778  1.0471
17021TIP3   OH272477   5.232   3.986   2.577  0.2708 -0.1683 -0.4679
17021TIP3    H172478   5.250   3.942   2.494  1.5220 -0.9545  0.1753
17021TIP3    H272479   5.141   3.964   2.597  0.3123 -0.9317 -1.0690
17022TIP3   OH272480   0.581   2.604   0.960  0.9075 -0.0801 -0.0650
17022TIP3    H172481   0.603   2.652   1.040  0.7974  1.0747 -0.6986
17022TIP3    H272482   0.535   2.668   0.906 -0.6072 -1.3332 -0.3454
17023TIP3   OH272483   3.781   3.054   2.305 -0.1292 -0.4524 -0.1090
17023TIP3    H172484   3.774   3.071   2.399  1.4551 -1.2649  0.2023
17023TIP3    H272485   3.698   3.013   2.282 -1.1786  1.1723  0.5777
17024TIP3   OH272486   2.112   4.950   5.079 -0.0609  0.1364  0.6380
17024TIP3    H172487   2.051   5.021   5.059  0.1166  0.7035  1.9932
17024TIP3    H272488   2.198   4.993   5.082  0.1754 -0.3198  0.5430
17025TIP3   OH272489   0.627   4.934   4.307 -0.1131 -0.3907  0.7727
17025TIP3    H172490   0.630   4.882   4.388  0.2049 -0.5671  0.6484
17025TIP3    H272491   0.717   4.962   4.293 -0.0951 -0.6951  0.2617
17026TIP3   OH272492   6.392   0.501   3.082 -0.2953 -0.0505  0.2128
17026TIP3    H172493   6.414   0.484   3.174 -2.2769 -1.1444  0.5396
17026TIP3    H272494   6.303   0.467   3.072 -0.6490  1.3080 -1.7798
17027TIP3   OH272495   0.251   0.982   5.074 -0.2590 -0.6923 -0.2866
17027TIP3    H172496   0.228   0.981   5.166 -0.1662  0.1608 -0.2475
17027TIP3    H272497   0.199   0.911   5.035  1.1750 -2.3847  0.7478
17028TIP3   OH272498   5.610   1.020   4.888  0.0889  0.0094  0.2201
17028TIP3    H172499   5.648   1.096   4.843 -1.2219  0.2028 -0.5945
17028TIP3    H272500   5.646   0.944   4.841 -1.8279  0.2127 -1.7316
17029TIP3   OH272501   2.695   2.261  14.776 -0.3364 -0.7375  0.1879
17029TIP3    H172502   2.643   2.189  14.741 -0.3022  0.4574 -2.6851
17029TIP3    H272503   2.660   2.339  14.731  3.6805  0.1752 -1.8588
17030TIP3   OH272504   6.699   1.053   3.018  0.1545 -0.2257 -0.4529
17030TIP3    H172505   6.660   0.966   3.026 -0.5901  0.1485  0.0648
17030TIP3    H272506   6.790   1.036   2.993  0.6381 -1.2493  1.8050
17031TIP3   OH272507   5.799   6.541   2.890  0.3040  0.3235  0.0581
17031TIP3    H172508   5.708   6.514   2.881 -0.2464  2.4234 -1.4643
17031TIP3    H272509   5.796   6.618   2.947  0.9624  1.1108 -0.9426
17032TIP3   OH272510   3.761   6.273   4.550 -0.1274  0.0109 -0.1379
17032TIP3    H172511   3.700   6.262   4.477 -0.4879  1.1460 -0.0197
17032TIP3    H272512   3.812   6.350   4.527  0.0203  0.1468  0.6361
17033TIP3   OH272513   0.638   5.741  12.762 -0.4790 -0.3749  0.0603
17033TIP3    H172514   0.644   5.814  12.823  0.5223  1.0354 -1.6096
17033TIP3    H272515   0.718   5.747  12.709 -0.4874 -2.5509 -0.2967
17034TIP3   OH272516   3.750   0.986  13.220 -0.1925  0.3621 -0.1669
17034TIP3    H172517   3.670   0.977  13.271  1.3945  0.5409  2.5646
17034TIP3    H272518   3.766   1.080  13.217 -1.4433  0.5825 -3.1467
17035TIP3   OH272519   2.819   5.763   0.871 -0.3963 -0.0549  0.3403
17035TIP3    H172520   2.783   5.851   0.870 -4.6307 -1.5510 -2.1451
17035TIP3    H272521   2.843   5.745   0.780  0.0151 -1.6170  0.7196
17036TIP3   OH272522   3.401   2.925   2.537 -0.3910 -0.0808  0.2832
17036TIP3    H172523   3.452   2.938   2.457 -0.3031  2.8169  0.6819
17036TIP3    H272524   3.317   2.892   2.507  0.4776 -1.5075 -0.7098
17037TIP3   OH272525   3.471   0.986   4.029  0.4348  0.5243 -0.2847
17037TIP3    H172526   3.465   0.977   4.125  1.2124  0.5830 -0.2244
17037TIP3    H272527   3.497   0.899   3.999 -0.4328  0.3348 -0.5099
17038TIP3   OH272528   0.351   6.332   4.106  0.3275 -0.3006 -0.1852
17038TIP3    H172529   0.303   6.320   4.189  1.3477  2.1098  0.8669
17038TIP3    H272530   0.287   6.374   4.048  0.0199 -0.6677 -0.1112
17039TIP3   OH272531   0.322   3.429   1.599 -0.0997  0.2504  0.1610
17039TIP3    H172532   0.338   3.446   1.692  1.6189 -0.3909  0.0300
17039TIP3    H272533   0.404   3.456   1.556 -0.3974 -0.6535 -1.0065
17040TIP3   OH272534   5.695   3.728   5.720  0.8055 -0.1622  0.5562
17040TIP3    H172535   5.777   3.775   5.706  0.3900  0.5864  0.5847
17040TIP3    H272536   5.630   3.797   5.734 -0.0387 -0.7107 -0.5323
17041TIP3   OH272537   0.760   1.143   1.888 -0.4690 -0.3534 -0.0492
17041TIP3    H172538   0.851   1.119   1.869 -0.9993 -1.7554 -0.9533
17041TIP3    H272539   0.765   1.191   1.970  1.5371  3.0095 -1.9392
17042TIP3   OH272540   1.980   4.681  13.770 -0.4941  0.2030 -0.3433
17042TIP3    H172541   1.955   4.766  13.805  0.4359  0.2816  0.1601
17042TIP3    H272542   2.018   4.635  13.844 -1.7048 -0.9644 -0.4194
17043TIP3   OH272543   0.531   5.351  11.528  0.6395 -0.1937  0.3023
17043TIP3    H172544   0.483   5.330  11.608  0.6508 -0.2139  0.3036
17043TIP3    H272545   0.578   5.270  11.507  0.6677 -0.1760  0.2964
17044TIP3   OH272546   0.860   4.406   6.039 -0.5430  0.5702  0.5692
17044TIP3    H172547   0.774   4.390   6.001 -1.0368 -1.7825  2.4922
17044TIP3    H272548   0.843   4.442   6.125  0.2738 -1.3915  1.6172
17045TIP3   OH272549   4.516   1.581   4.079  0.1086  0.1070  0.6780
17045TIP3    H172550   4.581   1.622   4.137  1.3793 -2.0099  0.8776
17045TIP3    H272551   4.441   1.563   4.136  0.1766  0.6962  0.9594
17046TIP3   OH272552   4.005   0.505  14.986  0.6310  0.1772 -0.1474
17046TIP3    H172553   4.091   0.534  15.017  0.2139  0.6657  0.5839
17046TIP3    H272554   3.954   0.491  15.066 -0.2198  0.6554 -0.5907
17047TIP3   OH272555   6.775   2.790   0.856 -0.0978  0.1497  0.3522
17047TIP3    H172556   6.683   2.802   0.832 -0.5795 -0.0586  1.9137
17047TIP3    H272557   6.815   2.876   0.841  0.1684 -0.4197 -2.9132
17048TIP3   OH272558   0.101   5.954  11.418  0.1136  0.0430 -0.4954
17048TIP3    H172559   0.014   5.914  11.416  0.1461 -0.0542 -0.0638
17048TIP3    H272560   0.162   5.880  11.419  0.2423  0.1047 -1.9270
17049TIP3   OH272561   4.241   1.073   1.080  0.2172 -0.0976 -0.1640
17049TIP3    H172562   4.304   1.040   1.017  1.0455  0.8911  0.1164
17049TIP3    H272563   4.282   1.153   1.115 -0.6834 -0.0644  0.8544
17050TIP3   OH272564   0.420   5.962   3.754  0.8234  0.1601 -0.0626
17050TIP3    H172565   0.507   5.991   3.781  0.1875  3.1126 -0.7945
17050TIP3    H272566   0.432   5.934   3.663  1.1209  0.0743  0.0021
17051TIP3   OH272567   1.086   5.204  11.131  0.2031  0.3298  0.0622
17051TIP3    H172568   1.104   5.160  11.048 -3.5614  0.4275 -0.9697
17051TIP3    H272569   1.144   5.280  11.131  2.2250 -1.1134 -1.1252
17052TIP3   OH272570   2.685   0.682   3.676  0.2983  0.3277 -0.4919
17052TIP3    H172571   2.770   0.692   3.635 -0.3842 -0.0358 -2.0544
17052TIP3    H272572   2.683   0.591   3.706 -0.4061 -0.3994 -2.5916
17053TIP3   OH272573   2.322   3.254  12.881  0.5126 -0.3303  0.1947
17053TIP3    H172574   2.417   3.246  12.884  0.5044 -1.6260 -1.4943
17053TIP3    H272575   2.302   3.276  12.790 -0.8056 -0.2787  0.4696
17054TIP3   OH272576   2.645   3.299  10.800  0.9204  0.6668 -0.4082
17054TIP3    H172577   2.585   3.265  10.866 -0.1034  4.7629  1.0193
17054TIP3    H272578   2.726   3.248  10.814 -0.3551 -0.9902  1.5495
17055TIP3   OH272579   4.491   3.223   2.244  0.2454 -0.4303 -0.5176
17055TIP3    H172580   4.409   3.265   2.219 -0.1155  0.0573  1.3246
17055TIP3    H272581   4.478   3.130   2.225 -0.1994 -0.1707 -1.5306
17056TIP3   OH272582   6.078   1.148  16.271  0.3328 -0.1447  0.0025
17056TIP3    H172583   6.172   1.162  16.268  0.3166 -0.1716 -2.2009
17056TIP3    H272584   6.048   1.201  16.345  2.0849 -0.3252  0.8816
17057TIP3   OH272585   5.109   3.866  12.879 -0.7004 -0.4958 -0.0206
17057TIP3    H172586   5.162   3.817  12.942 -0.5104 -0.2258  0.0307
17057TIP3    H272587   5.048   3.801  12.843 -0.6560 -0.7004  0.2727
17058TIP3   OH272588   1.735   4.845   3.618 -0.2751  1.2267  0.2886
17058TIP3    H172589   1.728   4.922   3.562  0.7069  1.8252  0.9610
17058TIP3    H272590   1.696   4.872   3.701 -2.3349  0.1315 -0.2659
17059TIP3   OH272591   5.429   3.834  14.485 -0.3083 -0.0406  0.1062
17059TIP3    H172592   5.453   3.844  14.577 -1.2206 -0.7481  0.4335
17059TIP3    H272593   5.341   3.869  14.479 -0.8803 -1.4561 -0.1462
17060TIP3   OH272594   2.325   0.387  16.582 -0.4454  0.2556 -0.1976
17060TIP3    H172595   2.365   0.300  16.582  1.2675  0.9868 -1.1570
17060TIP3    H272596   2.394   0.445  16.615 -1.3714  1.3246 -0.0927
17061TIP3   OH272597   6.765   2.407  13.211  0.2617 -0.1063 -0.3974
17061TIP3    H172598   6.699   2.384  13.145  0.8871  0.2266 -1.1629
17061TIP3    H272599   6.741   2.495  13.239  1.6768  1.0245 -2.4264
17062TIP3   OH272600   4.510   3.963   3.735 -0.0541 -0.3968 -0.8810
17062TIP3    H172601   4.599   3.981   3.763 -0.1923 -0.6453 -0.2692
17062TIP3    H272602   4.482   4.044   3.691  0.6029 -0.4633 -1.4345
17063TIP3   OH272603   4.517   0.121   1.377 -0.0855 -0.2446  0.2894
17063TIP3    H172604   4.434   0.114   1.330  0.4925  2.4590 -1.3537
17063TIP3    H272605   4.551   0.208   1.354  4.2960 -1.9822 -0.9657
17064TIP3   OH272606   3.079   3.171  16.622 -0.1059 -0.7203  0.3651
17064TIP3    H172607   3.099   3.138  16.709  1.3154 -0.5626  0.1118
17064TIP3    H272608   3.123   3.110  16.563 -0.9072 -0.7227 -0.2432
17065TIP3   OH272609   1.292   1.064  11.655 -0.0213  0.7341  0.0397
17065TIP3    H172610   1.361   1.126  11.631 -0.2351  1.7249  1.8113
17065TIP3    H272611   1.298   1.057  11.750 -0.2030 -1.7803 -0.0543
17066TIP3   OH272612   2.315   4.778  15.064  0.1520 -0.1064 -0.2920
17066TIP3    H172613   2.317   4.873  15.051 -0.3304 -0.1156 -0.4658
17066TIP3    H272614   2.258   4.765  15.140 -0.5942 -0.3081 -0.8713
17067TIP3   OH272615   2.117   6.337  14.050 -0.0552 -0.1191  0.4857
17067TIP3    H172616   2.087   6.297  13.968 -0.3790  1.1467 -0.0416
17067TIP3    H272617   2.149   6.263  14.102 -0.9625 -1.1046 -0.2890
17068TIP3   OH272618   2.115   4.237  10.941  0.1484 -0.5775 -0.2941
17068TIP3    H172619   2.168   4.158  10.950  1.2528 -0.0746 -1.8790
17068TIP3    H272620   2.070   4.226  10.857  1.9801  1.3476 -1.6366
17069TIP3   OH272621   1.835   2.993   4.345  0.4857  0.5493 -0.1070
17069TIP3    H172622   1.781   2.915   4.333  0.3388  0.8131 -1.3303
17069TIP3    H272623   1.777   3.057   4.387  0.6316 -0.0088  0.9765
17070TIP3   OH272624   5.106   3.854  16.061 -0.4262  0.3590 -0.3163
17070TIP3    H172625   5.079   3.765  16.085 -0.5812  0.4031 -0.3208
17070TIP3    H272626   5.026   3.906  16.071 -0.2231  0.5884  0.1404
17071TIP3   OH272627   3.913   0.003   1.436 -0.2116 -0.1872  0.5269
17071TIP3    H172628   3.831  -0.030   1.475 -0.1115  0.7772  1.6102
17071TIP3    H272629   3.919   0.094   1.466  1.8634 -0.5817  1.4954
17072TIP3   OH272630   1.891   1.817  14.678  0.1827  0.0880  0.4098
17072TIP3    H172631   1.856   1.807  14.767 -2.8881  1.3954 -0.5019
17072TIP3    H272632   1.915   1.729  14.652 -1.1082 -0.7045  1.7310
17073TIP3   OH272633   2.089   5.254  13.222  0.5350  0.4154  0.0061
17073TIP3    H172634   2.175   5.274  13.185  0.7907 -0.1876  0.2646
17073TIP3    H272635   2.027   5.294  13.161  1.0005  0.9436 -0.1256
17074TIP3   OH272636   1.937   4.174   4.351  0.3692 -0.5430  0.0885
17074TIP3    H172637   1.897   4.088   4.362  0.8049 -0.8711 -0.7528
17074TIP3    H272638   2.005   4.178   4.418  2.0744 -1.9252 -1.4455
17075TIP3   OH272639   4.378   6.596  15.538 -0.3663 -0.4601 -0.1377
17075TIP3    H172640   4.393   6.670  15.479  0.8095 -1.4970 -1.1907
17075TIP3    H272641   4.283   6.589  15.544 -0.5013  1.1804  0.0700
17076TIP3   OH272642   1.319   3.741   3.068  0.3242 -0.4193 -0.2242
17076TIP3    H172643   1.261   3.673   3.033  0.4720  0.0392 -1.4150
17076TIP3    H272644   1.260   3.812   3.093  0.2320 -0.6737  0.2870
17077TIP3   OH272645   5.340   4.039  13.223  0.0590  0.2804  0.2043
17077TIP3    H172646   5.371   4.128  13.237  0.9630 -0.0610  0.3792
17077TIP3    H272647   5.393   4.005  13.151 -0.8635  0.1673 -0.4426
17078TIP3   OH272648   2.853   6.587   1.997  0.0128 -0.2978 -0.3943
17078TIP3    H172649   2.805   6.561   1.919  1.2067 -1.6934 -0.7232
17078TIP3    H272650   2.838   6.681   2.005 -0.2276 -0.1482 -2.2394
17079TIP3   OH272651   5.544   1.002   4.060 -0.5391  0.0976  0.2662
17079TIP3    H172652   5.553   0.916   4.018 -0.4857 -0.7287  1.8967
17079TIP3    H272653   5.582   1.063   3.997 -0.2137 -1.1127 -0.7665
17080TIP3   OH272654   3.578   2.472   1.779 -0.0714 -0.0913 -0.2832
17080TIP3    H172655   3.572   2.567   1.772 -0.8413 -0.2098 -1.5319
17080TIP3    H272656   3.649   2.457   1.842 -0.7061  1.3028  0.8151
17081TIP3   OH272657   1.592   0.934  12.709  0.1708 -0.3916  0.5447
17081TIP3    H172658   1.674   0.885  12.716  1.5126  1.7028  0.4518
17081TIP3    H272659   1.613   1.021  12.743 -1.2022  1.1074 -2.1027
17082TIP3   OH272660   0.611   3.953   5.085 -0.1637 -0.3336 -0.2348
17082TIP3    H172661   0.600   4.017   5.015 -0.3616 -0.1670 -0.0527
17082TIP3    H272662   0.531   3.961   5.137  0.6975  0.7655  1.0026
17083TIP3   OH272663   1.599   3.134  14.709 -0.2719  0.3065 -0.3280
17083TIP3    H172664   1.569   3.215  14.669 -1.1570 -0.1861 -0.6863
17083TIP3    H272665   1.609   3.073  14.635 -1.4496 -0.4631  0.1163
17084TIP3   OH272666   0.709   1.285   6.272 -0.4585 -0.3124 -0.0184
17084TIP3    H172667   0.786   1.320   6.318 -0.9249  0.8932 -0.1241
17084TIP3    H272668   0.645   1.269   6.341 -1.0885  1.3133 -0.1844
17085TIP3   OH272669   4.970   2.387   5.585 -0.1591 -0.1310  0.0002
17085TIP3    H172670   4.965   2.467   5.637 -0.2435 -0.2424  0.1630
17085TIP3    H272671   4.983   2.317   5.649 -0.4508 -0.2895 -0.1107
17086TIP3   OH272672   1.132   1.992   5.972 -0.0180 -0.0020  0.0302
17086TIP3    H172673   1.132   1.928   6.043 -1.5831 -1.4391 -1.1900
17086TIP3    H272674   1.042   1.992   5.939 -0.4387  3.8194  0.7809
17087TIP3   OH272675   5.479   2.956  13.121  0.2439 -0.0943 -1.2329
17087TIP3    H172676   5.532   3.027  13.086  0.2927  1.0511  1.0038
17087TIP3    H272677   5.420   2.998  13.183 -1.0900 -1.7706 -1.2834
17088TIP3   OH272678   4.603   5.708   4.463 -0.0641 -0.1128 -0.7271
17088TIP3    H172679   4.615   5.692   4.557  0.4587  1.9767 -0.3731
17088TIP3    H272680   4.554   5.791   4.459  2.5848  1.5378 -2.2370
17089TIP3   OH272681   5.461   1.312  15.349  0.2655 -0.0527 -0.6465
17089TIP3    H172682   5.395   1.320  15.281  0.1139 -0.8423 -0.6040
17089TIP3    H272683   5.535   1.269  15.306 -0.1014 -1.2212 -0.1568
17090TIP3   OH272684   0.767   0.330  14.958 -0.6679  0.0934  0.3885
17090TIP3    H172685   0.818   0.394  15.008  1.3353 -1.2912  0.2148
17090TIP3    H272686   0.691   0.312  15.013  0.5275  0.0229  2.0991
17091TIP3   OH272687   4.126   1.355  14.395  0.4406  0.0847  0.3278
17091TIP3    H172688   4.102   1.448  14.396  0.9772  0.2410 -0.5158
17091TIP3    H272689   4.222   1.355  14.387  0.5395 -0.5454  1.2967
17092TIP3   OH272690   5.685   0.851  13.759 -0.3212  0.3382 -0.5141
17092TIP3    H172691   5.767   0.867  13.806  0.0094  0.2978 -1.0638
17092TIP3    H272692   5.651   0.938  13.738 -0.7806  0.3688  0.3131
17093TIP3   OH272693   3.413   0.205  11.280  0.2402  0.5000 -0.0560
17093TIP3    H172694   3.469   0.182  11.355 -0.3372  0.9775  0.5333
17093TIP3    H272695   3.324   0.190  11.311  0.0419 -0.8531 -1.2019
17094TIP3   OH272696   5.754   0.139  15.243  0.1126 -0.3695 -0.3289
17094TIP3    H172697   5.793   0.145  15.155 -0.8964 -0.8323 -0.8210
17094TIP3    H272698   5.670   0.096  15.229 -0.6628  0.7497  0.7007
17095TIP3   OH272699   0.560   3.510   4.931  0.0374 -0.2754 -0.0940
17095TIP3    H172700   0.587   3.419   4.918 -1.0546 -0.3895 -2.0063
17095TIP3    H272701   0.574   3.551   4.846  0.3771  1.3387  0.7050
17096TIP3   OH272702   6.771   3.003  12.898  0.2335 -0.3087  0.5956
17096TIP3    H172703   6.779   2.952  12.817 -1.7218  0.4772 -0.1470
17096TIP3    H272704   6.852   3.054  12.902  1.5368 -2.2593  0.5502
17097TIP3   OH272705   5.248   3.750  11.732 -0.0910 -0.0450  0.0665
17097TIP3    H172706   5.245   3.765  11.826 -0.1916  0.8778 -0.0732
17097TIP3    H272707   5.334   3.712  11.716 -0.3433 -0.8750  0.6140
17098TIP3   OH272708   3.202   3.269   0.085  0.2929 -0.5722 -0.1322
17098TIP3    H172709   3.245   3.259   0.170  1.2515  2.5176 -0.1383
17098TIP3    H272710   3.253   3.214   0.025  0.4337 -1.7080  0.9917
17099TIP3   OH272711   2.417   5.823  16.478 -0.1236 -0.1732 -0.3011
17099TIP3    H172712   2.369   5.749  16.441  0.2403 -1.4746  1.6626
17099TIP3    H272713   2.391   5.824  16.570  0.9693  1.2650  0.0143
17100TIP3   OH272714   2.293   4.754   1.090  0.5619  0.0841 -0.3296
17100TIP3    H172715   2.267   4.662   1.094 -0.5527  0.4086  0.7257
17100TIP3    H272716   2.388   4.753   1.099  0.6327 -0.9904 -1.0171
17101TIP3   OH272717   1.949   3.778   2.109 -0.1989  0.1748  0.5318
17101TIP3    H172718   1.945   3.695   2.063 -1.6659 -0.4481  1.6887
17101TIP3    H272719   1.878   3.830   2.073 -0.2644  0.3370  0.8817
17102TIP3   OH272720   0.856   2.496   5.358  0.0865  0.1409  0.0916
17102TIP3    H172721   0.813   2.579   5.341  0.7697  0.5364  0.2743
17102TIP3    H272722   0.931   2.518   5.413 -0.3745 -0.7360  1.1139
17103TIP3   OH272723   4.522   0.310  14.252  0.1872 -0.4438 -0.2548
17103TIP3    H172724   4.482   0.396  14.261  0.3454 -0.5378  1.9202
17103TIP3    H272725   4.589   0.321  14.185 -1.4888  0.4482 -1.8443
17104TIP3   OH272726   1.741   0.735   2.578  0.2748 -0.1919  0.4397
17104TIP3    H172727   1.784   0.728   2.493 -1.5578 -2.9194 -0.4148
17104TIP3    H272728   1.756   0.825   2.606  1.3354  0.6594 -2.5302
17105TIP3   OH272729   2.961   1.030  15.662 -0.0552 -0.4071 -0.2799
17105TIP3    H172730   2.884   1.083  15.642 -0.6069  0.0645  2.6821
17105TIP3    H272731   3.032   1.093  15.670  0.4668 -0.7335 -1.8994
17106TIP3   OH272732   1.876   4.569  11.973 -0.3948 -0.1539  0.1335
17106TIP3    H172733   1.787   4.548  12.001 -0.2413 -0.4252  0.4155
17106TIP3    H272734   1.898   4.648  12.022 -0.4862 -0.0724  0.0457
17107TIP3   OH272735   3.214   6.315  11.508  0.6094 -0.0314  0.5028
17107TIP3    H172736   3.304   6.284  11.516  0.4607 -0.9484 -1.0896
17107TIP3    H272737   3.163   6.237  11.485 -0.1551  0.9190 -1.2236
17108TIP3   OH272738   2.723   0.732   2.923 -0.3318  0.2054 -0.5315
17108TIP3    H172739   2.728   0.687   2.839  1.3754  0.8977 -0.8546
17108TIP3    H272740   2.736   0.824   2.901 -1.2166  0.5612  0.3731
17109TIP3   OH272741   5.019   1.224  12.869 -0.0149 -0.0231 -0.4507
17109TIP3    H172742   4.932   1.218  12.906  0.1915 -1.4992 -0.1348
17109TIP3    H272743   5.005   1.228  12.774 -0.4767  2.1578 -0.3502
17110TIP3   OH272744   0.354   1.670   4.131  0.2790 -0.3043  0.0611
17110TIP3    H172745   0.332   1.688   4.222 -1.4520  1.4223 -0.6098
17110TIP3    H272746   0.426   1.729   4.111 -1.0680  1.2984 -0.3351
17111TIP3   OH272747   3.046   2.940  12.974  0.1487 -0.0449 -0.4133
17111TIP3    H172748   3.025   2.931  12.881  3.1378  1.4029 -1.3414
17111TIP3    H272749   3.083   2.856  12.999  0.6369  0.0167 -0.9244
17112TIP3   OH272750   6.351   5.727  16.408  0.2094  0.0964 -0.3075
17112TIP3    H172751   6.330   5.814  16.374 -3.3916 -0.1778  0.8007
17112TIP3    H272752   6.411   5.744  16.481 -2.1892  2.0587  1.4301
17113TIP3   OH272753   6.186   1.759   5.154 -0.0403 -0.4634  0.3466
17113TIP3    H172754   6.273   1.769   5.115  0.3284 -1.7345  0.7840
17113TIP3    H272755   6.133   1.826   5.111  1.5368  1.4846  1.3002
17114TIP3   OH272756   3.144   4.509  15.947 -0.1622 -0.2866  0.6663
17114TIP3    H172757   3.059   4.515  15.990 -0.3788 -2.1858  0.5936
17114TIP3    H272758   3.197   4.455  16.005  0.4727 -0.4675 -0.0675
17115TIP3   OH272759   1.375   5.352   5.684 -0.3458  0.4883  0.0229
17115TIP3    H172760   1.464   5.387   5.672  1.0379 -2.3904  0.9912
17115TIP3    H272761   1.364   5.290   5.612 -0.9372 -0.3323  0.8060
17116TIP3   OH272762   2.001   4.937  14.302  0.7329  0.3422  0.2805
17116TIP3    H172763   2.087   4.972  14.278  1.1840 -1.2530 -0.5669
17116TIP3    H272764   1.939   4.991  14.253  1.3186  0.7577 -0.0190
17117TIP3   OH272765   5.588   0.789  15.512 -0.1463 -0.0088  0.1742
17117TIP3    H172766   5.636   0.868  15.533 -0.6423  0.3870 -0.1504
17117TIP3    H272767   5.533   0.773  15.589 -0.5949  0.3875 -0.0616
17118TIP3   OH272768   3.571   1.753  12.573 -0.1094 -0.1285  0.3531
17118TIP3    H172769   3.525   1.808  12.509 -0.2098 -1.2324 -0.5733
17118TIP3    H272770   3.504   1.729  12.637 -0.1017  0.6737  0.6720
17119TIP3   OH272771   4.344   5.793   2.785  0.0917  0.5961  0.3651
17119TIP3    H172772   4.390   5.715   2.814 -0.8108 -0.8196 -1.7716
17119TIP3    H272773   4.282   5.762   2.719 -0.3005  3.1160 -0.5844
17120TIP3   OH272774   3.508   2.388  13.415  0.2130  0.0425 -0.3866
17120TIP3    H172775   3.556   2.470  13.404  0.6813 -0.2967 -0.9132
17120TIP3    H272776   3.564   2.336  13.472  0.3926 -0.2906 -0.8638
17121TIP3   OH272777   4.151   5.907  13.980 -0.1981  0.2406 -0.4187
17121TIP3    H172778   4.146   5.999  14.007  0.8908 -0.3757  2.2112
17121TIP3    H272779   4.235   5.877  14.014 -0.4066 -1.6877 -1.4622
17122TIP3   OH272780   0.526   5.602   0.945  0.1985 -0.2154  0.3602
17122TIP3    H172781   0.447   5.570   0.990  1.0650 -0.5836  1.6735
17122TIP3    H272782   0.584   5.526   0.943 -0.1387 -0.4833 -2.2572
17123TIP3   OH272783   1.566   0.198   0.473  0.6730 -0.3769  0.0148
17123TIP3    H172784   1.533   0.197   0.563  0.7517 -0.9506  0.0407
17123TIP3    H272785   1.657   0.226   0.481 -0.0962  2.4695 -0.1715
17124TIP3   OH272786   4.106   1.397  16.619  0.0057  0.3110 -0.1460
17124TIP3    H172787   4.139   1.370  16.705  2.0807  1.9946 -0.3192
17124TIP3    H272788   4.042   1.466  16.638  1.0286  1.2255  0.0640
17125TIP3   OH272789   2.271   4.972   3.784 -0.6597 -0.2442  0.0003
17125TIP3    H172790   2.278   5.067   3.779 -0.6584 -0.0636  2.3104
17125TIP3    H272791   2.242   4.955   3.874  0.9813 -2.4757  0.1857
17126TIP3   OH272792   1.386   0.030  10.433  0.4045 -0.5305 -0.6756
17126TIP3    H172793   1.438   0.095  10.480  0.3098 -0.4208 -0.7216
17126TIP3    H272794   1.450  -0.015  10.377  0.3365  0.1135 -1.2964
17127TIP3   OH272795   0.060   3.410   3.206  0.2036  0.3452  0.7251
17127TIP3    H172796   0.061   3.441   3.296  1.4487 -0.4453  1.0064
17127TIP3    H272797  -0.008   3.343   3.204 -1.5891  2.0881  0.4280
17128TIP3   OH272798   5.126   2.316   0.453 -0.2976  0.4623 -0.4226
17128TIP3    H172799   5.096   2.406   0.460 -0.5029  0.3373  0.4277
17128TIP3    H272800   5.132   2.286   0.544  0.5518 -0.1210 -0.6648
17129TIP3   OH272801   5.290   2.661  15.714 -0.1912 -0.3755 -0.2202
17129TIP3    H172802   5.350   2.722  15.672 -0.1367 -1.0186 -1.0905
17129TIP3    H272803   5.331   2.575  15.702 -0.0314 -0.5648  1.3903
17130TIP3   OH272804   4.871   5.179   1.094  0.1250 -0.3675 -0.7817
17130TIP3    H172805   4.787   5.195   1.137 -0.0330 -1.7588 -0.5374
17130TIP3    H272806   4.899   5.266   1.064 -1.3253  0.1328 -0.7598
17131TIP3   OH272807   1.872   2.555  12.179 -0.0275 -0.2943 -0.2422
17131TIP3    H172808   1.874   2.634  12.126  0.8130  0.2332  0.5603
17131TIP3    H272809   1.798   2.505  12.144  0.5491 -0.0164 -1.9672
17132TIP3   OH272810   0.908   6.195   6.106  0.1997 -0.6003 -0.4561
17132TIP3    H172811   0.982   6.256   6.099  0.4879 -0.6088  1.7797
17132TIP3    H272812   0.856   6.229   6.179 -0.1571 -2.4738  0.2048
17133TIP3   OH272813   6.208   2.613   0.177  0.0449 -0.9120 -0.1822
17133TIP3    H172814   6.181   2.635   0.088 -0.3239  0.1057  0.1628
17133TIP3    H272815   6.142   2.654   0.233 -0.2192 -2.2787  0.5496
17134TIP3   OH272816   6.168   2.120   5.313  0.8202 -0.1735 -0.3891
17134TIP3    H172817   6.119   2.198   5.341 -1.5742 -2.0115  0.9841
17134TIP3    H272818   6.208   2.146   5.230 -0.8835  2.1556 -0.6041
17135TIP3   OH272819   4.537   4.394   6.043 -0.3709 -0.0985 -0.4382
17135TIP3    H172820   4.548   4.300   6.051  0.1831 -0.4364 -3.6280
17135TIP3    H272821   4.511   4.407   5.952  0.7479  2.9075 -0.4508
17136TIP3   OH272822   6.262   6.498   3.120  0.0150  0.1230 -0.0141
17136TIP3    H172823   6.335   6.491   3.058 -0.3999 -2.1757 -0.3179
17136TIP3    H272824   6.203   6.562   3.080  1.1856  0.9633 -0.4525
17137TIP3   OH272825   4.482   6.439  13.651  0.2268 -0.1299 -0.1818
17137TIP3    H172826   4.399   6.390  13.653  0.1441 -0.0077 -0.6376
17137TIP3    H272827   4.549   6.372  13.635  0.4745 -0.5607  2.1867
17138TIP3   OH272828   5.381   3.626  12.633  0.5060  0.7400 -0.3477
17138TIP3    H172829   5.329   3.635  12.713  1.4722 -0.6991  0.4891
17138TIP3    H272830   5.468   3.600  12.663  0.2788 -2.2625 -1.9102
17139TIP3   OH272831   1.023   6.642  13.199  0.4392  0.2155  0.3616
17139TIP3    H172832   1.031   6.608  13.109 -0.7045 -0.5353  0.5243
17139TIP3    H272833   1.110   6.676  13.219  1.5275 -2.0975 -0.0376
17140TIP3   OH272834   4.099   3.128   6.316 -0.0187  0.1952  0.0377
17140TIP3    H172835   4.154   3.128   6.394 -0.4593  0.2305  0.3527
17140TIP3    H272836   4.160   3.121   6.243  0.3151 -1.6669  0.4504
17141TIP3   OH272837   1.122   2.692   4.383  0.2214  0.0578  0.1645
17141TIP3    H172838   1.056   2.761   4.383 -1.3260 -1.3200 -1.1762
17141TIP3    H272839   1.195   2.729   4.334 -0.0324  1.2000  0.6207
17142TIP3   OH272840   5.912   6.686  12.310  0.2789  0.3737 -0.1388
17142TIP3    H172841   5.957   6.718  12.388 -0.6034  0.7810  0.2113
17142TIP3    H272842   5.845   6.751  12.291 -1.8362 -1.3920  0.8248
17143TIP3   OH272843   5.912   0.445   4.470  0.2449  0.1188 -0.4522
17143TIP3    H172844   5.982   0.486   4.419 -1.5968  2.7652 -1.1117
17143TIP3    H272845   5.943   0.447   4.560  1.3891  0.3898 -0.8331
17144TIP3   OH272846   6.420   5.738  14.731 -0.1840  0.5871 -0.1222
17144TIP3    H172847   6.422   5.684  14.810  0.1042  2.1453  0.9854
17144TIP3    H272848   6.430   5.676  14.659  2.7465 -0.6296  1.1872
17145TIP3   OH272849   2.903   3.469  14.296  0.4860 -0.5620 -0.1419
17145TIP3    H172850   2.892   3.547  14.351 -0.4747  0.2709 -1.4663
17145TIP3    H272851   2.979   3.488  14.241  1.3140 -1.3054  0.7031
17146TIP3   OH272852   3.445   4.566   1.196  0.2395  0.0872 -0.1346
17146TIP3    H172853   3.354   4.570   1.227  1.0356 -1.5238  2.8609
17146TIP3    H272854   3.471   4.657   1.188 -1.3129  0.5804 -0.0137
17147TIP3   OH272855   0.973   0.601  14.633  0.2026  0.1477  0.2385
17147TIP3    H172856   1.026   0.586  14.554 -4.1377 -1.7575 -2.7273
17147TIP3    H272857   0.962   0.514  14.671 -1.0171  0.4227  0.5413
17148TIP3   OH272858   3.739   2.973   0.777  0.0866 -0.5377  0.9461
17148TIP3    H172859   3.820   2.948   0.734  0.2502 -0.5319  1.2488
17148TIP3    H272860   3.734   3.068   0.766 -1.1468 -0.8145 -1.2704
17149TIP3   OH272861   5.338   6.347   3.713  0.1337 -0.0844  0.0290
17149TIP3    H172862   5.360   6.436   3.742 -0.8230 -0.3635  1.7426
17149TIP3    H272863   5.262   6.323   3.766 -0.7608 -1.2601 -1.6983
17150TIP3   OH272864   4.561   2.932   2.704  0.0042 -0.4281  0.3179
17150TIP3    H172865   4.565   2.916   2.798 -0.6671  0.1534  0.4565
17150TIP3    H272866   4.498   2.868   2.672 -0.0540 -0.3751  0.3262
17151TIP3   OH272867   5.729   6.499   0.410 -0.4667 -0.0231  0.2764
17151TIP3    H172868   5.749   6.406   0.415  1.1808  0.3368  0.8054
17151TIP3    H272869   5.683   6.509   0.327 -0.4951 -1.2622  0.1255
17152TIP3   OH272870   5.197   2.859   5.414 -0.0824 -0.7469  0.1777
17152TIP3    H172871   5.153   2.775   5.403  0.5055 -1.2633  1.5445
17152TIP3    H272872   5.194   2.900   5.327  0.2591 -2.4776 -0.6830
17153TIP3   OH272873   6.105   1.920   0.333  0.1533 -0.9361  0.5535
17153TIP3    H172874   6.019   1.954   0.310  0.2110 -0.5040  0.9685
17153TIP3    H272875   6.102   1.828   0.306  0.5140 -0.2707 -1.9983
17154TIP3   OH272876   5.356   4.882   0.121 -0.1325 -0.2100 -0.0721
17154TIP3    H172877   5.306   4.817   0.170  1.5384 -1.4819  0.0516
17154TIP3    H272878   5.401   4.832   0.053  0.6116  0.9329 -0.4546
17155TIP3   OH272879   5.664   2.593  12.218  0.8337  0.3850  0.6060
17155TIP3    H172880   5.594   2.596  12.153  0.8996  1.1958  0.5630
17155TIP3    H272881   5.661   2.504  12.253  0.9673 -0.1654 -0.7001
17156TIP3   OH272882   5.860   5.569  16.371  0.5236  0.1406 -0.3553
17156TIP3    H172883   5.844   5.597  16.461  1.7151  1.9771 -0.6548
17156TIP3    H272884   5.773   5.548  16.337  0.0449 -0.5533  1.1860
17157TIP3   OH272885   3.434   6.131  16.532 -0.4477 -0.6141  0.0310
17157TIP3    H172886   3.463   6.089  16.613 -0.5565  2.0077  1.5615
17157TIP3    H272887   3.496   6.202  16.518  0.1335 -1.5295 -2.7994
17158TIP3   OH272888   4.586   4.801   1.091 -0.0015 -0.2057  0.0318
17158TIP3    H172889   4.654   4.739   1.065  0.3269 -0.3044  1.0807
17158TIP3    H272890   4.616   4.886   1.057  0.2848 -0.3729 -0.1329
17159TIP3   OH272891   0.940   2.912   4.419  0.0037  0.2188  0.1150
17159TIP3    H172892   0.912   3.004   4.416  1.0235  0.5121 -0.8411
17159TIP3    H272893   0.869   2.867   4.465 -1.0811  1.2880 -0.4640
17160TIP3   OH272894   0.355   6.199  12.880  0.0295  0.1241  0.2173
17160TIP3    H172895   0.320   6.197  12.791 -1.3451 -0.3570  0.7523
17160TIP3    H272896   0.360   6.292  12.901 -1.5037  0.1920  0.3400
17161TIP3   OH272897   2.360   3.575   2.948  0.0842  0.3790 -0.2129
17161TIP3    H172898   2.301   3.620   2.886 -1.7805 -0.3267  0.9731
17161TIP3    H272899   2.393   3.645   3.004 -0.4784  0.6426 -0.2068
17162TIP3   OH272900   0.159   6.609  13.389  0.2530 -0.3701 -0.0396
17162TIP3    H172901   0.125   6.547  13.453 -0.5661 -1.4784 -1.4830
17162TIP3    H272902   0.159   6.560  13.306  2.2998  0.6508 -0.7128
17163TIP3   OH272903   6.746   2.328  15.880 -0.1463  0.1124 -0.5085
17163TIP3    H172904   6.714   2.403  15.829 -0.4805 -0.6741 -1.4930
17163TIP3    H272905   6.671   2.268  15.883 -0.2571  0.2728  1.2391
17164TIP3   OH272906   6.602   1.997   5.285  0.0197 -0.0410  0.2545
17164TIP3    H172907   6.568   1.907   5.283 -1.8624  0.6348 -0.0001
17164TIP3    H272908   6.545   2.042   5.347  1.4437  0.8105  0.9876
17165TIP3   OH272909   4.813   1.799   2.854  0.2909 -0.0624 -0.8869
17165TIP3    H172910   4.720   1.811   2.870  0.2691  1.2507 -1.8471
17165TIP3    H272911   4.818   1.729   2.789 -0.0299  0.0572 -1.0409
17166TIP3   OH272912   5.187   5.101  15.320 -0.5463  0.1252 -0.2361
17166TIP3    H172913   5.202   5.112  15.414  0.7319  1.4034 -0.5433
17166TIP3    H272914   5.182   5.190  15.286 -0.7993 -0.3198 -1.4050
17167TIP3   OH272915   2.734   5.746   4.286 -0.5272  0.1116 -0.3928
17167TIP3    H172916   2.680   5.711   4.215  1.9143 -2.2475 -1.2367
17167TIP3    H272917   2.824   5.736   4.256  0.5335  1.5931  1.9557
17168TIP3   OH272918   1.542   3.097  11.203 -0.2974 -0.3372  0.8523
17168TIP3    H172919   1.480   3.169  11.190  1.1525  0.9980  1.0326
17168TIP3    H272920   1.523   3.037  11.131 -1.5898  0.1797  0.7239
17169TIP3   OH272921   0.491   2.066  13.959  0.3991 -0.0310 -0.1012
17169TIP3    H172922   0.567   2.019  13.923  1.9197  1.9423  0.3777
17169TIP3    H272923   0.467   2.129  13.892  1.6447  1.9303  1.1932
17170TIP3   OH272924   1.409   1.252  11.909 -0.0370  0.1076  0.2947
17170TIP3    H172925   1.406   1.302  11.828 -0.3902 -0.6545 -0.1768
17170TIP3    H272926   1.320   1.254  11.942 -0.4071 -1.3625 -0.4786
17171TIP3   OH272927   4.371   5.161  12.492  0.5730 -0.3845  0.2532
17171TIP3    H172928   4.337   5.135  12.407  1.3280  1.6429 -0.7337
17171TIP3    H272929   4.464   5.178  12.478  0.5477  0.7690  1.2641
17172TIP3   OH272930   5.076   2.907  13.805 -0.3658 -0.1349 -0.3423
17172TIP3    H172931   5.001   2.866  13.849 -0.3772  0.7119  0.4623
17172TIP3    H272932   5.070   3.000  13.828 -0.8307  0.5164 -2.8300
17173TIP3   OH272933   2.242   6.150  14.192 -0.0290 -0.1835 -0.4060
17173TIP3    H172934   2.240   6.180  14.284 -0.4651 -2.3635  0.3446
17173TIP3    H272935   2.334   6.129  14.176  0.1371  0.6929 -0.6661
17174TIP3   OH272936   0.162   2.397  16.333  0.5706  0.7371  0.6441
17174TIP3    H172937   0.165   2.492  16.321 -0.3526  0.9000  1.5650
17174TIP3    H272938   0.237   2.378  16.390  0.2569  1.0406  1.1667
17175TIP3   OH272939   5.225   2.006   4.029 -0.6179  0.0840 -0.3185
17175TIP3    H172940   5.206   1.997   3.935  0.7845  0.3333 -0.6576
17175TIP3    H272941   5.266   1.923   4.053  0.4292  0.5786 -0.3226
17176TIP3   OH272942   5.759   2.168   5.572  0.5508 -0.0545  0.1345
17176TIP3    H172943   5.838   2.188   5.621  0.3510 -1.4868  1.0867
17176TIP3    H272944   5.688   2.209   5.621  0.5906  0.4410 -0.2139
17177TIP3   OH272945   6.650   5.227   5.827  0.4324  0.1794  0.5712
17177TIP3    H172946   6.606   5.278   5.895  1.0713 -0.9138  1.8541
17177TIP3    H272947   6.730   5.276   5.808 -0.3561  1.1516 -0.3514
17178TIP3   OH272948   3.400   4.446  12.544  0.0141  0.2479 -0.0975
17178TIP3    H172949   3.473   4.454  12.482  2.3263  1.6926  2.5835
17178TIP3    H272950   3.354   4.529  12.538 -1.3328 -0.5653 -1.6003
17179TIP3   OH272951   0.642   6.075   5.481 -0.4296  0.8005  0.1751
17179TIP3    H172952   0.705   6.142   5.507  1.5303 -1.2645  1.1612
17179TIP3    H272953   0.599   6.049   5.563  0.7789 -0.9322  0.3196
17180TIP3   OH272954   2.045   5.023  16.018 -0.0740 -0.7704 -0.4803
17180TIP3    H172955   2.112   5.091  16.026 -0.1857 -0.8027  1.0889
17180TIP3    H272956   2.000   5.024  16.102 -0.5059 -2.3418 -0.6598
17181TIP3   OH272957   6.758   3.178  14.738 -0.3894 -0.1710 -0.1565
17181TIP3    H172958   6.758   3.090  14.702  0.3863 -0.6127  0.8666
17181TIP3    H272959   6.668   3.209  14.726 -0.2226 -0.3704 -2.2009
17182TIP3   OH272960   0.556   2.016   1.835  0.5626 -0.2204  0.3199
17182TIP3    H172961   0.612   2.056   1.768 -1.1503  1.1200 -0.3965
17182TIP3    H272962   0.566   1.922   1.822  2.8571 -0.0480  0.4482
17183TIP3   OH272963   5.421   0.030  12.522  0.7894 -0.1599 -0.3911
17183TIP3    H172964   5.419  -0.005  12.433  1.4811 -0.5521 -0.2665
17183TIP3    H272965   5.501  -0.008  12.560 -0.1318 -0.9975  0.8049
17184TIP3   OH272966   4.758   4.183   2.379 -0.3380  0.3249  0.2418
17184TIP3    H172967   4.705   4.245   2.429 -0.2829  1.3413 -0.8946
17184TIP3    H272968   4.748   4.100   2.425  0.0966  1.2919  2.1846
17185TIP3   OH272969   1.561   6.492   1.607 -0.4789  0.0390  0.9674
17185TIP3    H172970   1.571   6.574   1.656 -1.6867  0.0750  1.1967
17185TIP3    H272971   1.487   6.509   1.548  0.0245 -0.5003  0.1697
17186TIP3   OH272972   1.482   5.887  10.932  0.3333 -0.4391 -0.5951
17186TIP3    H172973   1.449   5.965  10.886 -0.8440 -1.3861 -1.4048
17186TIP3    H272974   1.405   5.830  10.940  0.6673 -0.6296  1.9185
17187TIP3   OH272975   3.012   1.724   0.287 -0.1593  0.8737  0.2155
17187TIP3    H172976   2.922   1.734   0.317 -0.3825 -2.3512  0.9879
17187TIP3    H272977   3.065   1.742   0.364 -0.4031 -1.0769  0.8829
17188TIP3   OH272978   4.637   5.573   4.113 -0.1346 -0.1397 -0.1145
17188TIP3    H172979   4.605   5.504   4.172 -0.4235  1.6016  1.9131
17188TIP3    H272980   4.562   5.593   4.056 -0.3384 -0.8668 -0.1129
17189TIP3   OH272981   5.348   0.096   3.826  0.1464  0.0046  0.0066
17189TIP3    H172982   5.421   0.061   3.877  0.3117  0.1512 -0.1292
17189TIP3    H272983   5.341   0.037   3.751  1.4015  1.0999 -1.0326
17190TIP3   OH272984   4.009   0.841   2.054 -0.6790  0.6174  0.1167
17190TIP3    H172985   4.023   0.828   1.960  0.8038 -0.8247  0.4945
17190TIP3    H272986   3.923   0.801   2.071 -0.2190 -0.6135 -0.3531
17191TIP3   OH272987   0.226   3.469  12.528 -0.3776 -0.6291  0.5261
17191TIP3    H172988   0.230   3.388  12.579 -1.5171 -0.6484  0.6164
17191TIP3    H272989   0.160   3.522  12.572 -2.4309 -1.1962 -1.6379
17192TIP3   OH272990   0.849   0.411  11.652  0.3435 -0.4418  0.8339
17192TIP3    H172991   0.757   0.426  11.673  0.8533 -0.3302  3.2386
17192TIP3    H272992   0.861   0.317  11.662  0.7069 -0.3248  1.5571
17193TIP3   OH272993   3.428   5.002   6.226  0.1300  0.2399 -0.3337
17193TIP3    H172994   3.426   5.061   6.150 -0.6924  0.5627 -0.0806
17193TIP3    H272995   3.347   4.951   6.218  0.3970 -0.2317 -0.0657
17194TIP3   OH272996   5.111   4.986  14.771 -0.3898  0.1279  0.0074
17194TIP3    H172997   5.052   4.924  14.814 -1.6901  1.4299  0.1612
17194TIP3    H272998   5.057   5.027  14.703 -0.1733  2.4976  1.1830
17195TIP3   OH272999   3.182   5.368   2.861 -0.3048 -0.0814  0.4178
17195TIP3    H173000   3.266   5.321   2.862 -0.5230 -0.4860  1.9403
17195TIP3    H273001   3.154   5.368   2.952 -0.8893  1.9949  0.2861
17196TIP3   OH273002   1.261   3.067  14.540  0.5724  0.1813  0.1957
17196TIP3    H173003   1.210   3.125  14.597  0.4816  0.1895  0.1052
17196TIP3    H273004   1.318   3.126  14.491 -0.4181  0.3095 -0.8230
17197TIP3   OH273005   5.952   2.303   3.729 -0.3837  0.2214 -0.0124
17197TIP3    H173006   6.022   2.241   3.710 -1.0985 -0.6227  0.0050
17197TIP3    H273007   5.985   2.357   3.800  0.6048  0.4750 -0.6482
17198TIP3   OH273008   3.611   3.882  15.957 -0.0345 -0.0732  0.1945
17198TIP3    H173009   3.577   3.862  15.870 -0.3849 -0.3555  0.3969
17198TIP3    H273010   3.620   3.978  15.958 -0.3378 -0.0432 -0.0329
17199TIP3   OH273011   2.619   6.527   1.239  0.3040 -0.0572 -0.2401
17199TIP3    H173012   2.710   6.554   1.246  0.0974  1.5677 -2.3787
17199TIP3    H273013   2.606   6.510   1.145 -1.1977 -1.8552  0.2285
17200TIP3   OH273014   6.321   2.636   3.010 -0.3133 -0.2579  0.3895
17200TIP3    H173015   6.346   2.544   3.013  1.3256  0.0721 -1.2475
17200TIP3    H273016   6.341   2.669   3.098 -0.3909 -1.3235  0.8241
17201TIP3   OH273017   3.879   1.269  16.551 -0.4458  0.1179  0.0099
17201TIP3    H173018   3.895   1.175  16.547 -1.6544 -0.1666  1.1492
17201TIP3    H273019   3.966   1.308  16.556  0.0580 -0.9526 -0.1145
17202TIP3   OH273020   2.895   0.916   1.175  0.0881 -0.5741 -0.1432
17202TIP3    H173021   2.924   0.995   1.130 -1.5555 -0.8854 -1.8453
17202TIP3    H273022   2.942   0.845   1.131 -0.7756 -0.7921 -0.7384
17203TIP3   OH273023   2.240   4.258  13.289 -0.1993  0.5066 -0.0698
17203TIP3    H173024   2.149   4.236  13.268  0.2628 -0.7832 -0.8144
17203TIP3    H273025   2.277   4.177  13.323  1.2011  0.4754 -1.6009
17204TIP3   OH273026   1.287   3.906   1.064 -0.1588  0.4900 -0.4169
17204TIP3    H173027   1.259   3.930   0.976 -0.9013 -0.1628 -0.3688
17204TIP3    H273028   1.261   3.814   1.073  1.6237 -0.0366 -0.2154
17205TIP3   OH273029   6.220   5.242  16.751 -0.2455 -0.8415  0.1883
17205TIP3    H173030   6.286   5.287  16.698 -1.9012  0.8355 -0.5837
17205TIP3    H273031   6.240   5.267  16.841 -0.2369  0.2443 -0.0995
17206TIP3   OH273032   6.772   0.089   0.524  0.4965  0.3806 -0.2668
17206TIP3    H173033   6.728   0.145   0.460  0.6815 -1.2211 -1.8550
17206TIP3    H273034   6.704   0.068   0.588 -0.2193  0.4700 -0.9804
17207TIP3   OH273035   1.022   3.575  13.984  0.6301  0.0309  0.0254
17207TIP3    H173036   0.992   3.616  14.066 -0.0867 -0.2558 -0.0831
17207TIP3    H273037   1.005   3.642  13.917  0.1007 -0.1814 -0.0552
17208TIP3   OH273038   4.282   1.947   4.446  0.0103 -0.1967 -0.3382
17208TIP3    H173039   4.240   1.906   4.371 -1.9855  0.8394  0.1401
17208TIP3    H273040   4.363   1.986   4.411  0.8061 -2.5084 -1.2282
17209TIP3   OH273041   2.696   6.206  15.580  0.0283  0.6243 -0.0958
17209TIP3    H173042   2.609   6.233  15.551 -0.4591 -1.9152 -1.3052
17209TIP3    H273043   2.749   6.205  15.501  0.1239 -1.2835 -0.0714
17210TIP3   OH273044   0.278   5.634   1.279 -0.0913  0.3816  0.2051
17210TIP3    H173045   0.328   5.712   1.253  0.5547  0.3203  1.1919
17210TIP3    H273046   0.339   5.586   1.336  0.0028 -1.5152 -1.4337
17211TIP3   OH273047   3.719   2.284   6.131  0.1326  0.0451 -0.2346
17211TIP3    H173048   3.737   2.251   6.219 -0.0693  1.4585  0.3612
17211TIP3    H273049   3.628   2.314   6.134  0.3856  0.9021 -0.6451
17212TIP3   OH273050   1.253   4.290   3.433  0.0492  0.5857  0.4508
17212TIP3    H173051   1.157   4.279   3.436  0.0193  0.9325  1.0772
17212TIP3    H273052   1.274   4.333   3.516  0.3046  4.0437 -1.2113
17213TIP3   OH273053   1.596   1.432   3.220 -0.1522  0.5665  0.0680
17213TIP3    H173054   1.685   1.459   3.242  0.0041 -0.2624  0.4851
17213TIP3    H273055   1.602   1.402   3.129  0.1660 -0.2040  0.3361
17214TIP3   OH273056   3.121   0.051   4.829 -0.0256  0.6148  0.0069
17214TIP3    H173057   3.200   0.042   4.883 -1.0745  0.8752  1.6670
17214TIP3    H273058   3.063   0.107   4.881 -1.3274  0.3847 -1.1452
17215TIP3   OH273059   6.603   1.460  15.325 -0.0346  0.2217  0.5477
17215TIP3    H173060   6.597   1.467  15.420 -1.4342  1.9770  0.3641
17215TIP3    H273061   6.538   1.521  15.292 -0.7056 -1.5177 -1.5574
17216TIP3   OH273062   3.389   1.044  14.261 -0.1460 -1.3451  0.1230
17216TIP3    H173063   3.333   1.111  14.300 -1.0095 -0.4346 -2.5032
17216TIP3    H273064   3.348   0.961  14.285 -0.6444 -0.8346  1.0930
17217TIP3   OH273065   5.982   6.449   1.008 -0.7700 -0.4107 -0.2021
17217TIP3    H173066   5.949   6.361   1.025  0.1402 -0.7209  0.0267
17217TIP3    H273067   5.906   6.498   0.979 -1.4875 -1.0261  0.5897
17218TIP3   OH273068   2.480   5.067   1.621  0.0544 -0.3334 -0.0995
17218TIP3    H173069   2.421   5.101   1.554  0.2444 -1.6008 -0.9436
17218TIP3    H273070   2.468   5.126   1.695 -0.9654  0.4655 -0.8631
17219TIP3   OH273071   4.018   1.118   0.760 -0.2120 -0.2605  0.3369
17219TIP3    H173072   3.993   1.105   0.852 -2.3463  0.3285 -0.1188
17219TIP3    H273073   4.100   1.168   0.765  1.3991 -2.7967  1.9008
17220TIP3   OH273074   5.311   3.739  13.016 -0.5805 -0.6942  0.1114
17220TIP3    H173075   5.351   3.716  13.099 -2.2886  0.8549  1.4503
17220TIP3    H273076   5.376   3.795  12.973  0.0802 -1.0095  0.6813
17221TIP3   OH273077   3.581   5.418  16.505  0.1591 -0.1810 -0.2937
17221TIP3    H173078   3.543   5.330  16.505  0.9360 -0.5347  0.0372
17221TIP3    H273079   3.618   5.429  16.418  1.0458 -0.6455  0.0068
17222TIP3   OH273080   6.490   5.993  15.986  0.1357  1.4400 -0.2606
17222TIP3    H173081   6.525   6.081  15.973 -2.2325  2.2882 -1.3460
17222TIP3    H273082   6.548   5.936  15.934  0.3492  2.6908 -1.4506
17223TIP3   OH273083   6.541   5.648  16.917  0.3301 -0.1805  0.0539
17223TIP3    H173084   6.616   5.626  16.972 -0.6315 -0.1314  1.4425
17223TIP3    H273085   6.483   5.572  16.925 -1.4286  1.2710  2.0332
17224TIP3   OH273086   4.676   5.590  13.226  0.3872 -0.2878 -0.2592
17224TIP3    H173087   4.658   5.579  13.319 -0.6036  1.8768 -0.1342
17224TIP3    H273088   4.639   5.512  13.184 -1.1214 -0.2457  0.9530
17225TIP3   OH273089   3.338   6.469  14.328 -0.6490 -0.3863 -0.1658
17225TIP3    H173090   3.260   6.520  14.308 -0.2360  0.3024 -0.0259
17225TIP3    H273091   3.382   6.458  14.243 -0.1291  0.5069 -0.0230
17226TIP3   OH273092   5.752   6.556   0.906  0.3360  0.0439  0.2619
17226TIP3    H173093   5.717   6.571   0.993  1.6485  0.2384  0.7708
17226TIP3    H273094   5.674   6.546   0.850 -0.6257  3.3196  0.8128
17227TIP3   OH273095   3.214   3.235   5.376  0.4216  0.0919  0.1747
17227TIP3    H173096   3.240   3.324   5.352  1.5372 -0.0210  0.9055
17227TIP3    H273097   3.141   3.247   5.437 -1.3218  0.4121 -1.8883
17228TIP3   OH273098   2.794   5.819  12.917 -0.5253  0.2191 -0.5175
17228TIP3    H173099   2.800   5.774  12.832 -1.6842 -0.8814 -0.0518
17228TIP3    H273100   2.885   5.826  12.947 -0.3264 -3.0483 -0.0310
17229TIP3   OH273101   4.742   2.581   0.019 -0.1677 -0.4662 -0.8170
17229TIP3    H173102   4.750   2.500   0.069 -0.5743 -0.5371 -0.8606
17229TIP3    H273103   4.686   2.558  -0.056 -0.0070 -0.2294 -1.0119
17230TIP3   OH273104   0.259   6.270  15.220  0.4073 -0.3573  0.0023
17230TIP3    H173105   0.332   6.305  15.169  1.4262 -0.7552  1.1174
17230TIP3    H273106   0.235   6.189  15.176 -0.3045  0.4458 -1.1560
17231TIP3   OH273107   1.414   1.944   5.274  0.5520 -0.2794 -0.1175
17231TIP3    H173108   1.443   1.860   5.240  1.2866  0.0383 -0.3145
17231TIP3    H273109   1.382   1.925   5.362  0.4931 -0.7966 -0.2494
17232TIP3   OH273110   3.036   0.356   5.045  0.3384  0.4460  0.3874
17232TIP3    H173111   3.034   0.438   5.094  1.9449 -0.0156  1.2971
17232TIP3    H273112   3.079   0.294   5.104 -0.0147 -0.8058 -0.6340
17233TIP3   OH273113   0.335   1.697  14.428 -0.5481 -0.6128  0.2345
17233TIP3    H173114   0.387   1.720  14.351 -0.4087  1.3367  0.8719
17233TIP3    H273115   0.372   1.614  14.458  2.0209  0.5210  0.4450
17234TIP3   OH273116   3.390   1.646  16.812 -0.0967 -0.7671  0.2611
17234TIP3    H173117   3.436   1.695  16.879  0.6374  0.1469 -0.8604
17234TIP3    H273118   3.298   1.653  16.836  0.1410 -0.3376  1.0787
17235TIP3   OH273119   6.566   5.136   0.555  0.1901 -0.4438  0.0787
17235TIP3    H173120   6.591   5.044   0.543 -1.5657 -0.9019 -0.4461
17235TIP3    H273121   6.565   5.148   0.650 -0.5638 -1.2877  0.1928
17236TIP3   OH273122   2.413   1.342   0.687 -0.1373  0.0117 -0.1261
17236TIP3    H173123   2.331   1.383   0.662  0.3354  0.1355 -1.5813
17236TIP3    H273124   2.388   1.270   0.745 -1.1183  1.0878  0.8489
17237TIP3   OH273125   0.139   4.220  13.498 -0.0872 -0.1110  0.2109
17237TIP3    H173126   0.176   4.306  13.478  0.0136 -0.2571 -0.2499
17237TIP3    H273127   0.047   4.227  13.471 -0.1464 -0.0592  0.4293
17238TIP3   OH273128   3.980   5.660  11.373  0.3066  0.2411  0.5659
17238TIP3    H173129   3.932   5.617  11.303  0.2392 -4.0810  2.9145
17238TIP3    H273130   4.072   5.646  11.351  0.2865 -1.5763  1.4220
17239TIP3   OH273131   1.622   0.340  15.504 -0.0362 -0.1100  0.3231
17239TIP3    H173132   1.565   0.413  15.527  2.0556  2.3536 -1.7038
17239TIP3    H273133   1.577   0.295  15.433 -0.9340 -0.2634  0.9752
17240TIP3   OH273134   2.345   3.638  16.936 -0.2558 -0.3325 -0.5313
17240TIP3    H173135   2.430   3.676  16.913  0.3197 -2.0715 -1.4628
17240TIP3    H273136   2.352   3.618  17.029  0.5028 -0.7713 -0.6733
17241TIP3   OH273137   5.713   1.027  15.534 -0.0545 -0.3550 -0.3665
17241TIP3    H173138   5.700   1.045  15.627 -3.6355  1.2249 -0.9854
17241TIP3    H273139   5.745   1.110  15.498 -2.3825  0.3688 -0.9943
17242TIP3   OH273140   0.256   4.234   1.423  0.4165  0.3412 -0.2423
17242TIP3    H173141   0.268   4.295   1.495  1.0237  1.4784 -1.2804
17242TIP3    H273142   0.172   4.191   1.443 -0.2034  1.7488  0.3443
17243TIP3   OH273143   2.556   0.755   3.937 -0.3006  0.5657 -0.5226
17243TIP3    H173144   2.462   0.748   3.956 -0.1971  1.1444  0.2527
17243TIP3    H273145   2.561   0.762   3.842 -0.9189 -1.4251 -0.7624
17244TIP3   OH273146   5.439   1.616  14.259  0.0928  0.0551 -0.8665
17244TIP3    H173147   5.429   1.558  14.333 -2.3554 -0.5816 -1.5990
17244TIP3    H273148   5.420   1.703  14.294  0.1598 -0.0776 -0.4988
17245TIP3   OH273149   5.837   1.435   1.402  0.3619  0.7171  0.1583
17245TIP3    H173150   5.913   1.425   1.345 -0.4759  0.0976 -0.8835
17245TIP3    H273151   5.834   1.353   1.451  0.6578  0.9552  0.5842
17246TIP3   OH273152   3.519   3.879  11.627  0.6648  0.6935 -0.5045
17246TIP3    H173153   3.497   3.849  11.539  0.1626 -2.9691  0.7090
17246TIP3    H273154   3.435   3.894  11.670  0.9042  2.3035 -0.5205
17247TIP3   OH273155   5.808   0.131   2.058  0.6024  0.1838 -0.3863
17247TIP3    H173156   5.851   0.204   2.103 -0.8749  0.5357  0.5646
17247TIP3    H273157   5.726   0.119   2.107 -0.0499 -0.8823 -1.6829
17248TIP3   OH273158   2.021   3.203   1.270 -0.3738 -0.0308 -0.7604
17248TIP3    H173159   1.943   3.220   1.324  0.2332 -1.1896  0.5618
17248TIP3    H273160   1.987   3.194   1.181 -2.0670 -2.3125  0.0118
17249TIP3   OH273161   3.333   0.625  12.569  0.2820  0.0371 -0.3461
17249TIP3    H173162   3.407   0.620  12.509 -0.6609 -1.0231 -1.4667
17249TIP3    H273163   3.282   0.700  12.538  0.4665  0.2789 -0.0677
17250TIP3   OH273164   5.252   0.052   0.411  0.0173  0.2848 -0.3587
17250TIP3    H173165   5.183   0.114   0.388  0.2323  0.0474 -1.7316
17250TIP3    H273166   5.240   0.037   0.505 -3.3670 -1.5531 -0.8955
17251TIP3   OH273167   2.433   5.856  11.720 -0.2400 -0.9385 -0.3856
17251TIP3    H173168   2.432   5.818  11.632  0.8718 -1.3602 -0.2420
17251TIP3    H273169   2.467   5.944  11.707 -0.9297 -0.6840 -0.4819
17252TIP3   OH273170   2.826   4.547  14.071  0.2131  0.0102 -0.2369
17252TIP3    H173171   2.827   4.553  14.167 -0.6785  0.4687 -0.2478
17252TIP3    H273172   2.857   4.633  14.042  2.7704 -0.8796 -0.3821
17253TIP3   OH273173   4.961   2.875  16.750  0.1160  0.2942  0.5714
17253TIP3    H173174   4.955   2.963  16.787  1.1525 -0.1374  1.8145
17253TIP3    H273175   4.893   2.826  16.794  0.2772  0.1944  0.7106
17254TIP3   OH273176   1.512   4.395   4.231 -0.9002  0.1090  0.2718
17254TIP3    H173177   1.600   4.395   4.192 -1.8159 -0.3923 -1.9935
17254TIP3    H273178   1.455   4.422   4.159 -2.6088  0.4686  1.7044
17255TIP3   OH273179   5.720   5.850   2.065 -0.5634  0.6793 -0.2744
17255TIP3    H173180   5.721   5.863   2.160  0.1010 -1.5779  0.0750
17255TIP3    H273181   5.812   5.850   2.039 -0.4433 -2.6648 -0.2336
17256TIP3   OH273182   6.105   5.372   1.649 -0.0181  0.2072 -0.3472
17256TIP3    H173183   6.084   5.446   1.593  0.5215 -0.7087 -1.8081
17256TIP3    H273184   6.124   5.300   1.589 -2.6886 -1.8055  0.9819
17257TIP3   OH273185   1.745   3.006  13.565 -0.4179  0.0517 -0.7223
17257TIP3    H173186   1.777   3.028  13.652 -2.6810  1.7440 -0.2274
17257TIP3    H273187   1.768   2.914  13.554  2.1714  0.4698  0.5720
17258TIP3   OH273188   1.673   4.862  14.971  0.2724 -0.5888  0.0224
17258TIP3    H173189   1.745   4.903  14.923 -0.0391 -0.3591 -0.2451
17258TIP3    H273190   1.597   4.868  14.913  0.0741 -0.9922  0.2299
17259TIP3   OH273191   0.548   3.143   2.887  0.0521  0.3518 -0.5549
17259TIP3    H173192   0.479   3.198   2.924  0.8948  1.5822 -0.7384
17259TIP3    H273193   0.511   3.055   2.886 -2.1294  1.2186 -2.1692
17260TIP3   OH273194   2.359   0.102   4.534 -0.2394 -0.2250 -0.0582
17260TIP3    H173195   2.449   0.130   4.516 -0.0188 -0.4936  0.6015
17260TIP3    H273196   2.362   0.070   4.624 -0.6333 -1.8042 -0.5850
17261TIP3   OH273197   6.395   0.881   4.540  0.3987 -0.1444 -0.4630
17261TIP3    H173198   6.307   0.901   4.572 -0.6589 -0.4463 -2.9526
17261TIP3    H273199   6.452   0.894   4.616 -1.6070  1.3627  0.8812
17262TIP3   OH273200   2.455   5.181   0.259  0.2422  0.0835  0.0087
17262TIP3    H173201   2.429   5.133   0.180  0.7400  0.8110 -0.6164
17262TIP3    H273202   2.426   5.126   0.331  0.0807 -0.7663 -0.6852
17263TIP3   OH273203   6.050   0.103  11.825 -0.2347 -0.0353 -0.1561
17263TIP3    H173204   6.143   0.095  11.846 -0.2900  1.2358  0.7395
17263TIP3    H273205   6.018   0.167  11.888 -0.9712  2.1693 -2.5914
17264TIP3   OH273206   3.123   0.293  13.995  0.5346 -0.2672  0.0092
17264TIP3    H173207   3.090   0.351  14.064 -0.8053 -0.1295 -0.7263
17264TIP3    H273208   3.047   0.242  13.968  1.2435 -0.9319 -0.7824
17265TIP3   OH273209   6.195   3.411   2.828  0.2419 -0.4494 -0.1997
17265TIP3    H173210   6.194   3.414   2.732 -0.5100 -0.8212 -0.2144
17265TIP3    H273211   6.286   3.428   2.852  0.4215 -0.2628 -0.9761
17266TIP3   OH273212   0.704   1.877   1.262 -0.4356  0.0719  0.3819
17266TIP3    H173213   0.736   1.830   1.185 -0.3874 -1.0438  1.0534
17266TIP3    H273214   0.772   1.863   1.328 -0.3211  1.2891  0.5276
17267TIP3   OH273215   3.446   2.506   2.480  0.7792  0.3603  0.4559
17267TIP3    H173216   3.502   2.569   2.524  1.3418 -1.6107  2.7911
17267TIP3    H273217   3.505   2.435   2.454 -0.3655 -1.2930  2.0488
17268TIP3   OH273218   0.453   3.845   1.888  0.0992 -0.2462 -0.0887
17268TIP3    H173219   0.544   3.853   1.917  0.1892 -1.5935  0.0696
17268TIP3    H273220   0.453   3.768   1.832 -1.0197 -0.4914  0.2291
17269TIP3   OH273221   6.660   4.482  16.818 -0.3356 -0.4688  0.4413
17269TIP3    H173222   6.746   4.444  16.799  0.3784  0.5835  1.4120
17269TIP3    H273223   6.649   4.470  16.912 -0.7510  0.3984  0.5088
17270TIP3   OH273224   5.924   0.974   2.920 -0.5907  0.0051 -0.2679
17270TIP3    H173225   6.001   1.010   2.877 -1.1539  0.3057 -1.0479
17270TIP3    H273226   5.853   1.034   2.897 -1.1072 -0.4079  0.2219
17271TIP3   OH273227   3.658   6.148   5.303  0.2057  0.1338 -0.7554
17271TIP3    H173228   3.569   6.114   5.309 -0.2134  1.2985 -0.0699
17271TIP3    H273229   3.652   6.237   5.337  2.0267 -0.4375  1.2501
17272TIP3   OH273230   4.979   5.267   3.948  0.0027 -0.5177 -0.0591
17272TIP3    H173231   4.977   5.182   3.903 -0.4148  0.5378 -2.1747
17272TIP3    H273232   4.963   5.331   3.879  0.6593  1.3372  1.4115
17273TIP3   OH273233   1.761   1.440   3.588  0.0226 -0.0754  0.6026
17273TIP3    H173234   1.784   1.508   3.525 -0.1456  1.2212  1.8948
17273TIP3    H273235   1.669   1.421   3.571  0.1410 -0.1735  0.0622
17274TIP3   OH273236   6.276   0.143  15.717  0.4882 -0.4142  0.2766
17274TIP3    H173237   6.251   0.198  15.643  2.1048  0.9016  0.6511
17274TIP3    H273238   6.312   0.064  15.677 -1.7633 -1.2473 -0.2693
17275TIP3   OH273239   3.304   0.849   2.099  0.3129 -0.3676  0.0905
17275TIP3    H173240   3.245   0.868   2.026  2.2939  2.1113 -0.9990
17275TIP3    H273241   3.265   0.896   2.173 -0.3326 -0.7377 -0.0055
17276TIP3   OH273242   1.320   5.241   0.618 -0.6291  0.2822  0.0495
17276TIP3    H173243   1.399   5.251   0.671 -1.0913 -1.3389  1.1234
17276TIP3    H273244   1.251   5.220   0.680 -1.2449 -1.4592 -1.1367
17277TIP3   OH273245   3.387   0.854  10.823  0.2665  0.2494 -0.5462
17277TIP3    H173246   3.347   0.773  10.791 -0.9900  1.0460 -1.0561
17277TIP3    H273247   3.432   0.890  10.747  3.9351 -1.6579  0.4518
17278TIP3   OH273248   3.375   0.836   0.115 -0.2080  0.3550 -0.4302
17278TIP3    H173249   3.337   0.754   0.146  2.1993 -1.0987 -0.9974
17278TIP3    H273250   3.400   0.883   0.194  2.0787 -1.4133  0.0234
17279TIP3   OH273251   6.210   6.380   5.532  0.4999  0.3949  0.5101
17279TIP3    H173252   6.154   6.395   5.455  0.0802 -2.8234  0.0297
17279TIP3    H273253   6.160   6.416   5.605 -0.7827  0.3540 -0.3145
17280TIP3   OH273254   4.116   5.410  15.242 -0.3869 -0.0662  0.2692
17280TIP3    H173255   4.033   5.453  15.221 -1.0950 -1.6406 -0.3593
17280TIP3    H273256   4.180   5.454  15.187 -1.0465  0.3075 -0.2204
17281TIP3   OH273257   4.872   4.349   4.610  0.3007 -0.5342 -0.1699
17281TIP3    H173258   4.902   4.431   4.651 -0.6999 -0.8618  1.3218
17281TIP3    H273259   4.932   4.282   4.643 -0.3042 -0.7449  0.5456
17282TIP3   OH273260   5.072   3.567   4.018  0.4320  0.1415 -0.3599
17282TIP3    H173261   5.059   3.495   3.957  1.4451  0.4810 -0.9894
17282TIP3    H273262   5.113   3.636   3.966  0.8944  0.5995  0.5858
17283TIP3   OH273263   2.020   6.412   1.365 -0.4016 -0.2683  0.1724
17283TIP3    H173264   1.980   6.389   1.448  0.4246 -0.1687  0.6037
17283TIP3    H273265   1.983   6.350   1.302 -0.6292 -0.6827  0.7089
17284TIP3   OH273266   4.907   5.913   5.556 -0.0051  0.0353  0.6229
17284TIP3    H173267   4.855   5.986   5.524  2.2987  1.2513 -0.6384
17284TIP3    H273268   4.847   5.861   5.609 -2.0964  2.0280  0.3326
17285TIP3   OH273269   4.714   4.850  10.352 -0.9264  0.0732 -0.0321
17285TIP3    H173270   4.758   4.779  10.306  0.6640 -0.2136  1.8094
17285TIP3    H273271   4.778   4.881  10.416 -1.3042  3.5687 -1.1055
17286TIP3   OH273272   3.514   5.647  13.855  0.3891 -0.0551  0.5153
17286TIP3    H173273   3.446   5.678  13.796 -1.0448 -2.1864  0.9412
17286TIP3    H273274   3.474   5.649  13.941  0.5953 -1.8947  0.6981
17287TIP3   OH273275   5.470   2.542   5.611 -0.2779 -0.4534 -0.0254
17287TIP3    H173276   5.484   2.546   5.517 -1.8431  0.0325 -0.2820
17287TIP3    H273277   5.512   2.461   5.639 -1.9531 -1.9769 -1.5888
17288TIP3   OH273278   0.351   2.478  10.677  0.4983  0.3397 -0.6814
17288TIP3    H173279   0.255   2.475  10.677  0.3019  0.5326  3.9342
17288TIP3    H273280   0.372   2.542  10.608 -2.5927 -0.0180 -2.1401
17289TIP3   OH273281   0.612   2.025   2.844  0.3649 -0.1553 -0.3175
17289TIP3    H173282   0.602   2.101   2.786 -1.4128  1.0422  1.4256
17289TIP3    H273283   0.701   1.995   2.829  0.5255  1.1482 -2.3860
17290TIP3   OH273284   1.027   2.316   1.882  0.3907 -0.3042  0.6906
17290TIP3    H173285   1.121   2.305   1.872  0.3108  0.1553 -0.8825
17290TIP3    H273286   1.016   2.362   1.965  1.5439 -0.5592  0.9859
17291TIP3   OH273287   6.245   6.544   1.155  0.5457 -0.1011  0.0873
17291TIP3    H173288   6.171   6.558   1.095 -0.3202 -1.3609  0.8387
17291TIP3    H273289   6.215   6.579   1.239  0.8541 -0.5221  0.3727
17292TIP3   OH273290   1.499   3.050  11.492  0.4118 -0.1380 -0.5134
17292TIP3    H173291   1.436   3.081  11.427 -1.9683 -1.7430  0.8733
17292TIP3    H273292   1.445   3.016  11.564  2.9044  0.1925  1.6731
17293TIP3   OH273293   5.964   1.070   6.594 -0.3706 -0.1176 -0.2209
17293TIP3    H173294   5.891   1.031   6.545 -1.2980 -1.8761  2.3552
17293TIP3    H273295   5.957   1.164   6.577 -1.3853 -0.5136 -2.3719
17294TIP3   OH273296   5.809   3.240   3.962 -0.1711 -0.7377 -0.1225
17294TIP3    H173297   5.781   3.331   3.953  2.4831  0.1961 -0.0726
17294TIP3    H273298   5.821   3.209   3.873  0.6397 -0.3948 -0.1464
17295TIP3   OH273299   0.511   4.612   4.455 -0.0210 -0.0529  0.7938
17295TIP3    H173300   0.604   4.614   4.431 -0.4530  1.3291 -0.9172
17295TIP3    H273301   0.503   4.534   4.509  2.1493 -0.1800  1.0290
17296TIP3   OH273302   3.991   2.005   3.207  0.0528  1.0790  0.1419
17296TIP3    H173303   4.078   1.978   3.179  0.4328  2.2759  0.1188
17296TIP3    H273304   3.989   2.100   3.193 -0.7614  1.2781  1.4158
17297TIP3   OH273305   3.422   0.391  16.434  0.4392 -0.2129 -0.6108
17297TIP3    H173306   3.371   0.465  16.468 -1.7479 -1.6880 -0.4183
17297TIP3    H273307   3.513   0.415  16.449 -0.2690  1.5077  1.4210
17298TIP3   OH273308   0.297   3.530   2.905  0.0175  0.0988  0.2372
17298TIP3    H173309   0.314   3.597   2.972  0.4046  0.6292 -0.3741
17298TIP3    H273310   0.330   3.449   2.944  0.7575  0.4967  0.4737
17299TIP3   OH273311   1.351   4.876   3.071  0.5084  0.3167  0.7811
17299TIP3    H173312   1.327   4.852   3.160  0.4670  0.1634  0.7294
17299TIP3    H273313   1.269   4.901   3.029  0.6852  1.4910  1.1175
17300TIP3   OH273314   6.678   2.942  13.166  0.0709  0.1981 -0.4996
17300TIP3    H173315   6.624   2.871  13.129 -1.3611  0.6135  0.6721
17300TIP3    H273316   6.719   2.983  13.091  1.3980 -2.2022 -1.1825
17301TIP3   OH273317   6.172   4.707  15.084 -0.0780  0.5174 -0.1044
17301TIP3    H173318   6.159   4.768  15.011 -1.7242  0.1820 -0.1153
17301TIP3    H273319   6.230   4.754  15.144  2.1104  0.4378 -2.0202
17302TIP3   OH273320   0.937   1.177   3.697  0.7315  1.0978  0.2517
17302TIP3    H173321   1.021   1.146   3.731  0.0204 -0.7319  0.4946
17302TIP3    H273322   0.956   1.200   3.606  1.3570 -0.1356  0.0355
17303TIP3   OH273323   0.680   4.978  11.745 -0.5438 -0.2672  0.5849
17303TIP3    H173324   0.772   4.991  11.767 -0.9114 -0.4098  2.3565
17303TIP3    H273325   0.682   4.925  11.665  0.8976  1.6177 -0.7130
17304TIP3   OH273326   1.726   3.530  15.325 -0.3187 -0.3373  0.2901
17304TIP3    H173327   1.796   3.465  15.325  0.1906  0.1960  0.3711
17304TIP3    H273328   1.749   3.590  15.254 -0.4059  0.1392  0.6586
17305TIP3   OH273329   4.644   0.075  13.325 -0.5520 -0.0419  0.0870
17305TIP3    H173330   4.583   0.002  13.311 -0.2771 -0.5354  1.3671
17305TIP3    H273331   4.694   0.079  13.243  1.1755 -2.9943  0.8282
17306TIP3   OH273332   2.197   1.238   1.978 -0.5192  0.3411 -0.0506
17306TIP3    H173333   2.242   1.197   2.052  0.1536  3.7994  1.6941
17306TIP3    H273334   2.105   1.241   2.004 -0.5605 -0.0158 -0.1570
17307TIP3   OH273335   0.220   5.569   3.007 -0.0655  0.3031 -0.1278
17307TIP3    H173336   0.239   5.476   3.023 -3.9954 -0.8143 -1.0183
17307TIP3    H273337   0.299   5.602   2.964  1.8114 -2.3479  0.9797
17308TIP3   OH273338   3.061   2.354  12.588 -0.0445  0.1486 -0.5871
17308TIP3    H173339   3.023   2.317  12.668 -1.2913 -0.8599 -1.5880
17308TIP3    H273340   3.003   2.426  12.565 -0.4508 -0.3741 -1.2507
17309TIP3   OH273341   4.247   2.179   3.680  0.0892  0.1666 -0.5167
17309TIP3    H173342   4.170   2.233   3.664  0.5214  0.8920 -0.2366
17309TIP3    H273343   4.293   2.224   3.752 -0.1645 -1.2538  0.5707
17310TIP3   OH273344   0.319   6.367   1.310  0.2228  0.6815  0.2458
17310TIP3    H173345   0.225   6.356   1.301  0.1330  1.0923  0.6165
17310TIP3    H273346   0.339   6.447   1.261  0.1219  1.4853  1.4494
17311TIP3   OH273347   5.310   0.717   0.814  0.0265 -0.9647 -0.5886
17311TIP3    H173348   5.366   0.759   0.749 -0.3930 -0.4400 -0.6212
17311TIP3    H273349   5.331   0.762   0.896  0.2913 -1.3766 -0.4272
17312TIP3   OH273350   0.539   3.758   4.512  0.2100 -0.4021  0.0263
17312TIP3    H173351   0.508   3.753   4.422 -0.6726 -0.7794  0.3353
17312TIP3    H273352   0.615   3.816   4.509  0.0425 -0.2228 -0.9164
17313TIP3   OH273353   0.793   2.060   2.422  0.5344 -0.7096 -0.7206
17313TIP3    H173354   0.817   2.019   2.339 -0.3965 -0.3691 -1.1698
17313TIP3    H273355   0.727   2.125   2.398  0.9167  0.0179  0.1733
17314TIP3   OH273356   4.774   6.477   4.864  0.3760  0.6338  0.5402
17314TIP3    H173357   4.688   6.515   4.883 -0.2220 -0.1100 -0.5524
17314TIP3    H273358   4.802   6.437   4.947 -0.5340  0.5164  0.8006
17315TIP3   OH273359   0.213   1.086   0.464 -0.3016 -0.3168  0.7630
17315TIP3    H173360   0.148   1.109   0.397  0.0330  2.4734  1.2873
17315TIP3    H273361   0.163   1.080   0.545  0.0015  1.6345  1.1321
17316TIP3   OH273362   5.376   6.245  15.284 -0.1572 -0.2093 -0.0600
17316TIP3    H173363   5.402   6.336  15.296 -0.3151 -0.0029 -1.2268
17316TIP3    H273364   5.455   6.201  15.252  0.3797 -0.8500  1.9608
17317TIP3   OH273365   1.207   4.675  14.943  0.0570 -0.4301 -0.5673
17317TIP3    H173366   1.251   4.606  14.994  1.7546  1.6932  1.0300
17317TIP3    H273367   1.247   4.669  14.856  1.5604 -0.3326  0.0814
17318TIP3   OH273368   5.289   1.260  15.777  1.0572 -0.3985 -0.0828
17318TIP3    H173369   5.255   1.240  15.690  1.4243 -1.7826  0.0799
17318TIP3    H273370   5.330   1.179  15.807  1.0589  0.0932  1.3320
17319TIP3   OH273371   3.036   4.875  16.213 -0.0306  0.1595  0.4458
17319TIP3    H173372   2.941   4.872  16.198  0.0709 -0.6222 -0.1214
17319TIP3    H273373   3.052   4.806  16.278  0.3991 -1.2058 -1.0473
17320TIP3   OH273374   1.922   5.559  14.396 -0.5409  0.2929 -0.2878
17320TIP3    H173375   1.848   5.554  14.456  0.6532 -0.6574  1.1899
17320TIP3    H273376   1.885   5.544  14.310 -1.8065 -2.4276  0.6117
17321TIP3   OH273377   4.362   0.256  11.604 -0.4323 -0.1407 -0.9111
17321TIP3    H173378   4.453   0.285  11.597 -0.0940 -1.1380 -0.7333
17321TIP3    H273379   4.311   0.335  11.585  0.4051  1.2217  1.9455
17322TIP3   OH273380   4.845   3.700   0.176 -0.0456  0.0985  0.0187
17322TIP3    H173381   4.870   3.712   0.084  0.6272 -1.3969 -0.0322
17322TIP3    H273382   4.907   3.754   0.225 -1.6733  2.5495 -0.4346
17323TIP3   OH273383   5.249   6.611   5.058 -0.3351 -0.5469  0.1255
17323TIP3    H173384   5.286   6.560   4.986 -1.6407 -2.7373  0.9294
17323TIP3    H273385   5.165   6.570   5.076 -0.0103 -0.1679  2.9892
17324TIP3   OH273386   4.077   6.521   1.129  0.3901  0.2096 -0.2069
17324TIP3    H173387   4.004   6.577   1.103 -1.2174 -2.0242 -0.7964
17324TIP3    H273388   4.061   6.503   1.222  0.7131  0.4314 -0.1062
17325TIP3   OH273389   3.562   6.580  11.324 -0.1424 -0.1003  0.6048
17325TIP3    H173390   3.503   6.570  11.250  0.4972 -0.4918  0.1365
17325TIP3    H273391   3.504   6.591  11.399 -0.8149  2.3717 -0.1906
17326TIP3   OH273392   5.090   2.178  12.200  0.3814 -0.8792 -0.1887
17326TIP3    H173393   5.182   2.205  12.190 -0.1267  1.2077  0.4037
17326TIP3    H273394   5.040   2.258  12.185 -1.2319 -1.4650  1.6645
17327TIP3   OH273395   4.013   0.379  14.103  0.1555 -0.3690  0.2950
17327TIP3    H173396   3.980   0.289  14.096  2.4194 -1.2020 -0.4954
17327TIP3    H273397   4.107   0.371  14.089  0.4946  2.0822  0.7895
17328TIP3   OH273398   3.492   0.914   5.088  0.3140  0.4697 -0.3011
17328TIP3    H173399   3.447   0.866   5.158 -0.3483  0.5250 -0.6869
17328TIP3    H273400   3.528   0.991   5.131 -0.2794  0.6159 -0.0567
17329TIP3   OH273401   6.233   2.120  13.743  0.1872 -0.2577  0.8938
17329TIP3    H173402   6.266   2.038  13.781  1.0176 -2.1112 -3.2395
17329TIP3    H273403   6.311   2.173  13.729  0.2676 -0.6677 -0.3515
17330TIP3   OH273404   2.489   0.505  11.396  0.2222  0.5709 -0.4660
17330TIP3    H173405   2.565   0.458  11.361  2.0499  2.5094  0.6534
17330TIP3    H273406   2.430   0.435  11.426  0.6926 -1.0247 -2.9568
17331TIP3   OH273407   3.019   1.500   0.753  0.0618  0.1008  0.3160
17331TIP3    H173408   3.025   1.590   0.785  1.4012 -0.2077  1.0323
17331TIP3    H273409   3.066   1.449   0.819 -0.3108 -1.0646 -0.3053
17332TIP3   OH273410   2.849   4.551  14.333  0.0271 -0.3593 -0.4178
17332TIP3    H173411   2.873   4.470  14.378  0.5930 -0.2033 -0.4403
17332TIP3    H273412   2.754   4.559  14.347  0.3446  0.2501  1.6925
17333TIP3   OH273413   0.632   2.341   5.035 -0.6041 -0.3629  0.3728
17333TIP3    H173414   0.560   2.297   4.990 -1.1583  0.5892  0.2892
17333TIP3    H273415   0.590   2.414   5.080  0.2258 -0.1735  0.8518
17334TIP3   OH273416   2.634   2.780   6.736  1.4677 -0.1860  0.0165
17334TIP3    H173417   2.656   2.767   6.828 -0.4156  1.0459  0.7095
17334TIP3    H273418   2.645   2.874   6.723  1.1342 -0.2624 -0.8431
17335TIP3   OH273419   6.643   0.755   3.278  0.7562 -0.3188 -0.6026
17335TIP3    H173420   6.616   0.820   3.342  1.6490 -1.6647  1.2191
17335TIP3    H273421   6.659   0.676   3.328  1.3427 -1.4977 -2.5175
17336TIP3   OH273422   2.981   0.425   4.781 -0.3685 -0.1090  0.0883
17336TIP3    H173423   2.913   0.365   4.749 -0.6745  0.2635  0.0374
17336TIP3    H273424   2.965   0.431   4.875 -1.2022  0.9673 -0.1081
17337TIP3   OH273425   4.066   2.242  17.113 -0.3862 -0.8344  0.1805
17337TIP3    H173426   4.056   2.328  17.072  0.4324 -0.8391 -0.0336
17337TIP3    H273427   4.028   2.253  17.200 -0.8803 -0.4393 -0.0795
17338TIP3   OH273428   6.093   3.147   0.011  0.4584 -0.0237  0.2906
17338TIP3    H173429   6.171   3.099   0.038  0.8567  0.8723  0.7939
17338TIP3    H273430   6.025   3.120   0.074  0.2264 -1.1384 -0.4166
17339TIP3   OH273431   4.330   5.674  15.722  0.3635  0.4699 -0.5324
17339TIP3    H173432   4.403   5.724  15.758 -1.7805  1.9208  2.0682
17339TIP3    H273433   4.323   5.597  15.779  0.2134 -0.0078 -1.1748
17340TIP3   OH273434   1.129   0.728  12.320  0.0941  0.3974 -0.0398
17340TIP3    H173435   1.201   0.769  12.273  0.3952  0.5688  0.5639
17340TIP3    H273436   1.170   0.690  12.398 -0.0869 -1.4777 -0.8103
17341TIP3   OH273437   2.446   0.170   2.455  0.2352  0.2387 -0.0533
17341TIP3    H173438   2.412   0.128   2.376  2.3277 -1.9781  0.1127
17341TIP3    H273439   2.388   0.244   2.469 -1.4180 -0.4548 -2.5221
17342TIP3   OH273440   3.822   1.680  12.482 -0.0645  0.6643  0.1700
17342TIP3    H173441   3.836   1.720  12.396 -1.3931  1.2857  0.2308
17342TIP3    H273442   3.735   1.708  12.508  0.4198  0.7071  1.8545
17343TIP3   OH273443   1.084   2.774   3.206 -0.0349 -0.2438  0.0820
17343TIP3    H173444   1.112   2.717   3.134 -2.0800 -0.2775 -0.7296
17343TIP3    H273445   1.153   2.763   3.272  0.5296 -2.2940 -0.7667
17344TIP3   OH273446   5.095   2.368   3.944  0.1347 -0.1989  0.4064
17344TIP3    H173447   5.047   2.317   4.009 -1.0635 -0.6897 -0.8053
17344TIP3    H273448   5.160   2.417   3.994 -0.1818 -1.2115  1.8518
17345TIP3   OH273449   2.741   4.187   0.051 -0.0808 -0.0859  0.2698
17345TIP3    H173450   2.790   4.186   0.134 -1.5183 -1.8587  1.1724
17345TIP3    H273451   2.782   4.118  -0.002 -0.2718 -0.1481  0.2033
17346TIP3   OH273452   2.515   5.491  13.001  0.5554 -0.4754  0.3732
17346TIP3    H173453   2.587   5.538  13.043  0.4218  0.3727 -0.2983
17346TIP3    H273454   2.488   5.549  12.929 -1.0984 -0.5565  0.8982
17347TIP3   OH273455   6.473   5.178   1.881  0.6168 -0.8043  0.1004
17347TIP3    H173456   6.384   5.154   1.857  1.1530 -0.9834 -1.8396
17347TIP3    H273457   6.514   5.095   1.905  0.8658 -1.0531 -1.1342
17348TIP3   OH273458   2.712   5.580   5.608  0.6535 -0.2724  0.1677
17348TIP3    H173459   2.738   5.571   5.700 -1.3756 -0.2739  0.8017
17348TIP3    H273460   2.758   5.509   5.564  0.4231 -1.3141  1.5067
17349TIP3   OH273461   1.414   1.702   0.913  0.3374  0.2385 -0.2037
17349TIP3    H173462   1.464   1.783   0.907  1.6058 -0.0001  3.9115
17349TIP3    H273463   1.479   1.633   0.902 -0.2702 -0.2011 -1.1031
17350TIP3   OH273464   1.078   2.963   3.905 -0.0283  0.3926 -0.2328
17350TIP3    H173465   1.154   2.973   3.962  0.1919  3.3325 -0.8759
17350TIP3    H273466   1.102   2.892   3.846  0.2605 -1.8504  2.4062
17351TIP3   OH273467   2.605   0.403   3.754  0.6425  0.4016  0.2020
17351TIP3    H173468   2.579   0.314   3.728 -0.2439  0.5785  0.4377
17351TIP3    H273469   2.523   0.445   3.778  0.6186  2.2262 -2.6151
17352TIP3   OH273470   0.215   3.970  16.244  0.1990 -0.6199 -0.5631
17352TIP3    H173471   0.182   3.906  16.181 -0.5378 -0.7145 -0.0937
17352TIP3    H273472   0.191   4.055  16.206 -0.1307 -0.6731 -0.4789
17353TIP3   OH273473   0.659   6.592   0.476  0.0131  0.5381  0.4994
17353TIP3    H173474   0.706   6.509   0.482  0.8232  0.5493 -3.4434
17353TIP3    H273475   0.719   6.656   0.515  0.6906 -0.2885  0.8365
17354TIP3   OH273476   2.738   5.664   2.322  0.3851 -0.3339  0.3608
17354TIP3    H173477   2.666   5.711   2.282  0.2302  0.2772  1.3419
17354TIP3    H273478   2.804   5.731   2.340  0.9032 -0.7745  0.1257
17355TIP3   OH273479   2.897   1.732  13.404  0.6893  0.2138 -0.0940
17355TIP3    H173480   2.948   1.679  13.464  0.8749  0.2795 -0.1909
17355TIP3    H273481   2.806   1.720  13.431  0.6927 -0.4886 -0.3850
17356TIP3   OH273482   4.959   4.974   3.448  0.3588  0.8896 -0.2958
17356TIP3    H173483   4.961   5.068   3.433  0.5745  1.0937  0.9309
17356TIP3    H273484   4.866   4.952   3.454  0.3220  1.2101  0.4383
17357TIP3   OH273485   2.382   6.212   2.445 -0.2407 -0.0017 -0.2657
17357TIP3    H173486   2.401   6.239   2.355  0.0889 -0.9163 -0.4757
17357TIP3    H273487   2.290   6.237   2.458 -0.6521 -0.9172 -1.2517
17358TIP3   OH273488   2.091   2.952   3.386  0.4707 -0.1114 -0.3721
17358TIP3    H173489   2.069   3.025   3.444  1.1051  0.6058 -1.0111
17358TIP3    H273490   2.046   2.973   3.304 -1.9893 -2.0626  0.3761
17359TIP3   OH273491   1.879   4.864   0.862  0.1112 -0.0574  0.2682
17359TIP3    H173492   1.955   4.871   0.920  2.6034 -0.4966 -2.6720
17359TIP3    H273493   1.855   4.954   0.842  0.7570  0.0996  0.1787
17360TIP3   OH273494   3.188   3.070   1.848 -0.8492  0.5936 -0.4795
17360TIP3    H173495   3.228   3.049   1.764 -0.2652 -0.6896  0.1034
17360TIP3    H273496   3.137   2.992   1.871 -0.3834  0.6240  0.7157
17361TIP3   OH273497   2.660   0.765  14.289 -0.1514  0.6576  0.3095
17361TIP3    H173498   2.644   0.823  14.363 -0.2473  1.4229 -0.3065
17361TIP3    H273499   2.573   0.744  14.256 -0.1334 -0.0431  0.6672
17362TIP3   OH273500   1.558   4.500   0.219  0.0439  0.3015 -0.0720
17362TIP3    H173501   1.562   4.430   0.153 -0.0426  0.9660 -0.7987
17362TIP3    H273502   1.562   4.454   0.303 -0.0790 -0.5812 -0.5342
17363TIP3   OH273503   2.589   4.962   4.176  0.2692  0.2619 -0.1729
17363TIP3    H173504   2.532   5.012   4.234  0.0526 -0.2568  0.0623
17363TIP3    H273505   2.655   4.923   4.234  1.1783  1.2644 -0.4971
17364TIP3   OH273506   6.609   1.444  12.856  0.1630 -0.3299  0.4984
17364TIP3    H173507   6.694   1.429  12.896  0.4395 -0.2650 -0.0580
17364TIP3    H273508   6.623   1.428  12.763  0.2152  2.3240 -0.0234
17365TIP3   OH273509   2.382   4.814  16.622 -0.0306 -0.0026 -0.0722
17365TIP3    H173510   2.327   4.888  16.597 -0.4467 -0.4838 -0.6374
17365TIP3    H273511   2.327   4.762  16.680  0.5872  0.5966  1.0768
17366TIP3   OH273512   3.213   5.895  14.274 -0.1553 -0.2387  0.5824
17366TIP3    H173513   3.165   5.850  14.205 -0.7092  1.1503  0.0273
17366TIP3    H273514   3.290   5.931  14.230 -0.7931  1.1300  0.5276
17367TIP3   OH273515   1.352   2.067   2.661  0.9258  0.4406  0.3610
17367TIP3    H173516   1.344   2.150   2.614  2.0924 -0.3102 -1.2906
17367TIP3    H273517   1.288   2.073   2.732 -0.7111  1.7737 -1.1326
17368TIP3   OH273518   5.221   2.194   2.732 -0.2263 -0.7886  0.3098
17368TIP3    H173519   5.317   2.192   2.724 -0.2386  0.8839 -0.6711
17368TIP3    H273520   5.195   2.102   2.732  1.3530 -1.2679  0.2771
17369TIP3   OH273521   4.203   1.899  14.163 -0.2725 -0.2242  0.3446
17369TIP3    H173522   4.223   1.934  14.249 -0.2739 -1.6250  0.9395
17369TIP3    H273523   4.276   1.926  14.108  0.0278  0.1745  0.9307
17370TIP3   OH273524   3.618   6.226   2.263 -0.2882 -0.2125 -0.4566
17370TIP3    H173525   3.593   6.210   2.172 -0.6763 -2.4096 -0.0185
17370TIP3    H273526   3.714   6.231   2.260 -0.3480  1.0198 -1.1255
17371TIP3   OH273527   2.109   2.431   4.036 -0.2960  0.0356 -0.0250
17371TIP3    H173528   2.144   2.520   4.026 -2.7483  1.0170 -0.7231
17371TIP3    H273529   2.177   2.375   3.998  1.2254  1.5932  0.2241
17372TIP3   OH273530   4.873   4.839   5.163 -0.9673 -0.5390  0.0917
17372TIP3    H173531   4.835   4.850   5.076  0.3093 -0.6226 -0.5049
17372TIP3    H273532   4.964   4.866   5.152 -0.3807 -2.0477  1.0116
17373TIP3   OH273533   6.557   4.798  11.704 -0.0323 -0.0230 -0.4250
17373TIP3    H173534   6.570   4.760  11.618 -1.4562 -0.6516 -0.3821
17373TIP3    H273535   6.489   4.744  11.745  1.5167 -0.5710  1.6107
17374TIP3   OH273536   6.247   3.251   3.517  0.3786  0.3595  0.5084
17374TIP3    H173537   6.185   3.202   3.464  1.5098 -1.3000  0.6689
17374TIP3    H273538   6.243   3.340   3.481 -1.6290  0.1812  0.1450
17375TIP3   OH273539   6.342   2.927  11.995 -0.3227 -0.2290  0.2457
17375TIP3    H173540   6.356   2.862  12.063 -0.6297 -0.0705  0.4600
17375TIP3    H273541   6.263   2.897  11.949 -0.5317  0.0488  0.4180
17376TIP3   OH273542   1.256   1.818   2.052 -0.2888  0.1313  0.0820
17376TIP3    H173543   1.311   1.758   2.103  0.7876  0.9826 -0.0666
17376TIP3    H273544   1.262   1.785   1.962 -1.2672 -0.6789  0.2881
17377TIP3   OH273545   3.836   1.629   0.099 -0.5688 -0.4174 -0.4089
17377TIP3    H173546   3.760   1.609   0.044 -1.2917  0.8135  0.0913
17377TIP3    H273547   3.895   1.555   0.086 -0.7674 -0.2594 -2.7422
17378TIP3   OH273548   3.859   2.203  12.963 -0.3234  1.2610  0.4796
17378TIP3    H173549   3.905   2.226  12.882  0.2362  0.1359  0.4613
17378TIP3    H273550   3.916   2.139  13.006 -3.4671 -3.3042 -1.3901
17379TIP3   OH273551   3.113   4.095  16.660 -0.0265 -0.3100 -0.8488
17379TIP3    H173552   3.203   4.062  16.669 -0.2510 -1.5379 -2.6392
17379TIP3    H273553   3.060   4.035  16.713  0.1903  0.6005  0.4691
17380TIP3   OH273554   0.688   5.377   0.980 -0.3068  0.4459  0.0501
17380TIP3    H173555   0.770   5.328   0.974  0.3965  1.5373  0.4392
17380TIP3    H273556   0.642   5.338   1.055  1.0391  1.4905  1.4775
17381TIP3   OH273557   3.123   5.078  11.666  0.3713 -0.2758 -0.3693
17381TIP3    H173558   3.070   5.100  11.742  0.4316  0.3257 -0.4984
17381TIP3    H273559   3.066   5.024  11.612  0.1277 -0.2128 -0.1794
17382TIP3   OH273560   5.510   1.578   3.419  0.1835 -0.1379 -0.3549
17382TIP3    H173561   5.480   1.659   3.378  1.6847  1.0266  0.7348
17382TIP3    H273562   5.536   1.603   3.507  2.8973 -1.2723 -0.7088
17383TIP3   OH273563   0.047   5.872  12.740 -0.7659  0.1580  0.2108
17383TIP3    H173564   0.100   5.798  12.713 -0.1467 -0.1880  2.1916
17383TIP3    H273565   0.072   5.943  12.682  0.8225 -0.3880  0.1988
17384TIP3   OH273566   0.100   4.950  12.291 -0.3350  0.2748  0.5403
17384TIP3    H173567   0.177   4.894  12.280  0.3240  1.0055  1.2620
17384TIP3    H273568   0.031   4.890  12.320 -0.9449 -0.9335 -3.0068
17385TIP3   OH273569   4.569   3.530   0.170  0.2251  0.3738 -0.3356
17385TIP3    H173570   4.517   3.546   0.091  0.5173  1.0891 -0.3989
17385TIP3    H273571   4.609   3.615   0.189  3.2117 -0.6262 -1.6149
17386TIP3   OH273572   3.894   0.691  11.836  0.0044  0.0163 -0.3776
17386TIP3    H173573   3.809   0.700  11.881  0.3243 -1.3210  0.5498
17386TIP3    H273574   3.957   0.730  11.897  0.2063 -0.0424 -0.5474
17387TIP3   OH273575   6.446   0.069  17.017 -0.3643 -0.4672 -0.0873
17387TIP3    H173576   6.476   0.149  16.974 -0.4723  0.0145  0.7127
17387TIP3    H273577   6.421   0.011  16.945 -0.9528  0.4826 -0.6690
17388TIP3   OH273578   6.774   6.205  15.355 -0.0284  0.1544  0.1403
17388TIP3    H173579   6.735   6.229  15.439 -1.4273  0.0842 -0.4649
17388TIP3    H273580   6.813   6.286  15.323 -0.4301  0.4409  0.3706
17389TIP3   OH273581   2.942   4.503  16.139  0.0155  0.0879 -0.0730
17389TIP3    H173582   2.851   4.517  16.113 -0.4284 -1.2943  0.6539
17389TIP3    H273583   2.942   4.515  16.234  0.8419  1.2035 -0.1921
17390TIP3   OH273584   4.926   5.702   4.088  0.2380 -0.2731 -0.1621
17390TIP3    H173585   4.904   5.643   4.160  0.0206 -0.8857 -0.7103
17390TIP3    H273586   4.954   5.783   4.130 -1.4067 -0.0602  0.5990
17391TIP3   OH273587   5.076   0.556  10.577  0.0014 -0.1941  0.1882
17391TIP3    H173588   5.164   0.581  10.551 -0.0968  0.6223  0.6111
17391TIP3    H273589   5.089   0.497  10.652  0.1844 -0.0577  0.2625
17392TIP3   OH273590   2.821   5.016   3.384  0.1394 -0.2830  0.0101
17392TIP3    H173591   2.780   5.102   3.388  1.7148  0.4657  1.7322
17392TIP3    H273592   2.887   5.023   3.315  1.0718  0.3187  0.9328
17393TIP3   OH273593   2.344   6.759  15.130  0.1111  0.4470 -0.0572
17393TIP3    H173594   2.318   6.681  15.180  1.5652  0.1347  0.2467
17393TIP3    H273595   2.422   6.732  15.082  2.5482  2.5317  2.4195
17394TIP3   OH273596   6.198   5.579   3.933 -0.1254  0.4023 -0.8225
17394TIP3    H173597   6.289   5.602   3.951  0.0121 -0.2732 -0.6317
17394TIP3    H273598   6.199   5.548   3.842  0.4630 -2.6391  0.1078
17395TIP3   OH273599   4.584   3.260   2.621 -0.2803  0.0112 -0.0800
17395TIP3    H173600   4.532   3.226   2.548  0.8528  0.0621 -0.9360
17395TIP3    H273601   4.634   3.184   2.652 -0.8816 -0.0513  0.7739
17396TIP3   OH273602   1.032   5.303   2.468  0.5235 -0.1007 -0.0912
17396TIP3    H173603   0.955   5.349   2.435 -0.4452 -0.8433  1.0327
17396TIP3    H273604   1.102   5.368   2.464 -0.2130  0.6832 -0.8821
17397TIP3   OH273605   0.055   4.816  16.351  0.1491  0.0019  1.2135
17397TIP3    H173606  -0.039   4.828  16.363  0.2795  0.6203  1.7014
17397TIP3    H273607   0.066   4.721  16.343 -0.3853 -0.1853  2.4204
17398TIP3   OH273608   6.771   2.650   3.985 -0.1903  0.1722 -0.0601
17398TIP3    H173609   6.687   2.607   3.969 -0.7644  0.3749  2.1183
17398TIP3    H273610   6.755   2.743   3.967 -0.7523  0.3636  1.3384
17399TIP3   OH273611   0.749   3.309   4.541  0.1664 -0.2024 -0.0963
17399TIP3    H173612   0.753   3.242   4.473 -0.5000 -0.5303  0.1732
17399TIP3    H273613   0.831   3.300   4.589  0.2049 -0.6476 -0.2394
17400TIP3   OH273614   6.176   1.862   5.399  0.0781 -0.3023 -0.2439
17400TIP3    H173615   6.187   1.844   5.306 -1.7905  0.1786 -0.6042
17400TIP3    H273616   6.174   1.957   5.406 -1.4484 -0.3170  0.0103
17401TIP3   OH273617   2.708   2.998   4.978 -0.3684  0.2629 -0.2438
17401TIP3    H173618   2.631   2.958   5.018 -0.8626  2.6073  1.3638
17401TIP3    H273619   2.749   3.048   5.049  2.5291 -0.6613 -1.0962
17402TIP3   OH273620   1.118   0.974  10.667 -0.1752 -0.1220 -0.4702
17402TIP3    H173621   1.058   1.047  10.655 -1.1925 -0.7621  0.5360
17402TIP3    H273622   1.118   0.958  10.761  1.1068 -0.5397 -0.5177
17403TIP3   OH273623   6.099   5.948  12.564  0.1287  0.6773  0.2018
17403TIP3    H173624   6.177   5.934  12.618  0.2009 -0.0462 -0.0718
17403TIP3    H273625   6.131   5.941  12.474 -0.1814  0.7830  0.0812
17404TIP3   OH273626   2.603   5.994   2.147 -0.4296  0.1067 -0.9170
17404TIP3    H173627   2.593   5.977   2.241  0.9498 -1.1362 -0.9545
17404TIP3    H273628   2.684   5.949   2.123  0.5071  2.3338 -2.2445
17405TIP3   OH273629   2.282   5.585  16.432 -0.0717 -0.2934  0.2083
17405TIP3    H173630   2.346   5.515  16.446 -1.0049 -1.0990  0.5868
17405TIP3    H273631   2.202   5.553  16.474 -0.5356  0.9961  0.3659
17406TIP3   OH273632   4.933   2.292   4.536  0.0775 -0.2979  0.7144
17406TIP3    H173633   5.017   2.333   4.557  0.8921 -1.8492  0.7155
17406TIP3    H273634   4.952   2.198   4.538 -1.2808 -0.6631 -0.8213
17407TIP3   OH273635   5.048   6.503  11.587  0.1731  0.1534  0.2817
17407TIP3    H173636   5.115   6.476  11.524  0.8026  1.2302  0.4619
17407TIP3    H273637   5.085   6.581  11.630 -0.8599  0.3013  0.9507
17408TIP3   OH273638   1.454   3.654  15.864  0.0641  0.6805  0.1252
17408TIP3    H173639   1.457   3.746  15.841  2.6221  0.2307 -1.6686
17408TIP3    H273640   1.470   3.652  15.959  1.7442  2.0157 -0.0963
17409TIP3   OH273641   5.071   5.750  12.462  0.1813 -0.3646 -0.4722
17409TIP3    H173642   5.040   5.762  12.372  0.9642  2.0304 -0.4894
17409TIP3    H273643   5.085   5.839  12.495 -2.7973 -0.9511  3.0462
17410TIP3   OH273644   2.737   0.982  15.413  0.3086  1.0249  0.5147
17410TIP3    H173645   2.663   1.042  15.411 -2.3747 -2.0397 -0.8871
17410TIP3    H273646   2.711   0.912  15.473  0.6106 -1.6480 -2.1995
17411TIP3   OH273647   4.464   3.365   6.598  0.0872  0.1397 -0.2893
17411TIP3    H173648   4.495   3.449   6.630  0.8344 -0.1821 -0.1520
17411TIP3    H273649   4.380   3.352   6.641  0.9904 -0.2038  1.4461
17412TIP3   OH273650   2.336   5.334  16.813  0.1534  0.3993  0.2084
17412TIP3    H173651   2.385   5.264  16.855  1.8210  2.1696  1.3661
17412TIP3    H273652   2.384   5.351  16.732 -0.6922 -0.2459 -0.4567
17413TIP3   OH273653   4.348   5.852  15.238  0.0011  0.2527 -0.2653
17413TIP3    H173654   4.365   5.770  15.284  0.1486  0.5881  0.2865
17413TIP3    H273655   4.253   5.857  15.233 -0.1678  1.5958  2.5990
17414TIP3   OH273656   1.397   2.034  12.865 -0.3402 -0.2411 -0.0475
17414TIP3    H173657   1.480   2.071  12.835 -1.4487  2.5805  0.0542
17414TIP3    H273658   1.336   2.051  12.793 -1.2762 -0.4750  0.6708
17415TIP3   OH273659   4.172   3.829   5.617 -0.2676  0.3638  0.0084
17415TIP3    H173660   4.092   3.790   5.581  0.6144 -0.5728 -1.0159
17415TIP3    H273661   4.141   3.895   5.679 -1.8474  0.5882 -0.9595
17416TIP3   OH273662   1.076   5.869  16.794 -0.0656 -0.1191  0.3778
17416TIP3    H173663   1.057   5.890  16.702  0.7557  0.3863  0.3118
17416TIP3    H273664   1.017   5.925  16.844  0.2568  0.4218  0.1631
17417TIP3   OH273665   6.594   4.945   0.263  0.3777  0.1141 -0.0327
17417TIP3    H173666   6.501   4.942   0.239  0.2778 -0.5165  0.4048
17417TIP3    H273667   6.622   4.853   0.261  0.6656  0.1695  1.1034
17418TIP3   OH273668   1.907   3.125  16.626 -0.3095 -0.3070  0.4199
17418TIP3    H173669   1.984   3.182  16.631  0.3575 -1.1024 -0.5736
17418TIP3    H273670   1.867   3.147  16.542 -0.0588 -1.2687  0.0386
17419TIP3   OH273671   0.396   1.026  11.442  0.5866 -0.0470 -0.2192
17419TIP3    H173672   0.395   1.030  11.538  1.6442  1.3482 -0.2381
17419TIP3    H273673   0.396   0.932  11.422  0.2851 -0.3585  1.1385
17420TIP3   OH273674   1.134   0.884   2.576  0.0496 -0.1070  0.6315
17420TIP3    H173675   1.074   0.959   2.579 -0.0083 -0.0851 -0.5801
17420TIP3    H273676   1.136   0.852   2.666 -0.8252  0.6474  0.9420
17421TIP3   OH273677   3.678   6.780  15.900 -0.0652 -0.3194  0.2233
17421TIP3    H173678   3.741   6.845  15.868  0.3416  0.9267  3.2686
17421TIP3    H273679   3.732   6.715  15.945 -0.7566 -0.8913  0.2376
17422TIP3   OH273680   6.362   5.321  13.211  0.2249 -0.3731  0.0458
17422TIP3    H173681   6.389   5.254  13.274  0.1667 -1.4321 -1.0273
17422TIP3    H273682   6.413   5.302  13.133  2.4168  2.6407  0.5808
17423TIP3   OH273683   6.204   1.332   2.261 -0.0953  0.4727  0.2315
17423TIP3    H173684   6.236   1.293   2.180 -0.0521 -0.6265  0.7515
17423TIP3    H273685   6.262   1.297   2.329  1.2892  3.0882  0.5282
17424TIP3   OH273686   4.131   6.354  16.837 -0.2434 -0.0232 -0.3249
17424TIP3    H173687   4.198   6.300  16.878 -2.1856 -2.0453  0.4094
17424TIP3    H273688   4.118   6.315  16.751  0.5393  1.3130 -1.0807
17425TIP3   OH273689   1.132   6.686  14.950  0.1940 -0.3257  0.2082
17425TIP3    H173690   1.076   6.661  14.876  0.0340 -1.0330  0.5557
17425TIP3    H273691   1.080   6.751  14.997  0.6516  0.7662 -0.7613
17426TIP3   OH273692   0.651   0.636   3.748 -0.3925  0.0767  0.4357
17426TIP3    H173693   0.601   0.707   3.709  0.1453  0.2953  0.1399
17426TIP3    H273694   0.702   0.677   3.818 -0.1246 -0.0245  0.3027
17427TIP3   OH273695   1.488   4.557   4.917 -0.0505 -0.0386  0.1838
17427TIP3    H173696   1.420   4.582   4.979 -0.7303 -0.9194 -0.1876
17427TIP3    H273697   1.441   4.511   4.847  0.9365 -0.7508 -0.0289
17428TIP3   OH273698   5.438   1.341   2.481 -0.1491  0.6325  0.3514
17428TIP3    H173699   5.462   1.303   2.397 -0.8982  0.8081  0.0558
17428TIP3    H273700   5.429   1.265   2.540 -2.5231  0.2236 -0.4486
17429TIP3   OH273701   1.872   2.917  16.059  0.4908  0.2889 -0.1318
17429TIP3    H173702   1.873   2.917  15.963 -1.6236  1.7228 -0.2266
17429TIP3    H273703   1.785   2.884  16.081  0.2532  1.7365  1.2217
17430TIP3   OH273704   1.086   2.361  15.600 -0.3713  0.5135 -0.3681
17430TIP3    H173705   1.175   2.385  15.626 -0.5857  0.6729  0.2444
17430TIP3    H273706   1.097   2.294  15.533  0.2096  0.5689 -0.3296
17431TIP3   OH273707   0.023   0.864  13.378 -0.0462  0.4536 -0.3921
17431TIP3    H173708   0.013   0.878  13.283  2.9974  2.1055 -0.6173
17431TIP3    H273709   0.038   0.770  13.387 -2.7282 -0.1350 -1.1816
17432TIP3   OH273710   1.659   3.458   0.284 -0.4422  0.6628  0.0991
17432TIP3    H173711   1.746   3.488   0.310  0.5118 -1.0805 -0.8992
17432TIP3    H273712   1.601   3.490   0.353  1.1427  0.9461  1.3621
17433TIP3   OH273713   1.803   5.762  12.582  0.7054  0.0045  0.1441
17433TIP3    H173714   1.865   5.795  12.647 -0.5434 -0.6612  1.7345
17433TIP3    H273715   1.751   5.696  12.629  0.5982 -1.4655 -1.8801
17434TIP3   OH273716   3.788   0.131   0.373  0.1508 -0.5888 -0.4964
17434TIP3    H173717   3.731   0.059   0.349 -1.9939  0.3315  1.3914
17434TIP3    H273718   3.851   0.093   0.434 -1.6747 -0.7552  1.3931
17435TIP3   OH273719   1.042   4.274  16.491 -0.0825  0.2911  0.1200
17435TIP3    H173720   1.011   4.319  16.412  0.5761  0.1041 -0.2569
17435TIP3    H273721   0.996   4.191  16.491 -2.2924  1.4380  1.5162
17436TIP3   OH273722   5.677   0.042   2.787  0.2776  0.5367  0.0768
17436TIP3    H173723   5.620   0.025   2.712  0.2853  0.9497 -0.0242
17436TIP3    H273724   5.693   0.136   2.784  0.0579  0.5988  0.7611
17437TIP3   OH273725   3.431   5.157   1.281  0.5232 -0.3251  0.1252
17437TIP3    H173726   3.378   5.154   1.361 -0.1437 -0.3916 -0.3090
17437TIP3    H273727   3.397   5.232   1.233  1.2050 -0.0336  0.0956
17438TIP3   OH273728   0.063   4.979   2.348  0.7437  0.0267  0.3346
17438TIP3    H173729   0.088   4.948   2.261  0.1632  0.4191  0.0209
17438TIP3    H273730  -0.003   5.046   2.331  1.3228  0.7960  1.0333
17439TIP3   OH273731   1.145   1.058   5.554  0.0800  0.0069  0.4261
17439TIP3    H173732   1.189   1.036   5.472 -0.9023  0.1530 -0.1515
17439TIP3    H273733   1.079   0.990   5.565 -0.7407  0.7725  0.3557
17440TIP3   OH273734   2.585   6.769   2.580 -0.4265  0.4486 -0.0288
17440TIP3    H173735   2.614   6.714   2.508  0.0767  0.4437  0.1757
17440TIP3    H273736   2.533   6.838   2.538 -1.5572 -0.4952 -0.2302
17441TIP3   OH273737   3.964   2.683   0.197  0.0002 -0.4520 -0.1709
17441TIP3    H173738   4.020   2.614   0.160 -0.4286 -1.1676  0.4934
17441TIP3    H273739   3.982   2.681   0.291 -2.3929 -1.9085  0.3378
17442TIP3   OH273740   2.086   6.290   2.481 -0.1692  0.6592  0.3758
17442TIP3    H173741   2.013   6.232   2.504 -0.3509  0.9949  0.6522
17442TIP3    H273742   2.049   6.351   2.417 -0.4025  1.4438  1.2372
17443TIP3   OH273743   1.797   6.157   6.299  0.3607 -0.7169 -0.6229
17443TIP3    H173744   1.815   6.153   6.205  1.0293 -1.8747 -0.4631
17443TIP3    H273745   1.717   6.105   6.310  0.3255 -0.6455 -0.5429
17444TIP3   OH273746   2.657   5.766  11.317 -0.2056  0.0762 -0.1959
17444TIP3    H173747   2.564   5.762  11.292  0.1167  0.5919 -1.5309
17444TIP3    H273748   2.704   5.732  11.241  0.7477  0.4421  0.2123
17445TIP3   OH273749   2.879   6.554   6.350 -0.5452 -0.4329 -0.6789
17445TIP3    H173750   2.963   6.530   6.311 -0.6497 -1.9084 -0.0397
17445TIP3    H273751   2.863   6.488   6.417 -2.1286 -0.0554 -0.6411
17446TIP3   OH273752   2.847   3.462   2.173 -0.3156 -0.1163 -0.2976
17446TIP3    H173753   2.813   3.404   2.241  0.0226  0.8528  0.7278
17446TIP3    H273754   2.814   3.549   2.197 -0.0196  0.2734 -1.2653
17447TIP3   OH273755   3.993   6.783  11.672 -0.1848 -0.4474  0.1132
17447TIP3    H173756   3.970   6.875  11.689 -1.5807 -0.9063  0.9559
17447TIP3    H273757   3.965   6.768  11.582 -0.5706 -0.2168  0.1898
17448TIP3   OH273758   2.648   3.826   4.250 -0.0559  0.3488  0.1261
17448TIP3    H173759   2.630   3.770   4.174  0.8098 -0.1869  0.3010
17448TIP3    H273760   2.606   3.909   4.229 -0.8222 -0.1623 -0.4226
17449TIP3   OH273761   1.315   5.706  16.611 -0.5867  0.2611 -0.3842
17449TIP3    H173762   1.367   5.645  16.663 -1.4718  1.0127  1.4642
17449TIP3    H273763   1.317   5.669  16.523  0.9151 -1.1005  0.1608
17450TIP3   OH273764   0.912   3.192   3.915  0.0880 -0.3188 -0.4809
17450TIP3    H173765   0.891   3.237   3.833 -0.8183 -1.6379 -0.9955
17450TIP3    H273766   0.952   3.109   3.887 -0.9412 -1.1333  0.3692
17451TIP3   OH273767   2.426   1.963  11.125 -0.0977 -0.7048 -0.0633
17451TIP3    H173768   2.351   2.018  11.104  0.7385  0.8413  0.8511
17451TIP3    H273769   2.417   1.945  11.219  2.1814  2.0384  0.8169
17452TIP3   OH273770   3.330   6.460  15.153  0.4441  0.3399 -0.1172
17452TIP3    H173771   3.389   6.529  15.121  1.7846 -0.4694  0.5452
17452TIP3    H273772   3.375   6.379  15.133  0.3503 -0.2652  1.9316
17453TIP3   OH273773   6.268   1.332  12.821 -0.4834 -0.0389 -0.4187
17453TIP3    H173774   6.186   1.281  12.820 -0.2121 -0.5075 -2.7964
17453TIP3    H273775   6.268   1.379  12.738  0.8029  1.4346  0.3719
17454TIP3   OH273776   6.537   0.749  16.466  0.4121 -0.2557  0.7871
17454TIP3    H173777   6.517   0.683  16.533  1.1763 -0.9016  0.4069
17454TIP3    H273778   6.632   0.762  16.474  0.5170 -0.3726 -0.1951
17455TIP3   OH273779   5.839   4.659  14.794 -0.0079 -0.3604 -0.0317
17455TIP3    H173780   5.916   4.674  14.739  0.0567 -1.2901 -0.2127
17455TIP3    H273781   5.797   4.582  14.757  0.6656 -1.7215  1.8867
17456TIP3   OH273782   2.061   5.600  12.756  0.2025 -0.1758  0.5920
17456TIP3    H173783   2.148   5.640  12.768  0.0128  0.6978 -0.7486
17456TIP3    H273784   2.012   5.627  12.833  0.6512  0.6444  0.6055
17457TIP3   OH273785   3.166   0.602  10.894 -0.8303 -0.3984  0.2623
17457TIP3    H173786   3.078   0.573  10.872 -0.8957  1.0520 -1.6341
17457TIP3    H273787   3.219   0.579  10.817  0.6421 -1.8128  1.6058
17458TIP3   OH273788   5.290   2.938   1.732 -0.3493  0.1640 -0.0279
17458TIP3    H173789   5.343   2.983   1.666 -0.9719  0.3057 -0.4384
17458TIP3    H273790   5.351   2.924   1.805  0.2324  0.3938 -0.4538
17459TIP3   OH273791   4.938   2.449  12.197  0.0295  0.5592  0.1760
17459TIP3    H173792   4.923   2.542  12.184 -0.5113  0.9921  3.1304
17459TIP3    H273793   4.850   2.411  12.205  0.2269  0.3332  1.6977
17460TIP3   OH273794   0.086   2.851   6.484 -0.4219  0.2368  0.9203
17460TIP3    H173795   0.157   2.806   6.437 -0.6014 -0.1073  0.9708
17460TIP3    H273796   0.100   2.944   6.466 -0.2343  0.1394  0.5414
17461TIP3   OH273797   3.667   3.166   0.321 -0.1597  0.0288 -0.6235
17461TIP3    H173798   3.728   3.191   0.392 -1.8896  0.3498  0.8208
17461TIP3    H273799   3.698   3.081   0.292  2.7091  1.3902 -1.9805
17462TIP3   OH273800   0.762   0.188   2.893  0.1972 -0.0910 -0.4476
17462TIP3    H173801   0.790   0.225   2.976 -2.0739 -1.9985  1.3468
17462TIP3    H273802   0.830   0.124   2.870  1.7554  1.7270 -1.1083
17463TIP3   OH273803   0.919   0.150  16.442  0.0282 -0.4373  0.0730
17463TIP3    H173804   0.935   0.092  16.516  1.2086  1.0470  1.0145
17463TIP3    H273805   0.982   0.221  16.452 -1.9173  1.4894 -0.5512
17464TIP3   OH273806   0.747   5.374   1.573  0.0719 -0.4424 -0.7709
17464TIP3    H173807   0.765   5.395   1.665  1.9155 -0.0607 -1.1696
17464TIP3    H273808   0.820   5.318   1.547 -1.0504 -1.5363 -1.6985
17465TIP3   OH273809   6.425   5.501   3.639 -0.5109 -0.4235  0.3642
17465TIP3    H173810   6.435   5.494   3.544  2.1119 -0.9062  0.6004
17465TIP3    H273811   6.417   5.411   3.669  0.2567 -0.3851  0.7095
17466TIP3   OH273812   4.217   4.091   3.805  0.0148 -0.8588  0.7408
17466TIP3    H173813   4.199   4.000   3.783  0.2225 -0.9054  0.7685
17466TIP3    H273814   4.149   4.140   3.758  0.1096 -1.0012  0.4528
17467TIP3   OH273815   0.590   3.449  10.672 -0.0308 -0.1012 -0.1396
17467TIP3    H173816   0.588   3.415  10.582  0.7402 -1.8182  0.4536
17467TIP3    H273817   0.662   3.402  10.714  0.1847  1.3230  1.1481
17468TIP3   OH273818   1.467   6.704   3.743 -0.3177 -0.6566  0.6135
17468TIP3    H173819   1.453   6.644   3.817  1.4446  1.0376  2.4493
17468TIP3    H273820   1.394   6.765   3.749 -1.1171 -1.4994 -0.1537
17469TIP3   OH273821   1.031   5.926   0.160 -0.0070 -0.2107 -0.4887
17469TIP3    H173822   0.954   5.880   0.193 -1.3583  2.4744  0.4167
17469TIP3    H273823   1.030   5.912   0.066 -1.7513 -0.0643 -0.5187
17470TIP3   OH273824   0.058   2.182  14.333 -0.3226 -0.0056 -0.1489
17470TIP3    H173825  -0.035   2.176  14.309 -0.2603 -0.4928 -0.2846
17470TIP3    H273826   0.057   2.214  14.424 -0.5208  3.0978 -1.1398
17471TIP3   OH273827   3.456   1.839  13.899  0.4216  0.5222  0.0086
17471TIP3    H173828   3.508   1.781  13.956  0.7208 -0.0542 -0.8337
17471TIP3    H273829   3.514   1.858  13.826 -0.5225 -0.0546 -0.9095
17472TIP3   OH273830   3.299   0.998  11.715 -0.1334 -0.0960  0.8660
17472TIP3    H173831   3.380   1.032  11.678  1.0089 -2.6643  0.8004
17472TIP3    H273832   3.300   1.026  11.806  0.1877  0.9440  0.5484
17473TIP3   OH273833   4.894   3.028  15.220  0.2236  0.0377  0.0101
17473TIP3    H173834   4.905   3.088  15.146  1.3231 -0.7952 -0.5255
17473TIP3    H273835   4.799   3.026  15.235 -0.2589 -1.2666 -2.6591
17474TIP3   OH273836   1.640   1.825   5.661 -0.3215 -0.0386  0.1590
17474TIP3    H173837   1.687   1.865   5.588  1.8922 -1.3224  0.7928
17474TIP3    H273838   1.589   1.755   5.621  0.7137 -0.6027 -0.2173
17475TIP3   OH273839   4.429   1.084  14.339  0.1143 -0.1327 -0.3291
17475TIP3    H173840   4.372   1.009  14.350 -0.3398 -0.1396 -2.3491
17475TIP3    H273841   4.413   1.114  14.249  1.4522  1.3941 -0.1143
17476TIP3   OH273842   5.812   4.405   5.943 -0.4889 -0.3254 -0.6920
17476TIP3    H173843   5.892   4.454   5.959  0.2229 -2.0330  1.5769
17476TIP3    H273844   5.841   4.323   5.904 -1.0027 -1.1433  0.5425
17477TIP3   OH273845   5.892   3.006   0.183 -0.2672  0.3209 -0.0009
17477TIP3    H173846   5.969   2.981   0.235  0.8048  0.5976 -1.4001
17477TIP3    H273847   5.820   3.006   0.246  0.7566 -0.5463  1.2308
17478TIP3   OH273848   5.140   2.340   6.106 -0.3601 -0.2097  0.2174
17478TIP3    H173849   5.121   2.402   6.177 -1.7453 -0.9135  0.4870
17478TIP3    H273850   5.230   2.361   6.081 -0.0872  0.5610  1.6738
17479TIP3   OH273851   0.800   3.323   3.697 -0.6133 -0.1136 -0.5434
17479TIP3    H173852   0.745   3.301   3.622 -0.4010  1.7453 -1.3026
17479TIP3    H273853   0.851   3.398   3.668  0.9636 -0.6048  0.8006
17480TIP3   OH273854   2.235   4.411  15.135  0.1788 -0.3862  0.0666
17480TIP3    H173855   2.312   4.451  15.096 -1.0505 -0.0111 -2.1300
17480TIP3    H273856   2.249   4.418  15.230  2.2119  0.8198 -0.2745
17481TIP3   OH273857   6.008   0.625   0.389 -0.0388  0.2872 -0.4136
17481TIP3    H173858   6.008   0.618   0.485  0.8259 -0.6598 -0.4730
17481TIP3    H273859   6.000   0.535   0.358  1.6055  0.3808 -1.2210
17482TIP3   OH273860   3.560   6.544  13.616  0.0372 -0.6669 -0.0276
17482TIP3    H173861   3.543   6.611  13.550  1.9161 -0.5393 -0.4420
17482TIP3    H273862   3.498   6.563  13.687  1.3827  2.3851  0.4741
17483TIP3   OH273863   2.689   2.948  16.376 -0.2575  0.1497 -0.0027
17483TIP3    H173864   2.779   2.973  16.355 -0.2489  0.5348  0.4825
17483TIP3    H273865   2.684   2.954  16.471 -0.3059 -1.5701  0.1389
17484TIP3   OH273866   2.294   4.417  12.135  0.6502 -0.4091 -0.6815
17484TIP3    H173867   2.337   4.500  12.112  2.0866 -0.3584  1.8381
17484TIP3    H273868   2.333   4.353  12.076  3.5711 -0.1680  0.8303
17485TIP3   OH273869   3.794   4.760   4.471  0.0606  0.5426  0.4578
17485TIP3    H173870   3.713   4.721   4.437 -0.2388  0.8140  0.8569
17485TIP3    H273871   3.832   4.807   4.397  0.3506 -0.3774  0.0049
17486TIP3   OH273872   0.344   1.817  15.574  0.0143 -0.2290 -0.1544
17486TIP3    H173873   0.313   1.756  15.507 -1.1530  1.0027 -0.7789
17486TIP3    H273874   0.335   1.904  15.533  0.2125  0.4738  1.2486
17487TIP3   OH273875   2.698   0.530   4.705  0.1817  0.1703  0.8734
17487TIP3    H173876   2.756   0.455   4.719 -0.3996 -0.4509  0.0937
17487TIP3    H273877   2.614   0.491   4.682  0.1124  1.0511 -0.4905
17488TIP3   OH273878   0.180   4.284   3.611 -0.0775 -0.1113  0.3233
17488TIP3    H173879   0.214   4.362   3.566  0.8716 -0.2894  0.7153
17488TIP3    H273880   0.198   4.300   3.703  0.2633 -0.8666  0.3903
17489TIP3   OH273881   4.409   6.415  11.091  0.0335  0.0576  0.0809
17489TIP3    H173882   4.446   6.447  11.009  1.7079 -0.2663  0.6567
17489TIP3    H273883   4.336   6.359  11.065 -0.7374  1.5541 -1.0695
17490TIP3   OH273884   0.415   4.035   4.665  0.3253 -0.5152  0.4054
17490TIP3    H173885   0.403   3.941   4.651 -1.4971 -0.4239  1.0363
17490TIP3    H273886   0.389   4.049   4.756 -0.9708  0.8099 -0.1270
17491TIP3   OH273887   2.574   6.581   5.810 -0.2747 -0.4471 -0.7106
17491TIP3    H173888   2.586   6.517   5.739  1.3562 -1.7099  0.6214
17491TIP3    H273889   2.555   6.528   5.887  0.2306  0.7359  0.2546
17492TIP3   OH273890   4.156   3.206  15.523  0.7630 -0.1608  0.2357
17492TIP3    H173891   4.173   3.282  15.468  0.0184 -1.3066 -1.6437
17492TIP3    H273892   4.225   3.209  15.590  2.3074  0.7468 -1.3235
17493TIP3   OH273893   6.235   1.237   6.474 -0.4422  0.3612 -0.5537
17493TIP3    H173894   6.199   1.151   6.495 -0.8353  0.0083 -2.4558
17493TIP3    H273895   6.160   1.296   6.477 -0.1871  0.6581  0.6671
17494TIP3   OH273896   6.516   0.999   0.451 -0.2717  0.3290 -0.1970
17494TIP3    H173897   6.470   0.955   0.380 -0.4551  0.0406  0.0976
17494TIP3    H273898   6.463   1.075   0.470 -2.2309 -1.4600  2.0464
17495TIP3   OH273899   5.263   3.253   4.133 -0.3265  0.0658 -0.2024
17495TIP3    H173900   5.176   3.281   4.164 -1.1562 -0.9131 -1.5126
17495TIP3    H273901   5.307   3.222   4.211 -0.1852  2.8197  0.9447
17496TIP3   OH273902   2.332   3.657   2.630  0.1682 -0.4777 -0.2158
17496TIP3    H173903   2.279   3.578   2.633  0.0212 -0.3949 -0.6523
17496TIP3    H273904   2.280   3.723   2.676 -0.8143  0.0248 -1.9898
17497TIP3   OH273905   0.957   0.634  12.604  0.0715 -0.2278  0.2067
17497TIP3    H173906   0.926   0.626  12.514  0.0701 -1.2499  0.2858
17497TIP3    H273907   1.052   0.628  12.597  0.1969  1.4537  0.1111
17498TIP3   OH273908   3.381   2.030   4.833 -0.0506 -0.0148 -0.0957
17498TIP3    H173909   3.383   2.084   4.912  0.3900  1.1362 -0.8733
17498TIP3    H273910   3.389   1.940   4.865  2.8770  0.5354  1.0694
17499TIP3   OH273911   6.267   2.173  14.162 -0.3118 -0.9086  0.0146
17499TIP3    H173912   6.185   2.146  14.121 -0.2233 -0.5120 -0.4331
17499TIP3    H273913   6.269   2.268  14.153 -0.0907 -0.8532  0.5765
17500TIP3   OH273914   2.798   5.521   5.273 -0.2903  0.1559 -0.0137
17500TIP3    H173915   2.862   5.555   5.211 -1.9893 -1.9161 -3.1807
17500TIP3    H273916   2.721   5.577   5.263 -1.3877 -1.5151 -1.6719
17501TIP3   OH273917   2.937   0.684   2.157 -0.4171 -0.1021  0.7689
17501TIP3    H173918   2.971   0.771   2.178  0.9104 -1.0480  2.9055
17501TIP3    H273919   3.007   0.643   2.106 -0.6207 -0.2447  0.6048
17502TIP3   OH273920   3.241   3.006  12.293  0.1549 -0.3549  0.4128
17502TIP3    H173921   3.266   2.946  12.223 -0.5469 -0.6490  0.4105
17502TIP3    H273922   3.203   2.950  12.361  0.8947 -0.0863  1.0711
17503TIP3   OH273923   0.924   0.854   3.432 -0.0962  0.5968  0.0765
17503TIP3    H173924   0.885   0.942   3.430  0.7169  0.9746  0.3095
17503TIP3    H273925   0.927   0.832   3.525  1.2374  1.0436  0.1617
17504TIP3   OH273926   5.736   0.515  15.637  0.4592  0.0052 -0.1304
17504TIP3    H173927   5.718   0.601  15.598 -1.6411 -0.4548 -0.2573
17504TIP3    H273928   5.707   0.452  15.571 -1.3765 -0.7917  1.3616
17505TIP3   OH273929   0.454   4.036   4.290 -0.8001  0.1496  0.4960
17505TIP3    H173930   0.427   4.088   4.214 -0.5413 -0.2058  0.1591
17505TIP3    H273931   0.380   3.978   4.307 -1.1733  0.7492  0.9968
17506TIP3   OH273932   5.854   6.150   3.813 -0.1085  0.2636 -0.0663
17506TIP3    H173933   5.889   6.172   3.727 -1.1658 -1.0134 -0.8656
17506TIP3    H273934   5.764   6.122   3.796 -0.1601 -0.5682  1.3648
17507TIP3   OH273935   1.389   5.893  11.330  0.5527  0.4122 -0.2407
17507TIP3    H173936   1.418   5.801  11.335 -1.5045 -0.4721 -2.6815
17507TIP3    H273937   1.373   5.917  11.421 -0.1664 -2.1463  0.4139
17508TIP3   OH273938   4.361   1.558   4.295  0.3254  0.0617 -0.5016
17508TIP3    H173939   4.386   1.480   4.344 -0.3264  0.3231  0.2791
17508TIP3    H273940   4.302   1.605   4.354  0.6912  1.1329 -0.9611
17509TIP3   OH273941   3.001   5.907   5.209  0.2026 -0.8266  0.1663
17509TIP3    H173942   2.937   5.959   5.258 -2.2640 -0.7279 -2.8297
17509TIP3    H273943   3.076   5.965   5.196 -2.0985  1.9143 -2.3476
17510TIP3   OH273944   1.440   2.313  16.215  0.2091 -0.3961  0.7975
17510TIP3    H173945   1.440   2.407  16.199  0.1600  0.1965  3.7868
17510TIP3    H273946   1.433   2.274  16.128  3.1175  2.2654 -0.8165
17511TIP3   OH273947   0.107   3.842   2.220 -0.0973  0.3784 -0.5064
17511TIP3    H173948   0.195   3.872   2.197  0.6838 -1.9036 -0.7808
17511TIP3    H273949   0.050   3.885   2.156  0.9591  1.0323 -1.0432
17512TIP3   OH273950   5.553   3.213  15.481  0.7679  0.4508 -0.4325
17512TIP3    H173951   5.637   3.247  15.451  1.8201  0.2317  2.0098
17512TIP3    H273952   5.559   3.118  15.465 -0.1080  0.6934 -2.5625
17513TIP3   OH273953   1.533   5.436  16.285  0.3343  0.1079 -0.0183
17513TIP3    H173954   1.560   5.512  16.336  1.8675  0.5038 -1.3589
17513TIP3    H273955   1.497   5.376  16.350  1.7344  0.8113  1.4799
17514TIP3   OH273956   3.685   6.679  11.753  0.3427 -0.1066  0.0063
17514TIP3    H173957   3.731   6.672  11.669  0.5955 -0.1851  0.1519
17514TIP3    H273958   3.696   6.771  11.778 -1.9689  0.6401 -1.3201
17515TIP3   OH273959   5.019   0.303  15.791  0.1177 -0.5830 -0.6813
17515TIP3    H173960   5.087   0.368  15.808  0.0744 -0.1200 -2.1453
17515TIP3    H273961   5.046   0.260  15.710 -1.9634  0.5280 -2.0509
17516TIP3   OH273962   2.399   3.091   2.964 -0.0270  0.1036  0.4619
17516TIP3    H173963   2.445   3.017   2.925 -1.6310 -0.2557 -0.8838
17516TIP3    H273964   2.340   3.121   2.895  0.1479  2.2841  1.1629
17517TIP3   OH273965   1.736   5.642  17.050 -0.3238 -0.3253 -0.0623
17517TIP3    H173966   1.646   5.619  17.071 -1.1579  2.1117 -0.6263
17517TIP3    H273967   1.761   5.706  17.117  0.6550 -0.2657 -0.4549
17518TIP3   OH273968   5.685   3.080  12.133  0.0850  0.3997 -0.3029
17518TIP3    H173969   5.685   3.010  12.067 -2.6795  0.0699 -0.1084
17518TIP3    H273970   5.768   3.070  12.179  0.9578 -0.9980 -2.0537
17519TIP3   OH273971   5.285   4.956  16.535 -0.1598 -0.3092 -0.0178
17519TIP3    H173972   5.280   4.931  16.627  2.5693  0.5958  0.4629
17519TIP3    H273973   5.315   5.047  16.536  0.0877 -0.3397 -1.7909
17520TIP3   OH273974   1.586   2.521   0.410 -0.0679 -0.0005 -0.3670
17520TIP3    H173975   1.680   2.507   0.399 -0.1024  0.0782 -0.7796
17520TIP3    H273976   1.557   2.559   0.327 -0.0590  2.1354  0.5397
17521TIP3   OH273977   6.624   2.169  12.104  0.7311 -0.2880 -0.2911
17521TIP3    H173978   6.573   2.101  12.149 -0.5944 -0.3179 -1.7582
17521TIP3    H273979   6.675   2.121  12.039  1.1923 -0.0460 -0.1161
17522TIP3   OH273980   5.761   4.399   1.219 -0.0070 -0.8107 -0.5937
17522TIP3    H173981   5.853   4.403   1.246 -0.0106 -0.6700 -0.6020
17522TIP3    H273982   5.729   4.318   1.257 -0.0467 -0.5499 -0.0621
17523TIP3   OH273983   0.910   4.893   6.820 -0.3774 -0.2806 -0.4435
17523TIP3    H173984   0.985   4.881   6.763 -1.1598  0.8254 -1.7542
17523TIP3    H273985   0.879   4.981   6.802 -1.6096 -0.4764  0.5437
17524TIP3   OH273986   2.476   1.681  12.696 -0.4665 -0.5232  0.4135
17524TIP3    H173987   2.460   1.591  12.726 -0.6333 -0.7702 -0.3970
17524TIP3    H273988   2.391   1.711  12.664 -0.2505 -0.3247  0.0270
17525TIP3   OH273989   3.115   0.327  14.284  0.8959 -0.0603  0.6374
17525TIP3    H173990   3.206   0.336  14.253  0.9977 -1.1984  0.5566
17525TIP3    H273991   3.113   0.241  14.326  0.2487  0.6275  2.0688
17526TIP3   OH273992   6.452   0.245   5.437  0.0760 -0.2123 -0.3136
17526TIP3    H173993   6.536   0.228   5.394  0.3639 -2.0487  0.8937
17526TIP3    H273994   6.420   0.159   5.462 -1.5209  0.5787  0.4920
17527TIP3   OH273995   3.073   2.435   1.921 -0.0732 -0.9110  0.5405
17527TIP3    H173996   3.133   2.509   1.917  3.1966 -3.4229 -1.8362
17527TIP3    H273997   3.032   2.443   2.008  0.1751  3.4295  0.5020
17528TIP3   OH273998   5.777   0.269  17.119  0.1977 -0.2996  0.2651
17528TIP3    H173999   5.860   0.275  17.166  0.8429  0.0113 -0.8835
17528TIP3    H274000   5.715   0.317  17.174  1.2304  1.2072  0.1714
17529TIP3   OH274001   1.404   2.796  17.108 -0.6818 -0.1633 -0.3398
17529TIP3    H174002   1.318   2.836  17.101 -0.0544  1.2285 -0.3975
17529TIP3    H274003   1.388   2.703  17.093 -2.1087  0.1198 -0.7530
17530TIP3   OH274004   5.803   4.434   2.049  0.1274  0.3232  0.6675
17530TIP3    H174005   5.776   4.524   2.032 -1.9222 -0.4119 -0.1993
17530TIP3    H274006   5.828   4.433   2.142 -2.0075  1.2985  1.3025
17531TIP3   OH274007   5.162   0.093   6.670  1.1216 -0.1802  0.4768
17531TIP3    H174008   5.138   0.164   6.730  0.9617 -0.3538  0.6216
17531TIP3    H274009   5.083   0.079   6.618  1.7655  1.0852 -0.9180
17532TIP3   OH274010   5.263   3.356   0.043  0.0192 -0.1736  0.1897
17532TIP3    H174011   5.170   3.347   0.060  0.5098 -0.1697  3.3503
17532TIP3    H274012   5.298   3.267   0.051  0.5147  0.0673  0.7757
17533TIP3   OH274013   0.241   5.692   5.576  0.5649 -0.3499  0.1822
17533TIP3    H174014   0.331   5.720   5.561  0.5694  0.0929  0.9253
17533TIP3    H274015   0.245   5.643   5.659 -0.0532  0.7197  0.8749
17534TIP3   OH274016   6.705   0.347   5.922 -0.3905  0.6141  0.1226
17534TIP3    H174017   6.671   0.401   5.994 -1.5289  0.3431 -0.1927
17534TIP3    H274018   6.627   0.314   5.878  0.2872  0.8700 -1.3257
17535TIP3   OH274019   1.151   5.940  14.191  0.4177 -0.6476 -0.4021
17535TIP3    H174020   1.227   5.986  14.229  0.1398 -0.9228  0.4929
17535TIP3    H274021   1.182   5.912  14.105  0.1638  2.4676 -1.6458
17536TIP3   OH274022   5.983   5.662  15.809 -0.7679  0.0822  0.2227
17536TIP3    H174023   5.963   5.636  15.899 -0.9805 -1.6037 -0.2660
17536TIP3    H274024   5.937   5.745  15.797 -2.0250 -0.4346  1.2052
17537TIP3   OH274025   2.329   3.025  14.867 -0.0502  0.0991 -0.2897
17537TIP3    H174026   2.362   2.962  14.803 -1.0623 -0.8365  0.0791
17537TIP3    H274027   2.398   3.030  14.934  1.0184  1.0844 -1.4113
17538TIP3   OH274028   3.546   1.458  12.719 -0.2491  0.2950  0.1248
17538TIP3    H174029   3.490   1.523  12.763 -0.6147 -0.9566  1.5996
17538TIP3    H274030   3.635   1.490  12.732 -0.4152  0.4463  0.9594
17539TIP3   OH274031   0.989   5.227   4.119  0.0287 -0.6153 -0.3070
17539TIP3    H174032   0.916   5.201   4.063  0.6366 -1.1143 -0.8740
17539TIP3    H274033   0.959   5.208   4.208  0.3136 -2.9895 -0.6569
17540TIP3   OH274034   5.946   1.571  13.967  0.5507  0.0359 -0.4059
17540TIP3    H174035   5.993   1.537  13.891  3.1718  1.3379  0.4943
17540TIP3    H274036   6.015   1.594  14.029 -1.5028 -2.3589  3.0754
17541TIP3   OH274037   4.429   0.922  11.920 -0.2654 -0.2349  1.0244
17541TIP3    H174038   4.363   0.970  11.870 -0.1368  0.5379  1.5837
17541TIP3    H274039   4.386   0.899  12.002 -0.6896 -2.0816  0.3504
17542TIP3   OH274040   6.576   0.541  12.883 -0.1226 -0.2140  0.3121
17542TIP3    H174041   6.636   0.470  12.858  0.0812  0.3207 -0.7845
17542TIP3    H274042   6.528   0.561  12.802 -1.4466 -0.3008  1.0542
17543TIP3   OH274043   5.296   4.392   5.441  0.2955 -0.1659  0.0182
17543TIP3    H174044   5.312   4.479   5.404  1.0315 -1.2486 -2.3521
17543TIP3    H274045   5.321   4.401   5.533  2.2061  1.6458 -0.5885
17544TIP3   OH274046   0.584   2.620  15.507  0.1144 -0.6659 -0.5799
17544TIP3    H174047   0.546   2.569  15.435 -1.1473  1.2607 -1.3528
17544TIP3    H274048   0.514   2.679  15.534  1.3059  0.2057  0.7368
17545TIP3   OH274049   5.976   4.375  14.843  0.3087 -0.0617 -0.0312
17545TIP3    H174050   5.895   4.330  14.820  1.1484 -1.7698  0.2164
17545TIP3    H274051   5.948   4.450  14.896 -1.1159 -0.4435 -0.2073
17546TIP3   OH274052   5.685   2.951  16.560 -0.0995  0.2397 -0.0518
17546TIP3    H174053   5.611   2.956  16.499  1.0209  1.0356 -1.4012
17546TIP3    H274054   5.741   3.024  16.536  2.0683 -1.4059 -0.3491
17547TIP3   OH274055   5.191   5.548   3.276  0.3123  0.7205  0.2462
17547TIP3    H174056   5.286   5.554   3.282  0.1931  1.8090  1.3831
17547TIP3    H274057   5.174   5.458   3.248  1.5860 -0.2493  2.4231
17548TIP3   OH274058   6.056   5.194   2.409 -0.0343 -0.2477 -0.4595
17548TIP3    H174059   5.971   5.153   2.392 -0.4685  0.1513  0.6364
17548TIP3    H274060   6.050   5.279   2.367  0.0080 -0.3977 -0.7773
17549TIP3   OH274061   1.985   4.538  15.101  0.3352  0.1526  0.0351
17549TIP3    H174062   2.073   4.503  15.117  1.2664  2.4203  0.2592
17549TIP3    H274063   1.990   4.577  15.014 -0.7903 -0.5740 -0.3791
17550TIP3   OH274064   3.669   0.807   4.885  0.0491 -0.3998 -0.2616
17550TIP3    H174065   3.607   0.865   4.929 -1.5964 -1.1328 -1.5275
17550TIP3    H274066   3.747   0.861   4.871 -0.4316  0.6673  0.9892
17551TIP3   OH274067   3.419   4.708  14.297 -0.2390 -0.2507  0.1376
17551TIP3    H174068   3.429   4.613  14.306  0.2283 -0.3142 -0.8908
17551TIP3    H274069   3.372   4.735  14.376 -1.7945 -1.5612 -0.2762
17552TIP3   OH274070   5.455   4.213   5.333 -0.7024  0.0267  0.3072
17552TIP3    H174071   5.419   4.190   5.248  0.7677 -1.0384 -0.0785
17552TIP3    H274072   5.396   4.279   5.368 -0.2163  2.0818 -2.4508
17553TIP3   OH274073   2.550   2.114  14.307  0.2854  0.1802  0.1188
17553TIP3    H174074   2.461   2.113  14.274  0.2419  0.6464  0.2170
17553TIP3    H274075   2.596   2.176  14.250  0.1094  1.3140  1.1647
17554TIP3   OH274076   5.101   3.515   5.658 -0.0107  0.4651  0.0738
17554TIP3    H174077   5.134   3.602   5.635 -0.3877  0.9484  1.3077
17554TIP3    H274078   5.072   3.523   5.748  2.3112 -1.5983  1.1423
17555TIP3   OH274079   3.034   3.183   0.590  0.2202 -0.3059  0.2318
17555TIP3    H174080   3.060   3.275   0.597 -0.7296  0.0374 -0.6013
17555TIP3    H274081   3.004   3.161   0.678  1.9737 -0.3273  0.8782
17556TIP3   OH274082   5.221   0.445   1.448  0.1658  0.1902  0.1028
17556TIP3    H174083   5.173   0.408   1.522  0.5439 -0.0689  0.2211
17556TIP3    H274084   5.294   0.492   1.488 -1.3066  2.6674  0.0844
17557TIP3   OH274085   0.152   2.253   2.422 -0.6236 -0.0197 -0.2510
17557TIP3    H174086   0.076   2.307   2.401 -1.0607 -0.3091  0.5085
17557TIP3    H274087   0.222   2.315   2.441 -0.7210  0.2526 -0.7902
17558TIP3   OH274088   1.152   1.566   2.529 -0.6746  0.2474 -0.4908
17558TIP3    H174089   1.177   1.475   2.513 -2.1636 -0.0358 -1.4336
17558TIP3    H274090   1.235   1.614   2.535  0.1157 -1.1071 -0.3583
17559TIP3   OH274091   6.301   6.562  14.820 -0.7161 -0.0818  0.0806
17559TIP3    H174092   6.274   6.581  14.731  0.1349  1.4459  0.1090
17559TIP3    H274093   6.372   6.500  14.811  1.3752  2.2424 -0.5736
17560TIP3   OH274094   2.929   2.030  15.804  0.5751 -0.3286 -0.3722
17560TIP3    H174095   2.875   2.060  15.730 -0.5980 -0.8876  0.2400
17560TIP3    H274096   2.953   1.941  15.781  0.7233 -0.2946 -0.3514
17561TIP3   OH274097   0.061   6.096  14.227  0.0855  0.8343  0.1637
17561TIP3    H174098   0.082   6.022  14.170 -0.0520  0.0525  1.1195
17561TIP3    H274099   0.081   6.066  14.315 -1.3805  1.4130  0.7241
17562TIP3   OH274100   2.348   1.861   3.357  0.5909 -0.3282 -0.2849
17562TIP3    H174101   2.302   1.789   3.399 -1.3916  0.2820 -1.3070
17562TIP3    H274102   2.394   1.820   3.283 -1.7906 -0.4010 -1.8128
17563TIP3   OH274103   3.746   1.647  13.022  0.2196 -0.3331 -0.1907
17563TIP3    H174104   3.722   1.570  13.074  1.0367  0.5135  1.5335
17563TIP3    H274105   3.841   1.654  13.032  0.0460  1.3946  0.4330
17564TIP3   OH274106   1.189   5.417   3.167 -0.0967  0.0717 -0.6828
17564TIP3    H174107   1.272   5.465   3.175  0.2815 -0.8586  1.7123
17564TIP3    H274108   1.131   5.458   3.232 -0.6961 -0.8902 -0.5972
17565TIP3   OH274109   4.801   3.081   2.899 -0.0210  0.5896  0.3966
17565TIP3    H174110   4.721   3.073   2.950 -0.9925 -1.0978 -1.2645
17565TIP3    H274111   4.852   3.003   2.920 -0.3212 -0.0026 -0.9411
17566TIP3   OH274112   5.987   1.432   2.946  0.4895 -0.4460 -0.0419
17566TIP3    H174113   6.035   1.449   2.866 -1.4068 -1.5512 -1.5044
17566TIP3    H274114   5.906   1.483   2.937  1.1656  1.2057  2.2378
17567TIP3   OH274115   0.811   2.626  12.678  0.2705 -0.2791  0.4493
17567TIP3    H174116   0.835   2.571  12.603 -0.2776 -0.5070  0.4389
17567TIP3    H274117   0.891   2.632  12.730  0.3926 -0.9272  0.3476
17568TIP3   OH274118   4.119   0.871   1.210 -0.4375  0.5418 -0.3571
17568TIP3    H174119   4.174   0.943   1.181  2.1022 -0.7873  0.8221
17568TIP3    H274120   4.084   0.900   1.294  0.0045  0.6722 -0.2168
17569TIP3   OH274121   5.012   0.900  13.987  0.0100 -0.2481 -0.1053
17569TIP3    H174122   4.919   0.889  13.967 -0.0753 -1.0280  0.6622
17569TIP3    H274123   5.051   0.815  13.967  0.0081 -0.9189  2.4205
17570TIP3   OH274124   5.355   2.188   3.448 -0.3687  0.0603 -0.2005
17570TIP3    H174125   5.280   2.133   3.425  1.1303 -1.6302 -1.3525
17570TIP3    H274126   5.402   2.201   3.365  0.0403  2.0355  0.2824
17571TIP3   OH274127   1.737   1.556   0.101 -0.0407 -0.2480  0.3280
17571TIP3    H174128   1.758   1.617   0.172 -1.3976 -0.2306  0.7411
17571TIP3    H274129   1.710   1.612   0.029  0.6891 -0.2964  0.0036
17572TIP3   OH274130   0.091   0.340   3.797  0.3923 -0.1159 -0.0756
17572TIP3    H174131   0.117   0.318   3.707  0.7169  0.2708 -0.0785
17572TIP3    H274132   0.144   0.282   3.851  2.0521  1.3607 -0.0390
17573TIP3   OH274133   5.774   0.530   2.437  0.4667  0.0195 -0.2340
17573TIP3    H174134   5.767   0.577   2.354  1.8876  2.1943  0.7940
17573TIP3    H274135   5.755   0.596   2.504 -2.6428 -2.0912  1.2161
17574TIP3   OH274136   6.760   4.224  13.109  0.4258 -0.4434 -0.0931
17574TIP3    H174137   6.722   4.186  13.029 -1.1212 -3.0109  1.7196
17574TIP3    H274138   6.687   4.231  13.170  1.8716 -0.2968  1.7256
17575TIP3   OH274139   1.853   1.061  12.871 -0.4426  0.5273 -1.1844
17575TIP3    H174140   1.890   0.983  12.911  0.4083  1.4769 -0.0110
17575TIP3    H274141   1.885   1.061  12.781  1.0867  0.4644 -0.6662
17576TIP3   OH274142   4.691   0.792  11.462  0.0390 -0.4071 -0.8686
17576TIP3    H174143   4.738   0.816  11.542  1.1097  0.3966 -1.7075
17576TIP3    H274144   4.687   0.874  11.411 -1.1050 -0.7766 -1.4036
17577TIP3   OH274145   0.191   0.273  11.498  0.0259  0.0952  0.2530
17577TIP3    H174146   0.120   0.239  11.445 -0.3689 -0.2954  1.0149
17577TIP3    H274147   0.238   0.333  11.440 -1.1607  0.6726 -0.1338
17578TIP3   OH274148   0.553   6.326  12.695 -0.0490  0.1374  0.4165
17578TIP3    H174149   0.532   6.347  12.605  1.2748 -1.2119 -0.2550
17578TIP3    H274150   0.646   6.347  12.704 -0.3966  1.2788  1.8106
17579TIP3   OH274151   6.037   4.775   2.185  0.0669  0.1400 -0.3656
17579TIP3    H174152   5.967   4.841   2.183 -0.2402 -0.1936 -0.9369
17579TIP3    H274153   6.060   4.761   2.093  0.8973  0.2513 -0.1827
17580TIP3   OH274154   0.466   5.955   4.221  0.2631  0.6614  0.8144
17580TIP3    H174155   0.561   5.951   4.232  0.5619  1.6898 -1.0122
17580TIP3    H274156   0.449   5.909   4.139 -0.7201  1.2306  0.6809
17581TIP3   OH274157   0.185   5.441  16.104  0.0286  0.1276  0.5150
17581TIP3    H174158   0.221   5.352  16.092 -0.6265 -0.1302  0.4486
17581TIP3    H274159   0.202   5.461  16.196 -1.6663 -0.9041  1.0970
17582TIP3   OH274160   5.467   4.018   2.771  0.3289  0.3220  0.1973
17582TIP3    H174161   5.373   4.001   2.763  0.7113 -1.7237 -0.3120
17582TIP3    H274162   5.490   4.063   2.689 -0.1664  0.7509  0.2835
17583TIP3   OH274163   4.662   5.879  15.233 -0.3165  0.2146  0.1933
17583TIP3    H174164   4.720   5.809  15.261 -0.2529 -0.4825 -1.5524
17583TIP3    H274165   4.574   5.847  15.254 -0.3114 -0.5770 -0.9221
17584TIP3   OH274166   4.428   3.710   0.846  0.4413  0.0509  0.1441
17584TIP3    H174167   4.460   3.781   0.791 -0.3645  0.4936  0.2304
17584TIP3    H274168   4.373   3.657   0.788 -0.8390  0.8145  0.6156
17585TIP3   OH274169   6.242   2.499   0.542  0.3132  0.3717 -0.2895
17585TIP3    H174170   6.181   2.427   0.559  0.7040  0.2628  0.7480
17585TIP3    H274171   6.220   2.529   0.454 -1.6435  0.7240  0.2752
17586TIP3   OH274172   1.581   6.790   4.246  0.1122 -0.7850  0.2146
17586TIP3    H174173   1.586   6.870   4.297 -0.3952 -0.9530  0.5398
17586TIP3    H274174   1.668   6.751   4.252  0.3935 -0.2146 -0.0308
17587TIP3   OH274175   2.570   5.672   5.194  0.9961  0.2585 -0.0117
17587TIP3    H174176   2.555   5.740   5.128 -1.2414 -0.6042 -0.4819
17587TIP3    H274177   2.521   5.701   5.271  0.1467 -0.6854 -0.1666
17588TIP3   OH274178   5.263   6.411   5.371 -0.2731 -1.0284  0.0763
17588TIP3    H174179   5.226   6.378   5.453 -2.9160  0.1849 -0.5346
17588TIP3    H274180   5.332   6.471   5.398 -0.2426 -1.6096  1.3640
17589TIP3   OH274181   3.253   4.221   5.412 -0.2961 -0.2743 -0.5888
17589TIP3    H174182   3.219   4.276   5.482  0.5896 -1.2348  0.6402
17589TIP3    H274183   3.176   4.173   5.380 -0.2902 -2.0735  1.8224
17590TIP3   OH274184   1.742   0.341  12.975 -0.1289 -0.3517  0.1714
17590TIP3    H174185   1.657   0.379  12.996 -0.2517 -0.8347  0.5680
17590TIP3    H274186   1.795   0.355  13.053  0.3372  0.4365 -0.2737
17591TIP3   OH274187   6.314   1.265   1.589 -0.1057 -0.1886  0.0371
17591TIP3    H174188   6.306   1.307   1.504 -1.1291 -1.3672 -0.4882
17591TIP3    H274189   6.271   1.180   1.578  2.4691 -1.7350  0.7931
17592TIP3   OH274190   1.130   6.113  13.780 -0.0477 -0.3510  0.7286
17592TIP3    H174191   1.194   6.092  13.712  0.2005 -0.5453  1.0271
17592TIP3    H274192   1.099   6.201  13.756 -2.1159 -1.5376 -1.3266
17593TIP3   OH274193   6.347   5.563  14.493  0.4450 -0.5185  0.2189
17593TIP3    H174194   6.294   5.497  14.447 -0.9855 -0.2041  1.3574
17593TIP3    H274195   6.437   5.539  14.472 -0.0607 -2.3484 -0.0687
17594TIP3   OH274196   3.522   4.173  14.365 -0.1489 -0.2948 -0.3564
17594TIP3    H174197   3.486   4.213  14.286 -1.2570 -1.0529 -0.2637
17594TIP3    H274198   3.450   4.120  14.400  0.3251  0.0188  1.1591
17595TIP3   OH274199   6.366   2.502   5.798 -0.4015 -0.5516 -0.4413
17595TIP3    H174200   6.279   2.532   5.823 -0.2223 -0.2062 -0.2311
17595TIP3    H274201   6.378   2.420   5.845  0.8482  1.1924  2.5223
17596TIP3   OH274202   4.130   4.164   2.372 -0.1711  0.2893  0.4233
17596TIP3    H174203   4.212   4.118   2.392 -0.0468  0.4952  0.3925
17596TIP3    H274204   4.067   4.130   2.435  0.2907  1.1682  1.4017
17597TIP3   OH274205   0.438   1.272  11.351  0.2295  0.0455  0.7184
17597TIP3    H174206   0.375   1.287  11.281  1.7071 -0.0675 -0.7133
17597TIP3    H274207   0.423   1.181  11.379  1.7680 -1.1154 -1.8604
17598TIP3   OH274208   1.401   1.465   5.797 -0.1193  0.0851 -0.2387
17598TIP3    H174209   1.397   1.498   5.886 -1.0983  0.5955 -0.4562
17598TIP3    H274210   1.375   1.373   5.805 -0.2689  0.1455  0.0018
17599TIP3   OH274211   5.193   5.495  12.120 -0.4245  0.7891 -0.0659
17599TIP3    H174212   5.250   5.454  12.054  0.4240  1.9342 -0.0724
17599TIP3    H274213   5.111   5.445  12.115 -0.3316  0.7571 -1.8783
17600TIP3   OH274214   4.118   0.261   5.449  0.0549 -0.2799  0.7093
17600TIP3    H174215   4.203   0.289   5.415 -0.8968  0.0599 -1.5309
17600TIP3    H274216   4.102   0.177   5.407 -1.8485  0.8690 -1.0665
17601TIP3   OH274217   1.441   4.671  16.693  0.5037 -0.5116  0.0186
17601TIP3    H174218   1.394   4.676  16.776  0.9974 -0.1443  0.2854
17601TIP3    H274219   1.403   4.596  16.648 -0.2951 -0.2575  0.2452
17602TIP3   OH274220   3.984   1.369  12.730  0.3593 -0.2831 -0.4471
17602TIP3    H174221   3.910   1.313  12.706  1.5312 -1.5253 -1.3098
17602TIP3    H274222   3.956   1.457  12.706 -0.5345 -0.8218 -1.4973
17603TIP3   OH274223   1.439   3.874   1.858  0.1925  0.4861 -0.5525
17603TIP3    H174224   1.432   3.846   1.949 -0.2461 -0.0256 -0.7371
17603TIP3    H274225   1.402   3.962   1.858 -0.4180  0.2370 -0.3495
17604TIP3   OH274226   6.237   3.172  15.462  0.4278 -0.5811 -0.1432
17604TIP3    H174227   6.269   3.178  15.552 -1.0063 -1.8305  0.4936
17604TIP3    H274228   6.290   3.104  15.421  0.6719 -0.4442 -0.0546
17605TIP3   OH274229   4.270   1.601  14.567  0.0558  0.3881  0.0807
17605TIP3    H174230   4.316   1.684  14.563 -0.8833  0.8641 -1.8696
17605TIP3    H274231   4.233   1.589  14.479 -2.4044 -0.5933  1.1610
17606TIP3   OH274232   0.565   1.050  14.703 -0.4479  0.3369 -0.1205
17606TIP3    H174233   0.609   0.978  14.748 -0.8643  0.4804  0.5305
17606TIP3    H274234   0.517   1.007  14.632 -0.2754  0.0337 -0.0583
17607TIP3   OH274235   2.385   6.294   4.210  0.5011 -1.0197 -0.1969
17607TIP3    H174236   2.323   6.260   4.146  1.0263 -0.3624 -1.0914
17607TIP3    H274237   2.418   6.375   4.170 -0.3360  0.2745  1.6283
17608TIP3   OH274238   4.641   4.947   4.350 -0.0988 -0.0522  0.2484
17608TIP3    H174239   4.696   4.915   4.278 -1.4980 -1.0085 -0.4447
17608TIP3    H274240   4.696   5.011   4.395  0.4771  1.4036 -2.3024
17609TIP3   OH274241   3.628   5.694   1.052 -0.5061 -0.2694 -0.2678
17609TIP3    H174242   3.579   5.628   1.100 -0.6940 -0.5766 -0.8700
17609TIP3    H274243   3.569   5.721   0.981 -1.6200  2.6567  1.6079
17610TIP3   OH274244   1.103   4.450   0.204  0.1638 -0.5874 -0.4307
17610TIP3    H174245   1.098   4.429   0.110  0.3391 -0.2032 -0.5281
17610TIP3    H274246   1.167   4.521   0.209  0.4784 -0.8970  0.0302
17611TIP3   OH274247   2.763   4.168   5.398  0.0796  0.0140 -0.0122
17611TIP3    H174248   2.752   4.214   5.481 -1.8073  0.8703 -0.6801
17611TIP3    H274249   2.759   4.237   5.331 -2.0433 -0.9614 -0.9953
17612TIP3   OH274250   5.450   5.994   5.122 -0.2240 -0.1909  0.6994
17612TIP3    H174251   5.524   5.938   5.144 -1.5494 -2.2659  0.2080
17612TIP3    H274252   5.449   5.995   5.026 -0.1335  0.8130  0.7036
17613TIP3   OH274253   1.888   5.674  12.970 -0.2231  0.3635 -0.0329
17613TIP3    H174254   1.879   5.755  13.020  0.5640 -0.6623  1.8919
17613TIP3    H274255   1.800   5.635  12.973  0.2027 -0.5999  2.3360
17614TIP3   OH274256   0.250   3.202  14.886  0.3351 -0.0100  0.1243
17614TIP3    H174257   0.232   3.262  14.958  1.9052  0.3156  0.2852
17614TIP3    H274258   0.182   3.135  14.892 -0.4006  0.7938  1.0182
17615TIP3   OH274259   6.559   2.045   1.436  0.2361  0.3178 -0.4548
17615TIP3    H174260   6.504   2.013   1.364  0.2605  2.0333 -1.3002
17615TIP3    H274261   6.524   2.001   1.514  0.8531 -2.3681 -1.5765
17616TIP3   OH274262   4.285   6.345   3.748  0.2966  0.0457 -0.2635
17616TIP3    H174263   4.278   6.340   3.652  0.8327  1.4278 -0.3869
17616TIP3    H274264   4.321   6.261   3.773 -0.0994 -0.4439 -1.2490
17617TIP3   OH274265   6.008   3.260  15.921 -0.2011  0.5312  0.3319
17617TIP3    H174266   5.922   3.222  15.941  0.4841 -0.8410  0.8060
17617TIP3    H274267   6.070   3.202  15.963  0.9279  2.3360  1.2741
17618TIP3   OH274268   2.536   6.199   4.798  0.0223  0.3733  0.8162
17618TIP3    H174269   2.614   6.150   4.825  0.8318  0.6662 -0.8091
17618TIP3    H274270   2.571   6.280   4.760 -1.1398  0.9716  0.9945
17619TIP3   OH274271   4.629   4.834   5.541  0.1556  0.1370 -0.3075
17619TIP3    H174272   4.675   4.801   5.464  1.5609  1.5335 -0.1000
17619TIP3    H274273   4.658   4.777   5.613 -0.8691 -0.9282 -0.7089
17620TIP3   OH274274   3.444   0.867   1.725  0.1403  0.4717  0.0644
17620TIP3    H174275   3.478   0.853   1.813  1.5187 -2.1384 -0.7903
17620TIP3    H274276   3.481   0.951   1.698  0.0055  1.1192  1.7905
17621TIP3   OH274277   5.830   2.353  12.921 -0.4227  0.4777 -0.3384
17621TIP3    H174278   5.809   2.336  13.013 -1.9235  0.2620 -0.6909
17621TIP3    H274279   5.821   2.448  12.911  1.0514  0.6711  0.0258
17622TIP3   OH274280   4.920   5.667   1.398  0.2231  0.2273 -0.3345
17622TIP3    H174281   4.891   5.582   1.366  1.7291 -0.3987 -0.1275
17622TIP3    H274282   5.004   5.682   1.354 -0.4999  2.1262 -1.1973
17623TIP3   OH274283   2.599   0.346  15.398  0.1026 -0.9246  0.5394
17623TIP3    H174284   2.595   0.355  15.303 -0.9260 -1.4963  0.5176
17623TIP3    H274285   2.566   0.429  15.432 -0.5762 -1.1173  0.3782
17624TIP3   OH274286   1.406   6.257   5.800  0.0773  0.1462  0.2093
17624TIP3    H174287   1.317   6.232   5.825 -0.1418 -0.7092 -1.2522
17624TIP3    H274288   1.393   6.314   5.724  0.7758 -0.3002 -0.2514
17625TIP3   OH274289   4.187   3.496  12.028  0.6210  0.1480  0.6066
17625TIP3    H174290   4.162   3.467  12.115 -0.2578  2.1537  1.0903
17625TIP3    H274291   4.157   3.426  11.969 -1.1005 -0.0768  1.6961
17626TIP3   OH274292   2.486   3.168   3.429  0.0184  0.3663  0.4415
17626TIP3    H174293   2.448   3.238   3.376 -0.9154  1.1920  2.1012
17626TIP3    H274294   2.577   3.164   3.402 -0.3122  1.0926 -0.8527
17627TIP3   OH274295   6.423   0.669   4.729 -0.4226 -0.9515 -0.7046
17627TIP3    H174296   6.517   0.663   4.747 -0.7961 -2.3342  1.1007
17627TIP3    H274297   6.417   0.676   4.634  1.5711  1.9514 -0.7310
17628TIP3   OH274298   4.350   6.551  13.975  0.2983 -0.0820  0.0780
17628TIP3    H174299   4.384   6.488  14.038 -1.3317 -2.1629 -1.0143
17628TIP3    H274300   4.421   6.615  13.964  2.1365 -1.8603  1.0245
17629TIP3   OH274301   3.838   6.632  12.463  0.4502 -0.6650 -0.7853
17629TIP3    H174302   3.803   6.701  12.406 -0.9309 -0.5933  0.0922
17629TIP3    H274303   3.793   6.645  12.547  3.1801 -0.1154  0.7116
17630TIP3   OH274304   0.892   2.963   5.685 -0.0016  0.6729 -0.3033
17630TIP3    H174305   0.825   2.895   5.687  1.1600 -0.5041 -0.0454
17630TIP3    H274306   0.898   2.994   5.776  1.0908 -0.5642  0.0786
17631TIP3   OH274307   0.145   3.998  16.691 -0.4819 -0.2917 -0.5224
17631TIP3    H174308   0.232   4.008  16.654  0.5664  1.0421  1.9927
17631TIP3    H274309   0.134   3.904  16.703  0.7558 -0.4707 -0.6519
17632TIP3   OH274310   6.735   5.563   1.878 -0.0966  0.1853 -0.6118
17632TIP3    H174311   6.744   5.562   1.973  0.9409 -1.9759 -0.6689
17632TIP3    H274312   6.771   5.648   1.851  0.6139  0.3647  0.8337
17633TIP3   OH274313   3.404   0.681   2.542 -0.2346  0.3741  0.5005
17633TIP3    H174314   3.356   0.753   2.582 -2.0640 -0.5801  0.1379
17633TIP3    H274315   3.476   0.663   2.602 -0.2735  1.8921  1.0370
17634TIP3   OH274316   4.564   3.591  11.723 -0.4583  0.2224  0.2274
17634TIP3    H174317   4.634   3.653  11.746 -1.0763  0.4767  1.5418
17634TIP3    H274318   4.611   3.515  11.688  0.3468  1.1774 -0.8684
17635TIP3   OH274319   2.524   2.395   5.163 -1.2789 -0.7096 -0.1041
17635TIP3    H174320   2.488   2.482   5.181  0.1754  0.1995 -1.3875
17635TIP3    H274321   2.611   2.412   5.126 -1.0664 -2.7052 -0.6264
17636TIP3   OH274322   4.141   6.374  12.337  0.5467 -0.0147 -0.4237
17636TIP3    H174323   4.207   6.309  12.315 -0.0317 -0.7700  0.0231
17636TIP3    H274324   4.070   6.324  12.378  1.0022  1.1226  1.9513
17637TIP3   OH274325   2.886   4.992  13.431 -0.0100  0.1880 -0.0170
17637TIP3    H174326   2.933   4.920  13.390 -3.4450 -2.6700  0.5414
17637TIP3    H274327   2.887   5.063  13.367  1.2669 -1.3217 -1.7339
17638TIP3   OH274328   3.739   5.975  16.965 -0.0751  0.1231 -0.4444
17638TIP3    H174329   3.793   5.979  16.886 -0.2404 -0.6602 -0.6001
17638TIP3    H274330   3.791   5.927  17.028  0.1124  0.8681 -0.0209
17639TIP3   OH274331   3.274   4.917  11.885  0.3273 -0.0592 -0.4450
17639TIP3    H174332   3.283   4.987  11.949 -1.3885 -0.4226  0.2366
17639TIP3    H274333   3.212   4.950  11.821 -2.3210 -1.6928  1.0961
17640TIP3   OH274334   4.331   3.788   1.340  0.5587  0.5568  0.1657
17640TIP3    H174335   4.389   3.835   1.400  0.1405  0.8014  0.3870
17640TIP3    H274336   4.348   3.826   1.254  0.3699  0.9715  0.3114
17641TIP3   OH274337   3.034   6.463   0.969  0.2513 -0.3817  0.5248
17641TIP3    H174338   2.999   6.382   0.932 -0.7614  0.2039  0.1589
17641TIP3    H274339   3.105   6.434   1.026 -1.0011 -1.6666  1.5129
17642TIP3   OH274340   0.546   4.275  15.244  0.2201 -0.1163 -0.0521
17642TIP3    H174341   0.543   4.364  15.211  0.0181  0.2358  0.8855
17642TIP3    H274342   0.577   4.283  15.334 -1.5541 -0.7796  0.6847
17643TIP3   OH274343   0.083   5.771   6.273  0.0756  0.2071  0.1133
17643TIP3    H174344   0.059   5.863   6.279 -0.3475  0.1173 -0.2018
17643TIP3    H274345   0.005   5.727   6.239  0.3588 -0.2276  0.0102
17644TIP3   OH274346   3.940   0.021  10.620  0.3442  0.0707  0.6123
17644TIP3    H174347   3.867   0.076  10.648 -0.2563 -0.0101 -0.6876
17644TIP3    H274348   3.898  -0.060  10.589  1.0226 -0.1897  0.3497
17645TIP3   OH274349   6.780   5.536  14.343 -0.2493  0.5752 -0.7155
17645TIP3    H174350   6.871   5.563  14.358 -0.2290 -0.0184  0.2690
17645TIP3    H274351   6.785   5.482  14.264  0.7944 -2.0125  0.9871
17646TIP3   OH274352   3.896   1.694   1.006 -0.4295  0.0595 -0.0306
17646TIP3    H174353   3.855   1.768   0.961  0.6534 -0.1701 -1.5000
17646TIP3    H274354   3.845   1.618   0.979 -0.2134  0.0084 -0.2974
17647TIP3   OH274355   6.209   3.816   0.367  0.3012 -0.0177 -0.3483
17647TIP3    H174356   6.301   3.787   0.372  0.0919 -0.5295  3.0765
17647TIP3    H274357   6.214   3.911   0.362  1.0348  0.0035  0.5485
17648TIP3   OH274358   2.200   2.529   4.936 -0.8728 -0.2655 -0.1844
17648TIP3    H174359   2.278   2.513   4.884 -2.1818 -1.6601 -1.8049
17648TIP3    H274360   2.127   2.508   4.878 -2.6323  3.5237  0.3367
17649TIP3   OH274361   0.674   4.362   1.710 -0.3377 -0.0162  0.2696
17649TIP3    H174362   0.707   4.272   1.714  0.7254  0.3218 -0.4414
17649TIP3    H274363   0.687   4.397   1.798 -1.4415 -0.7691  0.7568
17650TIP3   OH274364   6.604   4.976   1.472 -0.2518 -0.4102  0.0705
17650TIP3    H174365   6.547   5.053   1.474 -2.5680 -1.9685 -1.0934
17650TIP3    H274366   6.691   5.011   1.452 -0.5167  2.1579  2.7303
17651TIP3   OH274367   0.616   2.503   3.489 -0.0391 -0.1121  0.5292
17651TIP3    H174368   0.619   2.464   3.577 -0.2685 -0.4580  0.3876
17651TIP3    H274369   0.550   2.451   3.443  0.6439 -0.4367 -0.0902
17652TIP3   OH274370   6.519   3.830   0.216  0.0154 -0.0401 -1.2293
17652TIP3    H174371   6.577   3.772   0.265 -0.7579  1.8011  2.2362
17652TIP3    H274372   6.579   3.886   0.165  1.4320  1.2502  1.5873
17653TIP3   OH274373   4.981   1.127   2.841  0.0985 -0.0576 -0.4511
17653TIP3    H174374   5.052   1.140   2.778  0.2413  2.1540  0.1117
17653TIP3    H274375   5.012   1.056   2.897  1.5417  0.3721 -0.6677
17654TIP3   OH274376   6.190   1.192   4.499 -0.0032  0.0284  0.5232
17654TIP3    H174377   6.139   1.115   4.526  1.2700 -0.6712  1.0292
17654TIP3    H274378   6.209   1.237   4.581  0.4112  0.1445  0.3613
17655TIP3   OH274379   5.697   1.028  16.515 -0.1409  0.0450  0.0991
17655TIP3    H174380   5.689   0.979  16.597  1.4490  1.8565  1.4342
17655TIP3    H274381   5.745   0.968  16.456 -0.0234 -0.7446  0.9760
17656TIP3   OH274382   4.253   6.665   4.244 -0.0416 -0.1656 -0.2239
17656TIP3    H174383   4.331   6.644   4.192  0.7419 -1.3977  1.3851
17656TIP3    H274384   4.240   6.759   4.230  1.5606  0.0102 -0.7467
17657TIP3   OH274385   5.447   4.822   5.038  0.0105 -0.0587  0.3194
17657TIP3    H174386   5.413   4.904   5.002 -0.6350  0.1192  1.2998
17657TIP3    H274387   5.540   4.838   5.050 -0.5532  1.6808  3.3717
17658TIP3   OH274388   6.468   1.967   0.081 -0.3357 -0.0171 -0.0025
17658TIP3    H174389   6.389   1.930   0.043  0.0371  0.4609 -1.2867
17658TIP3    H274390   6.436   2.036   0.140 -0.8767  1.0971 -1.5154
17659TIP3   OH274391   6.665   5.864  10.346 -0.0567 -0.6309  0.1249
17659TIP3    H174392   6.705   5.921  10.280  0.3054  0.9270  1.6434
17659TIP3    H274393   6.738   5.813  10.381  0.1568  0.1962  0.9158
17660TIP3   OH274394   1.897   5.377  13.066 -0.5799 -0.7011  0.3140
17660TIP3    H174395   1.883   5.470  13.083  0.9463 -0.3923 -0.0125
17660TIP3    H274396   1.894   5.369  12.970  1.9427 -0.4896  0.1610
17661TIP3   OH274397   1.097   0.637  16.768 -0.6845 -0.1710  0.6127
17661TIP3    H174398   1.182   0.677  16.786 -0.8842  0.3685  0.3867
17661TIP3    H274399   1.038   0.712  16.755 -0.7087 -0.5082 -1.5432
17662TIP3   OH274400   0.332   4.209   0.775 -0.5475 -0.3301 -0.0960
17662TIP3    H174401   0.302   4.299   0.760  0.8148  0.0264 -0.8215
17662TIP3    H274402   0.274   4.155   0.721 -1.3569  0.0999  0.3213
17663TIP3   OH274403   1.220   1.329  16.261  0.7353 -0.3414 -0.1076
17663TIP3    H174404   1.144   1.366  16.305 -0.3433 -2.9097  0.3651
17663TIP3    H274405   1.191   1.313  16.171  0.8383 -0.9660 -0.0343
17664TIP3   OH274406   1.373   0.764  13.399 -0.8514 -0.0380 -0.2141
17664TIP3    H174407   1.286   0.800  13.381 -1.3599 -0.9481  0.3198
17664TIP3    H274408   1.433   0.838  13.387 -1.7823  0.8123  0.2089
17665TIP3   OH274409   6.381   2.508  14.795 -0.5187  0.4700  0.6822
17665TIP3    H174410   6.301   2.456  14.803 -0.1457 -0.1896  0.2108
17665TIP3    H274411   6.362   2.571  14.725 -0.1137 -0.6961 -0.5270
17666TIP3   OH274412   3.337   6.472   1.424  0.5890  0.4189  0.9176
17666TIP3    H174413   3.283   6.550   1.410  0.5031  0.3258  0.7391
17666TIP3    H274414   3.420   6.493   1.381  0.2511  0.0465  0.0773
17667TIP3   OH274415   2.196   0.011  11.459 -0.4969 -0.6335 -0.0550
17667TIP3    H174416   2.262  -0.029  11.402  0.0673  0.7360 -0.4099
17667TIP3    H274417   2.233   0.005  11.547 -0.0170 -0.1374 -0.2159
17668TIP3   OH274418   3.386   2.699  16.444  0.4591 -0.5266  0.0190
17668TIP3    H174419   3.410   2.643  16.519  0.2028 -0.4297  0.1727
17668TIP3    H274420   3.470   2.719  16.402  0.5075 -1.5797 -0.4380
17669TIP3   OH274421   0.931   0.072  12.134 -0.0076 -0.5211 -0.0628
17669TIP3    H174422   0.877   0.145  12.103 -0.6826 -1.1255 -0.3683
17669TIP3    H274423   1.018   0.109  12.147 -0.2964  0.2911 -0.3902
17670TIP3   OH274424   0.300   2.242  10.860 -0.4010  0.3159  0.1772
17670TIP3    H174425   0.353   2.179  10.811 -2.2609 -1.5136  0.3822
17670TIP3    H274426   0.294   2.319  10.803 -0.5879 -0.8620 -1.4552
17671TIP3   OH274427   3.509   3.143  12.449 -0.7242  0.1039  0.3331
17671TIP3    H174428   3.477   3.062  12.410 -2.3103 -0.1270  1.9519
17671TIP3    H274429   3.604   3.139  12.439 -0.9450 -0.6800 -1.9212
17672TIP3   OH274430   2.332   3.135   6.498 -0.1857  0.2172 -0.2410
17672TIP3    H174431   2.273   3.124   6.572  0.3146 -0.0547  0.1261
17672TIP3    H274432   2.344   3.229   6.490 -0.8430  0.2866 -0.4636
17673TIP3   OH274433   5.480   1.685  13.992  0.0368  0.1206 -0.3407
17673TIP3    H174434   5.485   1.671  14.087 -1.2749  0.5633 -0.1881
17673TIP3    H274435   5.542   1.621  13.955  1.0852  0.4113  0.8341
17674TIP3   OH274436   4.728   2.827   5.917  0.2508 -0.1635  0.0576
17674TIP3    H174437   4.706   2.801   5.828  0.1467  0.7521 -0.1984
17674TIP3    H274438   4.817   2.863   5.910  0.0934  0.2732  0.2424
17675TIP3   OH274439   2.645   0.855   1.680 -0.3059  0.0882 -0.2204
17675TIP3    H174440   2.692   0.795   1.737  0.0547  0.3869 -0.2037
17675TIP3    H274441   2.627   0.804   1.601 -0.3790 -0.1727 -0.0386
17676TIP3   OH274442   4.909   0.752   1.647  0.1632  0.1404  0.5444
17676TIP3    H174443   4.839   0.686   1.642  1.1675 -1.4162  4.1860
17676TIP3    H274444   4.985   0.711   1.606  0.3984 -0.4079  1.5185
17677TIP3   OH274445   4.198   2.505   4.080 -0.0375  0.1377  0.6082
17677TIP3    H174446   4.184   2.583   4.027 -0.8419  0.8042  1.7683
17677TIP3    H274447   4.249   2.536   4.155  2.0141 -0.9910 -0.2301
17678TIP3   OH274448   4.919   4.032   1.467 -0.5960 -0.4835 -0.1998
17678TIP3    H174449   5.005   4.022   1.425 -0.2265  2.7954 -0.5271
17678TIP3    H274450   4.857   4.032   1.393 -1.0056 -3.0207  0.0481
17679TIP3   OH274451   2.607   0.838   0.427  0.1221  0.7798  0.5210
17679TIP3    H174452   2.511   0.835   0.423  0.1554  0.0739  0.0845
17679TIP3    H274453   2.635   0.828   0.336  0.6394 -1.4898  0.8521
17680TIP3   OH274454   2.030   5.472   0.228 -0.6713  0.2062  0.2721
17680TIP3    H174455   1.971   5.483   0.154  1.0436  1.4730 -0.9736
17680TIP3    H274456   2.069   5.558   0.242  1.0639 -0.6104  0.8479
17681TIP3   OH274457   5.709   3.671  15.720  0.1256 -0.1515  0.5911
17681TIP3    H174458   5.620   3.661  15.686  0.7008 -0.3345 -0.9814
17681TIP3    H274459   5.716   3.607  15.791 -0.2551 -1.9101 -0.8837
17682TIP3   OH274460   5.680   2.162   0.828  0.5149  0.2897  0.7696
17682TIP3    H174461   5.601   2.168   0.881  0.0072  1.1297 -0.0420
17682TIP3    H274462   5.679   2.242   0.775  0.0433 -1.3173 -1.8233
17683TIP3   OH274463   4.644   2.065   0.393  0.0355 -0.3001 -0.6092
17683TIP3    H174464   4.628   2.153   0.427  0.4817  0.4275 -2.1648
17683TIP3    H274465   4.678   2.016   0.467 -1.3653  0.4798  0.6135
17684TIP3   OH274466   3.504   1.386  13.236  0.0377  0.1481 -0.1025
17684TIP3    H174467   3.462   1.430  13.162  1.5497  0.5357 -0.7857
17684TIP3    H274468   3.436   1.378  13.302 -1.1190  0.6057 -1.2050
17685TIP3   OH274469   4.172   4.614   1.655  0.1245  0.6325 -0.0210
17685TIP3    H174470   4.211   4.623   1.568  1.0738  0.7184  0.4105
17685TIP3    H274471   4.078   4.626   1.639  0.1582 -0.3713 -1.1875
17686TIP3   OH274472   0.121   4.129   2.445 -0.9995  0.0325 -0.1234
17686TIP3    H174473   0.093   4.120   2.354 -2.2548 -0.4967  0.2850
17686TIP3    H274474   0.069   4.202   2.478 -0.6087  0.1683  0.1955
17687TIP3   OH274475   0.508   4.578  16.081 -0.4701  0.2508 -0.2897
17687TIP3    H174476   0.558   4.659  16.093 -0.0754 -0.1115  0.6542
17687TIP3    H274477   0.419   4.607  16.062 -0.5927  0.9323  1.1471
17688TIP3   OH274478   5.542   1.905  12.808 -0.3176 -0.1924  0.7867
17688TIP3    H174479   5.573   1.830  12.859  0.1634  0.7434  1.9173
17688TIP3    H274480   5.608   1.916  12.739 -0.7619 -1.2225  0.1768
17689TIP3   OH274481   3.053   0.434   3.304  0.0301 -0.2126  0.6018
17689TIP3    H174482   2.974   0.469   3.263 -0.1698 -1.3308 -0.0047
17689TIP3    H274483   3.119   0.438   3.235  0.2549 -0.1535  0.8210
17690TIP3   OH274484   4.039   6.043   3.009  0.5061 -0.1262 -0.1597
17690TIP3    H174485   4.073   5.963   3.049  1.1263 -0.4325 -1.2531
17690TIP3    H274486   4.069   6.113   3.068  2.8492 -0.4108 -0.8827
17691TIP3   OH274487   1.157   2.931  13.336 -0.0545 -0.2160  0.4325
17691TIP3    H174488   1.231   2.988  13.316 -0.0297 -0.8718 -1.6002
17691TIP3    H274489   1.195   2.857  13.384  0.4193  0.0324  0.4405
17692TIP3   OH274490   0.123   2.597  11.169 -0.4451 -0.3482  0.2119
17692TIP3    H174491   0.102   2.600  11.075 -2.0993 -0.6901  0.5537
17692TIP3    H274492   0.164   2.511  11.181 -0.9048 -0.6087 -0.0606
17693TIP3   OH274493   0.728   3.771   0.363  0.2327 -0.3574 -0.1839
17693TIP3    H174494   0.634   3.756   0.376  0.0441 -1.4270 -2.3067
17693TIP3    H274495   0.733   3.851   0.312  0.4133 -0.7072 -0.7240
17694TIP3   OH274496   2.962   4.534   5.384  0.0717  0.6023 -0.3028
17694TIP3    H174497   2.886   4.486   5.352 -0.4957  1.0563  0.3113
17694TIP3    H274498   2.939   4.626   5.372 -0.1284  0.7845  1.2872
17695TIP3   OH274499   4.796   0.324   1.828  0.0312  0.2142 -0.0181
17695TIP3    H174500   4.744   0.329   1.907  0.2678  1.4171  0.0722
17695TIP3    H274501   4.881   0.361   1.852  0.2520  0.1842 -0.7191
17696TIP3   OH274502   2.714   1.457   6.115 -0.0008  0.0089  0.0341
17696TIP3    H174503   2.764   1.495   6.188 -1.5445 -1.2329  1.8261
17696TIP3    H274504   2.634   1.509   6.112 -0.9846 -1.4142  0.8117
17697TIP3   OH274505   5.375   5.702   2.878  1.1347  0.0757  0.4670
17697TIP3    H174506   5.446   5.737   2.931  0.8474  0.5956  0.5143
17697TIP3    H274507   5.328   5.779   2.847  0.5709 -0.2659  0.4627
17698TIP3   OH274508   5.377   3.771   4.230 -0.0568  0.6049 -0.0383
17698TIP3    H174509   5.350   3.717   4.304  0.7884  2.0028  1.3422
17698TIP3    H274510   5.297   3.816   4.203 -0.6011 -0.7158 -0.7117
17699TIP3   OH274511   3.955   1.993  15.107  0.6517 -0.9254  0.2890
17699TIP3    H174512   4.004   1.913  15.088 -0.1891 -1.4485  0.2714
17699TIP3    H274513   3.878   1.987  15.051 -0.9888 -1.6281  2.4972
17700TIP3   OH274514   6.618   0.822   6.000  0.3844 -0.1910 -0.4882
17700TIP3    H174515   6.672   0.768   5.943  1.5623  1.1624 -0.7047
17700TIP3    H274516   6.550   0.762   6.032  0.6701 -1.3804 -1.9855
17701TIP3   OH274517   2.494   5.528   3.018  0.2877 -0.2171 -0.0095
17701TIP3    H174518   2.420   5.486   2.974  1.1867 -1.4607 -0.4189
17701TIP3    H274519   2.538   5.456   3.065  0.7576  0.6440  0.9055
17702TIP3   OH274520   5.475   4.631   2.106  0.1088 -0.3538 -0.6169
17702TIP3    H174521   5.570   4.646   2.103  0.0227  0.1350 -1.0842
17702TIP3    H274522   5.443   4.691   2.173 -0.0456  0.5483 -1.4670
17703TIP3   OH274523   5.217   4.870   0.545 -1.2508  0.2131 -0.0446
17703TIP3    H174524   5.134   4.829   0.523 -1.3134  0.7372 -0.8338
17703TIP3    H274525   5.200   4.964   0.538 -0.2814  0.3239 -1.5269
17704TIP3   OH274526   1.369   5.160  16.149 -0.7944  0.3850  0.4605
17704TIP3    H174527   1.310   5.235  16.158 -0.7142  0.6289 -0.7944
17704TIP3    H274528   1.329   5.108  16.079 -0.9944 -0.9018  1.5063
17705TIP3   OH274529   0.876   2.818   5.046  0.4221 -0.4223 -0.4844
17705TIP3    H174530   0.880   2.798   4.953  0.4856 -3.9362  0.1195
17705TIP3    H274531   0.782   2.816   5.067  0.4803 -1.1043 -0.2562
17706TIP3   OH274532   0.726   1.203  14.478  0.1962  0.4256  0.1527
17706TIP3    H174533   0.653   1.221  14.537  0.0807  0.9544 -0.1428
17706TIP3    H274534   0.764   1.289  14.460  1.5227  0.0796  1.1006
17707TIP3   OH274535   3.979   3.229  16.850 -0.1257 -0.2117 -0.6030
17707TIP3    H174536   3.980   3.144  16.894  0.1604 -0.1926 -0.5674
17707TIP3    H274537   4.016   3.212  16.763  1.2489  0.1160 -0.1196
17708TIP3   OH274538   5.230   3.131   5.312 -0.0697 -0.2063  0.2654
17708TIP3    H174539   5.146   3.159   5.348 -0.1180 -1.1531  0.9191
17708TIP3    H274540   5.216   3.129   5.217 -0.5703  0.3038  0.3218
17709TIP3   OH274541   6.292   3.580  15.833  0.2170  0.1761 -0.0186
17709TIP3    H174542   6.202   3.549  15.844  0.5373 -0.6559  0.3378
17709TIP3    H274543   6.283   3.671  15.805 -0.7510 -0.0844 -0.6013
17710TIP3   OH274544   0.108   1.161   2.712 -0.0544  0.7461 -0.2237
17710TIP3    H174545   0.199   1.190   2.723 -0.0084  0.5240 -0.0054
17710TIP3    H274546   0.110   1.100   2.639 -0.0909  1.0198 -0.4546
17711TIP3   OH274547   5.572   2.944   3.350  0.4417 -0.1763  0.5933
17711TIP3    H174548   5.494   2.890   3.363  0.7049 -0.1226  2.8199
17711TIP3    H274549   5.544   3.012   3.289 -0.1003 -2.3209 -1.7254
17712TIP3   OH274550   4.800   2.007  13.818 -0.4059  0.2460  0.4157
17712TIP3    H174551   4.856   2.036  13.890 -2.2683  0.9512  1.6722
17712TIP3    H274552   4.823   1.915  13.805  2.5705  1.0162 -0.6867
17713TIP3   OH274553   0.790   3.773   1.843 -0.2552 -0.0553  0.7768
17713TIP3    H174554   0.759   3.718   1.915 -0.5063 -0.5579  0.3011
17713TIP3    H274555   0.885   3.778   1.855 -0.0546 -1.6167  0.1686
17714TIP3   OH274556   5.741   2.845  15.048  0.5617  0.0411  0.3074
17714TIP3    H174557   5.769   2.866  15.137 -0.4028 -1.5827  1.0517
17714TIP3    H274558   5.800   2.775  15.019 -0.4222 -0.8971  0.5081
17715TIP3   OH274559   5.106   3.435   1.947 -0.0597 -0.4023  0.2474
17715TIP3    H174560   5.040   3.437   2.016 -1.0238  3.7611 -0.5328
17715TIP3    H274561   5.057   3.440   1.866  1.0757  1.5876 -0.3920
17716TIP3   OH274562   6.773   3.665   5.637  0.9199  0.0069 -0.1693
17716TIP3    H174563   6.749   3.630   5.723  1.4905  0.0342  0.0035
17716TIP3    H274564   6.711   3.737   5.623  1.3837  0.5803  0.6180
17717TIP3   OH274565   5.041   2.220  14.854  0.1418 -0.3974 -0.0088
17717TIP3    H174566   5.006   2.266  14.777  0.2330  1.8798  1.2097
17717TIP3    H274567   4.963   2.189  14.900  0.0949 -2.0669 -1.1228
17718TIP3   OH274568   0.704   6.210   1.447 -0.1571 -0.1890  0.1427
17718TIP3    H174569   0.630   6.267   1.467  0.0594  0.0877  0.1586
17718TIP3    H274570   0.668   6.122   1.453  0.0536 -0.1831  2.4501
17719TIP3   OH274571   3.948   3.322   1.837 -0.0773  0.7136 -0.4434
17719TIP3    H174572   3.874   3.373   1.804 -1.2922 -0.3369  0.5578
17719TIP3    H274573   3.997   3.383   1.892 -1.3230  0.9254  0.4704
17720TIP3   OH274574   5.855   0.568   4.191  0.0510  0.3286 -0.3314
17720TIP3    H174575   5.920   0.504   4.163  1.3690  1.0540  0.9562
17720TIP3    H274576   5.800   0.521   4.254  1.5398  0.6366  1.2640
17721TIP3   OH274577   4.810   2.682   5.349  0.7288 -0.0800  0.2006
17721TIP3    H174578   4.761   2.722   5.278  1.3811  1.1132  0.3990
17721TIP3    H274579   4.856   2.755   5.391  0.4502 -0.7567  1.7760
17722TIP3   OH274580   0.415   0.005  12.056 -0.4725  0.6638 -0.2358
17722TIP3    H174581   0.353   0.072  12.026 -0.2849  0.0446 -2.1318
17722TIP3    H274582   0.441  -0.041  11.976  0.1695 -1.0290  0.8940
17723TIP3   OH274583   6.400   0.269  15.001 -0.1694  0.4567 -0.2666
17723TIP3    H174584   6.433   0.218  15.076  0.5265 -0.7243 -1.3336
17723TIP3    H274585   6.429   0.358  15.019  2.9992 -0.3553 -0.6850
17724TIP3   OH274586   3.367   0.653   5.038  0.6361 -0.1858 -0.0024
17724TIP3    H174587   3.309   0.709   4.987 -1.3437 -1.4589  0.7262
17724TIP3    H274588   3.454   0.690   5.025 -0.0115  0.5254 -2.9171
17725TIP3   OH274589   1.859   5.909  14.831  0.7537 -0.5509  0.1056
17725TIP3    H174590   1.886   5.879  14.918  2.1158  0.7827  0.1914
17725TIP3    H274591   1.796   5.844  14.801  0.4591 -1.1805  1.9794
17726TIP3   OH274592   2.504   0.739  12.553  0.2196  0.0328  0.0557
17726TIP3    H174593   2.515   0.686  12.631  0.6572 -0.5068 -0.3673
17726TIP3    H274594   2.516   0.829  12.584  2.5507 -0.2778  0.2644
17727TIP3   OH274595   4.592   0.419   3.746  0.4372 -0.0355 -0.7571
17727TIP3    H174596   4.560   0.502   3.783  0.0632 -1.4159  2.3726
17727TIP3    H274597   4.514   0.365   3.738  0.7647 -0.3263 -2.1802
17728TIP3   OH274598   2.633   4.092  13.713  0.1308  0.3920  0.2673
17728TIP3    H174599   2.595   4.170  13.753  0.7892  0.3804  0.9285
17728TIP3    H274600   2.727   4.105  13.720  0.2742 -1.0606  1.6259
17729TIP3   OH274601   3.685   6.240  15.076  0.0929 -0.1482  0.7999
17729TIP3    H174602   3.740   6.222  15.152 -0.3465  3.7141  2.2723
17729TIP3    H274603   3.600   6.204  15.099 -0.0315  0.9667  2.2070
17730TIP3   OH274604   2.721   1.547   2.826 -0.0107 -0.3089  0.3953
17730TIP3    H174605   2.802   1.581   2.788 -1.9012  4.5323 -0.0395
17730TIP3    H274606   2.736   1.548   2.920  0.9814 -1.2934  0.2657
17731TIP3   OH274607   6.696   2.233  10.714 -0.2779 -0.0650 -0.1707
17731TIP3    H174608   6.615   2.188  10.690 -0.4204 -0.4120  0.9224
17731TIP3    H274609   6.667   2.312  10.759 -0.0222  0.9774 -1.7780
17732TIP3   OH274610   3.117   0.921  14.495  0.0287  0.2580  0.3303
17732TIP3    H174611   3.105   0.834  14.456 -0.0378 -0.6030  2.1592
17732TIP3    H274612   3.039   0.934  14.548  0.0041  1.4886  0.0122
17733TIP3   OH274613   5.000   6.456  12.324 -0.1321  0.5714 -0.8146
17733TIP3    H174614   5.038   6.442  12.411  0.0355  0.4155 -0.9133
17733TIP3    H274615   5.075   6.476  12.268 -0.2372  0.6402 -0.9313
17734TIP3   OH274616   3.498   3.306   3.181 -0.1188  0.4379  0.5174
17734TIP3    H174617   3.416   3.330   3.224 -1.0204 -1.8222  0.1816
17734TIP3    H274618   3.515   3.378   3.120 -2.0190  0.8241  0.3844
17735TIP3   OH274619   4.207   6.685   3.410 -0.7299  0.3711 -0.2214
17735TIP3    H174620   4.249   6.757   3.456 -0.2297  0.8491 -1.3847
17735TIP3    H274621   4.200   6.715   3.319 -1.9098 -0.4407 -0.4181
17736TIP3   OH274622   4.303   0.917  15.243 -0.0255 -0.0334  0.1049
17736TIP3    H174623   4.215   0.897  15.275 -0.0194 -0.5849 -0.2061
17736TIP3    H274624   4.320   0.850  15.177  0.3595  0.4815 -0.3261
17737TIP3   OH274625   4.614   1.415  16.113  0.5046  0.8814 -0.7152
17737TIP3    H174626   4.695   1.466  16.101  0.5389  1.5907  1.9403
17737TIP3    H274627   4.638   1.345  16.173 -1.1318  1.9917  1.3546
17738TIP3   OH274628   5.195   0.716  14.288 -0.3655 -0.0478  0.5312
17738TIP3    H174629   5.153   0.801  14.269  0.9341  0.4577 -0.2011
17738TIP3    H274630   5.212   0.718  14.382  0.0956  0.7279  0.4446
17739TIP3   OH274631   1.075   2.246  15.890  0.1371 -0.0642 -0.7931
17739TIP3    H174632   1.071   2.168  15.834 -0.8213 -0.3811 -0.3014
17739TIP3    H274633   0.984   2.275  15.897  0.3365  0.3760  0.0421
17740TIP3   OH274634   1.834   3.989  14.069 -0.0937 -0.7455  0.4157
17740TIP3    H174635   1.806   3.962  14.156  0.5560  0.6455  1.1038
17740TIP3    H274636   1.793   4.075  14.057  0.3993 -0.6071 -0.3417
17741TIP3   OH274637   1.515   1.954   0.892  0.2483 -0.0077  0.1886
17741TIP3    H174638   1.455   2.025   0.916  0.5120 -0.3428  1.9758
17741TIP3    H274639   1.602   1.990   0.909  0.4945 -0.0578 -0.9113
17742TIP3   OH274640   5.573   0.435   4.061 -0.1372 -0.1434 -0.1502
17742TIP3    H174641   5.518   0.357   4.075  2.5167 -2.2628 -0.7517
17742TIP3    H274642   5.616   0.449   4.146 -1.2078  1.2493  0.1981
17743TIP3   OH274643   1.765   2.021  11.648  0.0033 -0.7242 -0.0642
17743TIP3    H174644   1.696   2.048  11.588 -0.1765 -1.7390 -0.3278
17743TIP3    H274645   1.771   1.926  11.637 -0.7631 -1.0970  2.3034
17744TIP3   OH274646   3.926   4.666   4.914 -0.0508 -0.3671 -0.4395
17744TIP3    H174647   3.837   4.647   4.883  0.3687 -0.7390 -1.4908
17744TIP3    H274648   3.925   4.760   4.931 -0.0788  0.0615 -2.5321
17745TIP3   OH274649   5.294   4.410  14.293  0.2275  0.2287  0.3531
17745TIP3    H174650   5.313   4.504  14.291 -0.4227  0.3662 -1.3830
17745TIP3    H274651   5.198   4.405  14.291  0.1416 -0.4957  2.8298
17746TIP3   OH274652   0.490   0.230   0.110  0.3188  0.2578 -0.3565
17746TIP3    H174653   0.473   0.191   0.196  1.4846 -0.0270 -0.2482
17746TIP3    H274654   0.409   0.277   0.090  0.3200  1.0588  1.2876
17747TIP3   OH274655   3.678   1.499   2.164  0.0839 -0.6017 -0.7574
17747TIP3    H174656   3.764   1.542   2.172 -0.8443  1.2051  0.1607
17747TIP3    H274657   3.697   1.406   2.174  1.9459 -0.2662 -0.6708
17748TIP3   OH274658   3.125   3.853   1.118  0.4133 -0.1194 -0.3167
17748TIP3    H174659   3.200   3.885   1.067  2.1947 -1.7236  1.1513
17748TIP3    H274660   3.154   3.855   1.209 -1.4650 -0.5315  0.3488
17749TIP3   OH274661   0.122   5.514  14.763 -0.3658 -0.0718 -0.2060
17749TIP3    H174662   0.125   5.427  14.804  3.3026  1.2390  2.9242
17749TIP3    H274663   0.102   5.573  14.835 -0.6485  1.9119 -1.8344
17750TIP3   OH274664   4.084   6.077  11.504  0.6963  0.6689 -0.7183
17750TIP3    H174665   4.061   6.170  11.506  0.2191  0.5574 -0.8551
17750TIP3    H274666   4.034   6.038  11.575 -1.4357  0.0112 -2.4719
17751TIP3   OH274667   2.897   5.503  14.066  0.0532  0.0038  0.0076
17751TIP3    H174668   2.833   5.550  14.014  0.8062 -0.1019 -1.0395
17751TIP3    H274669   2.912   5.421  14.019  0.6744 -0.1316  0.4236
17752TIP3   OH274670   3.418   2.873   0.612  0.4971 -0.4983  0.3824
17752TIP3    H174671   3.433   2.908   0.699 -0.4979  0.3666  0.2176
17752TIP3    H274672   3.323   2.873   0.602  0.5431 -1.6894 -0.2622
17753TIP3   OH274673   2.909   0.464  12.797 -0.0021  0.5334 -0.4209
17753TIP3    H174674   2.929   0.440  12.706 -0.3523 -1.7203  0.0520
17753TIP3    H274675   2.974   0.531  12.818  1.3431 -0.2841 -1.7354
17754TIP3   OH274676   1.084   2.464  16.048  0.7291  0.3995 -0.2415
17754TIP3    H174677   1.022   2.419  16.106 -0.0900  0.4807 -1.0373
17754TIP3    H274678   1.082   2.413  15.967  2.0303  0.1584 -0.1479
17755TIP3   OH274679   2.267   5.610   1.428 -0.2525  0.6989 -0.5581
17755TIP3    H174680   2.271   5.641   1.518  0.3954  0.2590 -0.4341
17755TIP3    H274681   2.217   5.678   1.382 -1.9804  0.1527  0.4473
17756TIP3   OH274682   4.982   6.397  16.010 -0.1847 -0.5080 -0.0520
17756TIP3    H174683   4.903   6.344  16.009 -0.3425 -0.3442  1.3984
17756TIP3    H274684   4.955   6.481  15.974 -0.5819 -0.5734  0.0886
17757TIP3   OH274685   4.725   5.895  16.788 -0.1187 -0.2568  0.2215
17757TIP3    H174686   4.723   5.943  16.870  0.3184 -2.3055  1.4965
17757TIP3    H274687   4.635   5.900  16.755 -0.7131 -0.8131  1.6989
17758TIP3   OH274688   3.100   5.884  12.920  0.5723  0.1860 -0.3469
17758TIP3    H174689   3.182   5.890  12.969  0.1822 -0.1914  0.3693
17758TIP3    H274690   3.116   5.936  12.841  1.0986  1.1054  0.3347
17759TIP3   OH274691   6.778   4.678   3.642 -0.5167 -0.6010  0.0433
17759TIP3    H174692   6.849   4.742   3.640  0.4328 -1.6277 -0.9811
17759TIP3    H274693   6.738   4.683   3.556  0.6338 -2.4699 -0.6615
17760TIP3   OH274694   3.576   1.590  12.194  0.4604  0.1728  0.1085
17760TIP3    H174695   3.484   1.610  12.207  0.6377  1.3827 -0.3375
17760TIP3    H274696   3.592   1.511  12.246 -0.9583 -0.3982 -0.2893
17761TIP3   OH274697   1.417   1.938  13.304  0.1527 -0.3248  0.4051
17761TIP3    H174698   1.405   2.022  13.259 -0.1985 -0.8258 -0.4704
17761TIP3    H274699   1.469   1.959  13.381  2.4461  0.3070 -1.1926
17762TIP3   OH274700   0.457   0.561   1.771  0.1659  0.0501  0.8379
17762TIP3    H174701   0.468   0.466   1.767  0.6023  0.0835 -3.2897
17762TIP3    H274702   0.362   0.574   1.776  0.1381 -0.5338  2.2143
17763TIP3   OH274703   1.604   3.498   6.642  0.2990  0.2633  0.2538
17763TIP3    H174704   1.696   3.526   6.647  0.0099  1.3119 -0.0598
17763TIP3    H274705   1.577   3.489   6.733  0.9401 -0.8507  0.3481
17764TIP3   OH274706   4.848   2.380  14.665  0.1548  0.4631 -0.1004
17764TIP3    H174707   4.806   2.304  14.626 -0.9137  1.3526 -0.7540
17764TIP3    H274708   4.801   2.455  14.628  1.6115  1.4715 -0.0029
17765TIP3   OH274709   5.207   6.397   0.424 -0.4558  0.3265  0.2116
17765TIP3    H174710   5.174   6.469   0.371 -1.3612 -0.0541  0.2194
17765TIP3    H274711   5.158   6.320   0.392 -0.3164 -0.0763  0.9391
17766TIP3   OH274712   6.093   4.338   4.502  0.4303  0.6226 -0.0557
17766TIP3    H174713   6.119   4.405   4.564  0.4379 -0.2152  0.8777
17766TIP3    H274714   5.998   4.331   4.511  0.3629  0.8692 -0.5337
17767TIP3   OH274715   0.542   2.532   2.338 -0.1823  0.3712  0.0085
17767TIP3    H174716   0.598   2.499   2.268  0.5303 -1.0430  1.1889
17767TIP3    H274717   0.454   2.509   2.311  0.0542  0.1524 -0.5916
17768TIP3   OH274718   6.428   2.593  12.406  0.2709  0.0960 -0.1181
17768TIP3    H174719   6.447   2.514  12.356  0.8665 -0.2013  0.5562
17768TIP3    H274720   6.373   2.563  12.479 -0.8421  0.5734 -0.7438
17769TIP3   OH274721   1.811   5.750  15.041  0.6369  0.0193 -0.1992
17769TIP3    H174722   1.722   5.724  15.063  0.6754 -0.0407 -0.1159
17769TIP3    H274723   1.863   5.671  15.050  0.2428 -0.6821 -2.9699
17770TIP3   OH274724   5.860   0.705   3.869  0.7218 -0.3755  1.2625
17770TIP3    H174725   5.884   0.660   3.787  0.5433  0.6761  0.6220
17770TIP3    H274726   5.932   0.685   3.929  0.1315 -2.4247  1.3770
17771TIP3   OH274727   0.758   0.640   0.443 -0.2995 -0.0662  0.1380
17771TIP3    H174728   0.701   0.716   0.431  0.5525  0.5028 -0.3628
17771TIP3    H274729   0.792   0.622   0.355  1.0354  0.1916  0.5855
17772TIP3   OH274730   2.127   5.650   5.837 -0.3919 -0.4171 -0.0165
17772TIP3    H174731   2.080   5.580   5.791  0.6065 -0.4903 -0.9385
17772TIP3    H274732   2.163   5.606   5.915  0.2937 -0.9577 -0.6282
17773TIP3   OH274733   0.604   4.953   2.114  0.0352  0.2321  0.2345
17773TIP3    H174734   0.583   4.879   2.057 -0.4974  0.8933 -0.4444
17773TIP3    H274735   0.694   4.936   2.143  0.9145  0.6150 -2.0292
17774TIP3   OH274736   4.898   2.488  16.420  0.5798 -0.2288  0.3757
17774TIP3    H174737   4.944   2.432  16.357 -1.5210  0.6469 -2.1345
17774TIP3    H274738   4.828   2.433  16.454  0.0559  0.0844 -0.1723
17775TIP3   OH274739   1.772   2.737  13.637 -0.4037  1.1860 -0.2744
17775TIP3    H174740   1.854   2.689  13.643 -0.2533  1.6324  2.4969
17775TIP3    H274741   1.708   2.681  13.681 -0.7092  2.4631  0.9774
17776TIP3   OH274742   5.210   1.827   0.513 -0.2398  0.1444 -0.1911
17776TIP3    H174743   5.180   1.874   0.591  0.7478  1.0387 -0.3177
17776TIP3    H274744   5.130   1.797   0.470 -0.8624  0.8821  0.4201
17777TIP3   OH274745   6.620   5.710  13.304 -0.8331 -0.0487  0.5739
17777TIP3    H174746   6.627   5.620  13.334 -2.6659 -0.3191  0.2924
17777TIP3    H274747   6.532   5.737  13.328 -0.8617  1.1499 -0.7256
17778TIP3   OH274748   1.724   2.268   1.341  0.5542 -0.6618  0.1902
17778TIP3    H174749   1.660   2.224   1.285  1.4459  0.7373 -2.1133
17778TIP3    H274750   1.677   2.343   1.377  0.2001 -1.0886  0.6177
17779TIP3   OH274751   5.366   0.779  16.190 -0.4098  0.0116 -0.5687
17779TIP3    H174752   5.456   0.764  16.161  0.0823  0.0863  0.8513
17779TIP3    H274753   5.375   0.819  16.277 -1.8269 -1.5695  0.3519
17780TIP3   OH274754   2.734   5.487  14.271 -0.1707 -0.1897  0.2733
17780TIP3    H174755   2.762   5.579  14.274 -1.0183  0.0716  0.7197
17780TIP3    H274756   2.769   5.454  14.189 -0.1694  0.6440 -0.0732
17781TIP3   OH274757   0.114   1.130  17.016  0.0874  0.5708  0.0787
17781TIP3    H174758   0.051   1.181  16.966  0.9799  1.9052  0.2750
17781TIP3    H274759   0.114   1.044  16.974 -0.9162  0.9399 -0.7071
17782TIP3   OH274760   0.311   3.493   3.691  0.0410 -0.2489 -0.6267
17782TIP3    H174761   0.272   3.542   3.763  0.5077 -1.8572  0.8033
17782TIP3    H274762   0.269   3.407   3.696  0.8615 -0.7248 -1.5898
17783TIP3   OH274763   5.785   4.709   2.437  0.7882  0.0690  0.1776
17783TIP3    H174764   5.729   4.649   2.389 -0.0466  1.2424 -0.3741
17783TIP3    H274765   5.840   4.749   2.369  1.9295 -0.6696  0.6439
17784TIP3   OH274766   1.894   3.976  15.157  0.4272  0.1446  0.4498
17784TIP3    H174767   1.948   3.967  15.079 -1.6117  0.7209 -1.1085
17784TIP3    H274768   1.856   4.064  15.150 -0.5684 -0.1726  1.5912
17785TIP3   OH274769   5.200   0.413   0.183  0.1345 -0.3296 -0.4702
17785TIP3    H174770   5.189   0.427   0.089  0.9665 -1.8839 -0.8256
17785TIP3    H274771   5.116   0.379   0.212  0.2876 -1.0963 -0.9129
17786TIP3   OH274772   3.778   6.601   4.048  0.0447 -0.5019  0.2684
17786TIP3    H174773   3.798   6.684   4.089  0.9478 -1.2446  1.3894
17786TIP3    H274774   3.683   6.594   4.052  0.0517 -0.1214  1.3802
17787TIP3   OH274775   5.714   5.822  15.388 -0.1683  0.1678  0.1652
17787TIP3    H174776   5.769   5.838  15.312 -2.2537 -1.1841 -1.7459
17787TIP3    H274777   5.709   5.727  15.395 -0.7044  0.2650  1.4905
17788TIP3   OH274778   2.035   2.688  13.746 -0.4183 -0.1510 -0.4089
17788TIP3    H174779   2.100   2.755  13.723 -0.1922 -0.3155 -0.2524
17788TIP3    H274780   2.023   2.699  13.840 -0.0163 -0.6505 -0.2953
17789TIP3   OH274781   2.940   2.623  12.870 -0.2887 -0.4507  0.2605
17789TIP3    H174782   2.901   2.680  12.804 -0.1515  0.3514  0.8462
17789TIP3    H274783   3.005   2.572  12.822  0.9664  1.2661  0.0100
17790TIP3   OH274784   2.157   3.242  14.829  0.0642  0.3293  1.0099
17790TIP3    H174785   2.215   3.169  14.850 -0.7907 -0.2527  1.4024
17790TIP3    H274786   2.071   3.202  14.818 -0.0134  0.9426 -1.1467
17791TIP3   OH274787   4.453   6.450   4.669 -0.2697  0.2315  0.1260
17791TIP3    H174788   4.411   6.368   4.694 -0.9274  0.9227  1.4515
17791TIP3    H274789   4.482   6.488   4.752  0.2972  1.1871 -0.4925
17792TIP3   OH274790   1.240   0.171   3.259 -0.1973 -0.2562 -0.0008
17792TIP3    H174791   1.246   0.259   3.223 -1.7095 -0.2527 -0.3175
17792TIP3    H274792   1.242   0.183   3.353  0.8501 -0.0112 -0.0397
17793TIP3   OH274793   0.692   2.375   3.742  0.1749 -0.6246 -0.4802
17793TIP3    H174794   0.730   2.447   3.791 -0.4159 -0.9356  0.4527
17793TIP3    H274795   0.731   2.296   3.780 -0.3091 -0.8689 -0.4811
17794TIP3   OH274796   3.233   5.761   5.648  0.4094  0.1922  0.2366
17794TIP3    H174797   3.161   5.812   5.610  1.9910  1.4075 -1.2800
17794TIP3    H274798   3.247   5.801   5.734 -0.5693  0.0696  0.4710
17795TIP3   OH274799   5.134   3.679  14.903 -0.0405  0.3462 -0.4845
17795TIP3    H174800   5.166   3.731  14.829 -0.2219 -1.6353 -2.0772
17795TIP3    H274801   5.043   3.659  14.881 -0.6880  1.2416  1.2278
17796TIP3   OH274802   2.286   6.074   0.748 -0.1607  0.3922 -0.2535
17796TIP3    H174803   2.233   6.063   0.827  0.3900 -0.7736 -0.0293
17796TIP3    H274804   2.340   6.151   0.766 -0.9473  0.8999 -0.0236
17797TIP3   OH274805   1.173   0.733   3.839 -0.1452 -0.2284 -0.7207
17797TIP3    H174806   1.185   0.638   3.838 -1.0285 -0.3647 -0.0334
17797TIP3    H274807   1.231   0.764   3.908 -1.4301 -0.5384  0.5479
17798TIP3   OH274808   1.473   2.413  13.999 -0.4938  0.6970 -0.4401
17798TIP3    H174809   1.515   2.413  14.085  0.9063 -0.4183 -1.0808
17798TIP3    H274810   1.380   2.399  14.018 -0.0208 -1.0547  0.8274
17799TIP3   OH274811   0.376   2.946   2.272  0.1041  0.3030 -0.2139
17799TIP3    H174812   0.339   2.895   2.200 -1.3831  1.0782 -0.0414
17799TIP3    H274813   0.378   2.886   2.346  0.0991 -0.0240 -0.4748
17800TIP3   OH274814   0.730   0.792  15.329  0.0520  0.0326 -0.2512
17800TIP3    H174815   0.801   0.745  15.285  1.8434  0.6886  1.7939
17800TIP3    H274816   0.752   0.788  15.422 -1.0593  2.7505  0.2241
17801TIP3   OH274817   0.259   0.496   4.078  0.3158 -0.1322  0.1529
17801TIP3    H174818   0.267   0.415   4.130  1.0031  0.3113  0.7631
17801TIP3    H274819   0.348   0.532   4.077  0.3900 -0.2839 -1.6266
17802TIP3   OH274820   5.445   0.949   5.920  0.6616 -0.6189 -0.2210
17802TIP3    H174821   5.522   1.005   5.925  1.1086 -1.2614  0.1762
17802TIP3    H274822   5.371   1.011   5.913  1.1839  0.0007 -0.3356
17803TIP3   OH274823   3.527   4.608  12.045  0.2158  0.1767 -0.4179
17803TIP3    H174824   3.475   4.605  12.125  1.4181  0.1287  0.3862
17803TIP3    H274825   3.498   4.533  11.994  0.8198 -0.9804  0.8790
17804TIP3   OH274826   1.300   0.389  14.361  0.1870  0.3564  0.2753
17804TIP3    H174827   1.343   0.416  14.442 -1.4486 -0.2956  1.4106
17804TIP3    H274828   1.245   0.464  14.338 -0.5235 -0.0518  0.6329
17805TIP3   OH274829   4.302   5.213  15.288  0.5603  0.1503 -0.2130
17805TIP3    H174830   4.255   5.164  15.356  1.5189 -0.6750 -0.1122
17805TIP3    H274831   4.239   5.277  15.256 -0.2234 -0.1089  0.7689
17806TIP3   OH274832   2.231   6.340  11.157  1.1828 -0.2312 -0.2138
17806TIP3    H174833   2.323   6.313  11.154  1.2070 -0.2685  0.5608
17806TIP3    H274834   2.211   6.346  11.251  0.4769  0.0538 -0.3741
17807TIP3   OH274835   2.426   5.530  10.921  0.4834  0.0548  0.4845
17807TIP3    H174836   2.345   5.515  10.872 -0.0056  0.5590  1.1170
17807TIP3    H274837   2.488   5.564  10.856 -1.0321  3.6024  0.6889
17808TIP3   OH274838   3.097   0.010  16.335 -0.3477  0.2282  0.6671
17808TIP3    H174839   3.144  -0.064  16.297  0.2097  1.0898 -0.3918
17808TIP3    H274840   3.163   0.056  16.388 -0.6390  0.0902  1.1585
17809TIP3   OH274841   3.878   1.525   2.817  0.7042 -0.0260 -0.0824
17809TIP3    H174842   3.877   1.614   2.854 -1.1381  0.8489 -2.0610
17809TIP3    H274843   3.786   1.499   2.815  0.8129 -0.4842 -2.8220
17810TIP3   OH274844   0.244   3.956   4.014 -0.4048  0.1225 -0.3725
17810TIP3    H174845   0.270   4.046   4.036 -0.0544 -0.2757  0.9634
17810TIP3    H274846   0.231   3.914   4.099 -0.0227 -1.2561 -0.9645
17811TIP3   OH274847   6.426   5.341  11.059  0.2139  0.4304  0.6960
17811TIP3    H174848   6.490   5.370  10.994  0.4207  0.7022  1.0218
17811TIP3    H274849   6.342   5.349  11.014  0.4207 -0.1088  0.2032
17812TIP3   OH274850   0.517   2.583  14.234 -1.0423  0.5446 -0.1915
17812TIP3    H174851   0.585   2.548  14.177 -2.7507  0.5839 -2.3765
17812TIP3    H274852   0.557   2.659  14.277  1.4372 -1.6003  1.5624
17813TIP3   OH274853   2.514   0.679  14.600  0.5727  0.0819 -0.1695
17813TIP3    H174854   2.473   0.689  14.514  0.7959 -2.5181 -0.6582
17813TIP3    H274855   2.550   0.766  14.620 -3.6096  2.1721 -0.4276
17814TIP3   OH274856   1.356   3.511   3.751 -0.8856  0.1293 -0.3317
17814TIP3    H174857   1.340   3.512   3.846 -0.5250 -0.5731 -0.2498
17814TIP3    H274858   1.325   3.424   3.723 -0.0346 -0.0730 -0.6720
17815TIP3   OH274859   0.045   2.133   0.014 -0.2621  0.3873  0.1965
17815TIP3    H174860   0.125   2.166   0.055 -0.0441 -1.5183  1.3943
17815TIP3    H274861  -0.026   2.171   0.065  0.0023 -1.8854  2.4574
17816TIP3   OH274862   0.305   0.219  12.312  0.1072  0.5339 -0.3184
17816TIP3    H174863   0.276   0.209  12.402  2.1924 -0.0158  0.3435
17816TIP3    H274864   0.271   0.142  12.267  0.5493 -0.1228  0.4460
17817TIP3   OH274865   6.446   4.660  12.067  0.2405 -0.4975 -0.1028
17817TIP3    H174866   6.376   4.671  12.003 -0.9740  1.3729  1.4188
17817TIP3    H274867   6.489   4.746  12.070  1.5276 -1.1284  0.2171
17818TIP3   OH274868   2.373   1.587  13.422 -0.3986 -0.4290  0.5775
17818TIP3    H174869   2.315   1.650  13.378  1.1693 -0.8163 -2.2677
17818TIP3    H274870   2.361   1.506  13.373  2.3221 -0.5638 -0.0047
17819TIP3   OH274871   2.654   3.913   2.395  0.0313 -0.5217 -0.5166
17819TIP3    H174872   2.712   3.984   2.367  0.4213 -0.2274  0.9493
17819TIP3    H274873   2.575   3.923   2.342  0.3560  0.5813 -0.8062
17820TIP3   OH274874   5.544   3.352  17.250  0.0510  0.0023 -0.1992
17820TIP3    H174875   5.450   3.370  17.244 -0.5770 -2.5987  0.6462
17820TIP3    H274876   5.561   3.347  17.345  1.8493  3.7712 -0.1422
17821TIP3   OH274877   1.401   0.026  14.426 -0.0263 -0.1545  0.7431
17821TIP3    H174878   1.414  -0.054  14.476 -1.1793  0.1645  1.5998
17821TIP3    H274879   1.366   0.089  14.490  1.0207  1.0951  0.1372
17822TIP3   OH274880   3.855   4.118   0.565  0.0769 -0.0060  0.0238
17822TIP3    H174881   3.803   4.046   0.528 -0.7904  0.5105  0.2167
17822TIP3    H274882   3.796   4.161   0.626  0.4605  1.1040 -0.3691
17823TIP3   OH274883   0.012   3.819  13.845 -0.2099  0.1067  0.6473
17823TIP3    H174884   0.046   3.789  13.930  1.2522  1.8449  0.7513
17823TIP3    H274885   0.044   3.754  13.783 -0.1801 -0.4969  1.2782
17824TIP3   OH274886   1.759   0.652  12.487 -0.2171 -1.2348  0.1780
17824TIP3    H174887   1.734   0.663  12.579  1.6311  0.6924  0.5027
17824TIP3    H274888   1.835   0.594  12.490  0.1984 -0.6997 -0.0964
17825TIP3   OH274889   4.016   6.742   0.146  0.1627  0.1977  0.2779
17825TIP3    H174890   3.956   6.668   0.136 -0.4628  0.8157 -0.7587
17825TIP3    H274891   4.037   6.744   0.239 -0.0620 -1.0795  0.3709
17826TIP3   OH274892   4.372   3.172  12.308 -0.0489  0.0291  0.5662
17826TIP3    H174893   4.404   3.262  12.308  0.7593 -0.1836 -1.6048
17826TIP3    H274894   4.283   3.178  12.272 -0.1003 -0.0196  0.6841
17827TIP3   OH274895   0.058   4.762   1.584  0.3952  0.4846  0.0105
17827TIP3    H174896   0.139   4.809   1.605  1.0804 -0.4438 -0.4803
17827TIP3    H274897  -0.012   4.822   1.610  1.2417  1.5890 -0.1995
17828TIP3   OH274898   3.407   3.277  12.651  0.7496  0.5815 -0.3115
17828TIP3    H174899   3.312   3.273  12.635  0.5200  0.4719  0.9910
17828TIP3    H274900   3.446   3.244  12.570 -0.3353  0.2674 -0.7276
17829TIP3   OH274901   2.049   0.337   3.512  0.8011  0.3737 -0.1103
17829TIP3    H174902   2.125   0.295   3.471  1.1753 -0.2109  1.1474
17829TIP3    H274903   2.032   0.285   3.590  0.2492  1.6110  0.6112
17830TIP3   OH274904   0.673   0.552   1.988  0.0143 -0.3081 -0.1702
17830TIP3    H174905   0.735   0.485   1.959 -0.9425 -1.3934  0.2408
17830TIP3    H274906   0.665   0.538   2.082  0.2449  0.7801  0.0248
17831TIP3   OH274907   4.165   2.271   1.008 -0.8025 -0.4105  0.0375
17831TIP3    H174908   4.186   2.181   1.033  3.6577  0.5816  0.7284
17831TIP3    H274909   4.205   2.282   0.922  1.0060  1.4763  1.0222
17832TIP3   OH274910   3.009   2.764   2.571 -0.1675  0.0623  0.1580
17832TIP3    H174911   2.996   2.844   2.622 -0.6306 -0.4936  0.9359
17832TIP3    H274912   3.018   2.695   2.637  0.3283 -0.5132 -0.5014
17833TIP3   OH274913   1.927   2.260   4.806  0.3691 -0.3478 -0.1997
17833TIP3    H174914   1.956   2.345   4.774 -0.8925  0.4507  0.7051
17833TIP3    H274915   2.002   2.202   4.789  1.7047  1.1748  0.1999
17834TIP3   OH274916   4.512   2.506  13.193  0.5662  0.1857  0.3891
17834TIP3    H174917   4.535   2.429  13.142 -1.3034 -1.2494  1.5961
17834TIP3    H274918   4.471   2.565  13.130 -0.6442 -1.0541 -0.0235
17835TIP3   OH274919   2.594   5.417  15.134 -0.1462 -0.2922  0.5219
17835TIP3    H174920   2.562   5.337  15.176 -3.1492  1.6394  2.3556
17835TIP3    H274921   2.622   5.472  15.207 -1.7669  1.6966 -0.2439
17836TIP3   OH274922   3.227   2.365   4.893  0.2652  0.0818  0.3194
17836TIP3    H174923   3.232   2.273   4.919 -0.8792  0.2833  1.3506
17836TIP3    H274924   3.311   2.383   4.851  0.4549 -1.4566  0.0093
17837TIP3   OH274925   2.668   4.501  14.688 -0.4149  0.1070 -0.3066
17837TIP3    H174926   2.694   4.456  14.768  0.0220 -0.1989 -0.6119
17837TIP3    H274927   2.585   4.459  14.663 -0.1748 -0.3124 -0.4154
17838TIP3   OH274928   0.146   0.800   2.105  0.3437 -0.1000  0.0749
17838TIP3    H174929   0.188   0.882   2.083 -0.0083  0.1826  0.4387
17838TIP3    H274930   0.092   0.779   2.029  1.1176 -0.4608 -0.3906
17839TIP3   OH274931   3.324   4.206   4.550 -0.2045 -0.2937 -0.4443
17839TIP3    H174932   3.229   4.201   4.550 -0.3613  1.9077 -0.1554
17839TIP3    H274933   3.346   4.237   4.462 -0.0291  2.2465  0.4180
17840TIP3   OH274934   2.891   1.040   3.214  0.1747  0.7867  0.3958
17840TIP3    H174935   2.979   1.064   3.186  0.2902  0.3844  0.4067
17840TIP3    H274936   2.877   1.090   3.295  0.6745  0.3009  0.7905
17841TIP3   OH274937   4.106   2.619  14.221  0.4246  0.0690 -0.2234
17841TIP3    H174938   4.175   2.656  14.166  1.1741  0.0679  0.6925
17841TIP3    H274939   4.050   2.694  14.242  0.1037  0.0635 -0.9929
17842TIP3   OH274940   0.819   2.289   4.665  0.3792 -0.1159 -0.7415
17842TIP3    H174941   0.819   2.348   4.741  1.3684 -0.4826 -0.4353
17842TIP3    H274942   0.911   2.287   4.637 -0.0001  0.1682 -2.0790
17843TIP3   OH274943   5.504   1.872  15.548 -0.0568  0.1252  0.2412
17843TIP3    H174944   5.570   1.942  15.551  0.7549 -0.6489  1.3200
17843TIP3    H274945   5.506   1.841  15.458 -1.4336  2.3886 -0.6469
17844TIP3   OH274946   0.869   2.764   4.772  0.0345  0.1433 -0.2727
17844TIP3    H174947   0.819   2.742   4.693 -0.1571  0.9560 -0.3882
17844TIP3    H274948   0.905   2.680   4.802 -0.5314 -0.2904 -0.7825
17845TIP3   OH274949   4.113   0.814  11.323 -0.4425  0.2774  0.5854
17845TIP3    H174950   4.055   0.762  11.267  1.4305 -2.0394  0.6372
17845TIP3    H274951   4.147   0.882  11.265  0.1190 -1.0192 -0.6624
17846TIP3   OH274952   5.934   4.256   5.743  0.5874 -0.4604  0.6699
17846TIP3    H174953   6.001   4.322   5.726  0.7443 -0.5714  0.8420
17846TIP3    H274954   5.958   4.183   5.686  0.4571 -0.3939  0.5327
17847TIP3   OH274955   6.377   2.045  13.228  0.3914  0.3813 -0.1601
17847TIP3    H174956   6.463   2.004  13.221  0.3440  0.0104  1.1547
17847TIP3    H274957   6.379   2.092  13.311 -0.4509  0.9436 -0.4340
17848TIP3   OH274958   0.964   4.351   0.564 -0.4528 -0.0127 -0.5720
17848TIP3    H174959   1.020   4.399   0.626 -1.5740 -1.4677  1.6761
17848TIP3    H274960   0.877   4.387   0.578 -1.3770 -2.6669  1.3539
17849TIP3   OH274961   6.225   4.179  14.326 -0.0725 -0.0984  0.5777
17849TIP3    H174962   6.193   4.099  14.367  1.3087  0.2365  2.4071
17849TIP3    H274963   6.243   4.154  14.235 -1.1138 -1.4471  0.7241
17850TIP3   OH274964   6.098   0.140   1.409  0.2114 -0.1856 -0.2493
17850TIP3    H174965   6.099   0.050   1.440  0.5382 -0.0522  0.1544
17850TIP3    H274966   6.143   0.189   1.478 -1.2679  0.5225  0.2503
17851TIP3   OH274967   3.125   6.658   3.928  0.0550  0.1046  0.5315
17851TIP3    H174968   3.158   6.659   4.018 -0.8955  1.4299  0.8790
17851TIP3    H274969   3.143   6.746   3.895 -0.7084 -0.0004 -0.1762
17852TIP3   OH274970   1.267   2.632   2.676  0.2600 -0.6987  0.0567
17852TIP3    H174971   1.189   2.580   2.657 -0.0938 -0.2055  0.1419
17852TIP3    H274972   1.233   2.714   2.712  0.8387 -0.8452  0.9973
17853TIP3   OH274973   0.401   0.895   1.852  0.1437 -0.0141 -0.1630
17853TIP3    H174974   0.311   0.879   1.823  1.2103 -2.1457 -2.6746
17853TIP3    H274975   0.424   0.979   1.811 -0.3031 -0.0838 -0.5738
17854TIP3   OH274976   5.852   4.863  13.817  0.0888 -0.4873  0.0205
17854TIP3    H174977   5.763   4.831  13.833  0.5700 -2.4135 -0.8393
17854TIP3    H274978   5.845   4.916  13.738 -0.7486  1.8081  1.5349
17855TIP3   OH274979   6.664   5.896   0.015  0.1551 -0.4464 -0.3775
17855TIP3    H174980   6.612   5.869  -0.061  1.2204 -2.0326 -0.5837
17855TIP3    H274981   6.675   5.990   0.004 -1.7087 -0.2433 -0.9043
17856TIP3   OH274982   4.438   0.058  16.789 -0.3658  0.8942 -0.3012
17856TIP3    H174983   4.401  -0.003  16.853  0.4237 -1.6959 -2.1537
17856TIP3    H274984   4.364   0.085  16.735 -0.7511  1.8037  0.6471
17857TIP3   OH274985   4.057   1.269   4.218 -0.3958 -0.0928  0.2027
17857TIP3    H174986   3.984   1.286   4.278 -0.2375 -2.2655  1.0935
17857TIP3    H274987   4.020   1.284   4.131 -1.7486 -0.6293  0.6626
17858TIP3   OH274988   2.434   2.082   5.357  0.2875 -0.0451  0.2351
17858TIP3    H174989   2.386   2.093   5.275  0.7449  0.2103 -0.0053
17858TIP3    H274990   2.421   2.165   5.404  2.3462  0.9724 -0.8355
17859TIP3   OH274991   0.782   2.443  13.061  0.3422  0.0890  0.1847
17859TIP3    H174992   0.706   2.414  13.011 -1.9068  2.0648  2.2596
17859TIP3    H274993   0.850   2.456  12.994 -1.1220 -1.5465 -1.7688
17860TIP3   OH274994   0.597   4.550  14.553 -0.0014 -0.4329  0.1172
17860TIP3    H174995   0.572   4.597  14.633  0.0616  0.0845 -0.1678
17860TIP3    H274996   0.514   4.523  14.515 -0.0481 -0.3494  0.1581
17861TIP3   OH274997   1.266   6.304   5.540  0.2519  0.3340  0.4338
17861TIP3    H174998   1.235   6.216   5.561  0.0076  0.1952 -0.4751
17861TIP3    H274999   1.186   6.358   5.544  0.0661  0.1759 -0.8120
17862TIP3   OH275000   0.080   3.492   5.223 -0.1808 -0.1866  0.0882
17862TIP3    H175001  -0.005   3.478   5.181 -0.1932 -1.5648  0.5342
17862TIP3    H275002   0.139   3.514   5.151 -0.4668 -1.2929 -0.4967
17863TIP3   OH275003   3.117   3.796  13.125 -0.3034 -0.4468  0.2627
17863TIP3    H175004   3.193   3.784  13.182 -0.3601  0.3081  0.5145
17863TIP3    H275005   3.042   3.794  13.184 -0.3946 -0.1040  0.1641
17864TIP3   OH275006   5.995   6.331   2.906  0.0378 -0.0464 -0.3354
17864TIP3    H175007   5.956   6.413   2.876  1.3821  0.8890  0.3826
17864TIP3    H275008   6.036   6.294   2.827  1.0633  0.9562 -0.3119
17865TIP3   OH275009   1.339   4.781   6.189 -0.1136 -0.2645  0.0431
17865TIP3    H175010   1.334   4.835   6.110 -2.6064  0.4981  0.6384
17865TIP3    H275011   1.343   4.843   6.261  0.7802 -0.9498  0.6069
17866TIP3   OH275012   2.022   3.904   4.300  0.0182 -0.7524  0.1644
17866TIP3    H175013   2.067   3.970   4.247 -1.0765  0.2987  0.5014
17866TIP3    H275014   1.964   3.860   4.239 -1.8977  1.0476  0.5522
17867TIP3   OH275015   6.259   4.654   3.373  0.4576  0.0570 -0.0006
17867TIP3    H175016   6.297   4.570   3.346  0.3488 -0.4440  1.3236
17867TIP3    H275017   6.165   4.645   3.354  0.1311 -0.8763  1.8364
17868TIP3   OH275018   2.783   1.132  16.855  0.3479 -0.0552  0.6910
17868TIP3    H175019   2.829   1.159  16.935 -0.7103  0.9028  0.9961
17868TIP3    H275020   2.744   1.047  16.879  1.6400 -0.7330  0.5261
17869TIP3   OH275021   1.388   3.537  11.972  0.5568 -0.1892  0.3768
17869TIP3    H175022   1.465   3.565  11.923  0.4301 -0.7157 -0.1284
17869TIP3    H275023   1.376   3.445  11.947  1.5842 -1.0584  2.7910
17870TIP3   OH275024   6.642   3.207  13.870 -0.1497 -0.5196  0.1838
17870TIP3    H175025   6.701   3.145  13.912  0.5085  1.6817  2.7759
17870TIP3    H275026   6.556   3.190  13.910  0.1255  0.4678  1.2406
17871TIP3   OH275027   3.062   2.141   0.550  0.5606  0.3493 -0.2498
17871TIP3    H175028   3.053   2.180   0.637  2.5702 -1.5089  0.8874
17871TIP3    H275029   3.111   2.060   0.565 -0.4305 -0.8556 -2.9272
17872TIP3   OH275030   1.676   4.241  14.056  0.3655 -0.0545  0.0784
17872TIP3    H175031   1.711   4.330  14.048 -0.0877 -0.0020 -1.6872
17872TIP3    H275032   1.616   4.246  14.131  0.9028  0.9331  0.4663
17873TIP3   OH275033   3.550   4.214   4.735 -0.7342  0.3450  0.0396
17873TIP3    H175034   3.543   4.136   4.790 -1.1337  1.9292  2.4039
17873TIP3    H275035   3.466   4.220   4.691 -0.3425 -1.0601 -0.9713
17874TIP3   OH275036   3.874   2.454   5.811  0.4704 -0.9667 -0.3129
17874TIP3    H175037   3.785   2.443   5.844  1.0164 -0.7157  1.3552
17874TIP3    H275038   3.917   2.370   5.826  1.1339 -0.4281  1.0392
17875TIP3   OH275039   2.810   0.459  15.740  0.2382 -0.6779  0.0312
17875TIP3    H175040   2.832   0.511  15.663 -3.8828  0.2529 -0.7755
17875TIP3    H275041   2.795   0.371  15.706  1.7641 -1.1406  0.4585
17876TIP3   OH275042   0.026   1.634  10.965 -0.6901  0.0950 -0.5173
17876TIP3    H175043   0.070   1.558  10.927 -1.1844  0.4707 -1.9012
17876TIP3    H275044  -0.035   1.663  10.898 -0.6271  1.6251  0.0319
17877TIP3   OH275045   5.100   3.200   0.432 -0.0706 -0.5141  0.2637
17877TIP3    H175046   5.079   3.118   0.388  2.6909 -2.1855  1.7913
17877TIP3    H275047   5.026   3.214   0.492 -1.5121 -0.7606 -1.3696
17878TIP3   OH275048   4.575   2.805   4.317  0.3043 -0.3058 -0.0783
17878TIP3    H175049   4.652   2.844   4.359  1.2111 -2.2952  0.2624
17878TIP3    H275050   4.501   2.858   4.347  1.3986  0.8694  0.6465
17879TIP3   OH275051   4.112   2.593  16.322 -0.2140  0.4891 -0.1667
17879TIP3    H175052   4.040   2.542  16.285 -0.6511 -0.2146  1.5918
17879TIP3    H275053   4.191   2.559  16.280 -0.5182 -1.5087  0.7825
17880TIP3   OH275054   2.186   1.487  14.415  0.0137 -0.4201  0.3095
17880TIP3    H175055   2.143   1.526  14.339 -2.1910 -1.1969  1.0900
17880TIP3    H275056   2.196   1.395  14.393 -0.9047 -0.7132  1.0119
17881TIP3   OH275057   0.701   1.219   4.867  0.1113  0.1052  0.2210
17881TIP3    H175058   0.623   1.248   4.820  0.0832 -0.9149 -0.3805
17881TIP3    H275059   0.673   1.217   4.959  0.0135  1.5943  0.2470
17882TIP3   OH275060   5.676   5.799   3.257 -0.4684 -0.0433  0.0065
17882TIP3    H175061   5.583   5.818   3.269 -0.9891 -0.9864 -2.0935
17882TIP3    H275062   5.717   5.833   3.336 -2.5487  0.6567  0.8736
17883TIP3   OH275063   5.792   1.108   0.451 -0.6220  0.1531  0.7608
17883TIP3    H175064   5.706   1.082   0.483 -0.5241 -0.1549  0.7791
17883TIP3    H275065   5.834   1.025   0.427 -0.5452  0.3456  0.2211
17884TIP3   OH275066   5.759   3.036   3.525  0.1580  0.9683  0.8400
17884TIP3    H175067   5.848   3.003   3.514  0.4158  1.0914  2.3531
17884TIP3    H275068   5.710   2.996   3.453  1.3061  0.4665  0.3016
17885TIP3   OH275069   1.951   6.160   6.555  0.1735  0.2314  0.6361
17885TIP3    H175070   1.899   6.126   6.627 -0.6810 -1.3269 -0.6704
17885TIP3    H275071   1.925   6.109   6.479  2.3660  0.5706 -0.4321
17886TIP3   OH275072   5.044   6.312  16.677 -0.4800 -0.6918  0.3946
17886TIP3    H175073   5.069   6.397  16.713  0.6734 -1.4762  1.5550
17886TIP3    H275074   5.098   6.249  16.725 -2.9781 -2.3218  1.2789
17887TIP3   OH275075   2.649   5.560   1.194 -0.0843  0.0111  0.4296
17887TIP3    H175076   2.645   5.465   1.190  1.0204 -0.1538  2.1185
17887TIP3    H275077   2.602   5.583   1.275 -2.1667  1.1136 -0.9937
17888TIP3   OH275078   4.290   2.109   5.313  0.3928  0.8825  0.0462
17888TIP3    H175079   4.285   2.167   5.237 -0.7644 -0.9645 -1.3962
17888TIP3    H275080   4.360   2.048   5.292 -1.0086 -0.6582 -0.3756
17889TIP3   OH275081   6.233   1.128  12.536  0.1399  0.1628 -0.3911
17889TIP3    H175082   6.170   1.075  12.487  0.0553 -0.5535  0.4601
17889TIP3    H275083   6.179   1.172  12.603  0.4227  0.2189 -0.1995
17890TIP3   OH275084   3.701   6.376  16.021  0.2291  0.6096  0.5055
17890TIP3    H175085   3.727   6.344  15.935 -1.1796 -0.8460  0.5664
17890TIP3    H275086   3.756   6.453  16.036  1.3601  0.1713 -1.1466
17891TIP3   OH275087   3.018   2.163   0.833 -0.3119  0.3306  0.1148
17891TIP3    H175088   3.096   2.181   0.886 -0.4419  0.9613  0.0988
17891TIP3    H275089   2.975   2.090   0.877 -0.5371  0.9846  1.0035
17892TIP3   OH275090   1.160   0.341  14.826  0.2997  0.0682  0.0531
17892TIP3    H175091   1.205   0.302  14.750  0.6288  0.7698 -0.1212
17892TIP3    H275092   1.178   0.281  14.898  0.1709 -0.4933 -0.3774
17893TIP3   OH275093   5.080   1.941  12.637 -0.5846  0.2617 -0.3941
17893TIP3    H175094   5.163   1.985  12.653 -1.4982  1.8832  0.2198
17893TIP3    H275095   5.057   1.901  12.721  0.6382 -2.2171 -1.1618
17894TIP3   OH275096   4.616   1.097   6.162 -0.5305 -0.8380 -0.0320
17894TIP3    H175097   4.600   1.019   6.216 -0.7712 -0.4238  0.5005
17894TIP3    H275098   4.648   1.163   6.224  1.2025 -0.9781 -0.7234
17895TIP3   OH275099   2.509   6.385   2.262 -0.3974  0.0145 -0.1167
17895TIP3    H175100   2.558   6.359   2.184  0.1858 -1.3542  0.6792
17895TIP3    H275101   2.574   6.425   2.319 -0.4602 -0.6401  0.4149
17896TIP3   OH275102   3.266   1.725  13.754  0.4907  0.2157 -0.3663
17896TIP3    H175103   3.206   1.683  13.816  1.2569  1.6352  1.4071
17896TIP3    H275104   3.316   1.787  13.807  2.9025 -0.2497 -1.9698
17897TIP3   OH275105   5.071   0.702  14.969  0.5571 -0.0100 -0.9238
17897TIP3    H175106   5.012   0.651  14.914  1.6497 -1.5665 -0.7037
17897TIP3    H275107   5.043   0.683  15.059  0.6461  0.2040 -0.8489
17898TIP3   OH275108   5.563   3.925  12.352  0.6394  0.0008  0.3432
17898TIP3    H175109   5.630   3.968  12.405 -1.5654  3.0741  0.9261
17898TIP3    H275110   5.611   3.886  12.279  3.1467  0.9224  1.3756
17899TIP3   OH275111   5.829   1.632   4.213 -0.5836  0.1283  0.2091
17899TIP3    H175112   5.912   1.676   4.193 -0.4045  0.6106  1.8506
17899TIP3    H275113   5.855   1.543   4.239 -0.1458  1.1199  3.7330
17900TIP3   OH275114   1.303   0.378   1.143  0.2066 -0.0537 -0.1065
17900TIP3    H175115   1.292   0.470   1.119 -1.5399 -0.1531  0.1965
17900TIP3    H275116   1.267   0.330   1.068 -0.2556 -0.4565  0.3708
17901TIP3   OH275117   3.088   0.548  13.152 -0.2946  0.1530  0.0831
17901TIP3    H175118   3.130   0.502  13.080 -0.9038  0.0757 -0.2282
17901TIP3    H275119   3.159   0.566  13.214  0.1377 -0.2332 -0.2970
17902TIP3   OH275120   3.973   4.740  11.346 -0.7060 -0.2827 -0.0214
17902TIP3    H175121   4.052   4.767  11.392 -1.0153  0.8675 -0.1407
17902TIP3    H275122   3.903   4.750  11.410 -1.1932  1.6665 -0.8099
17903TIP3   OH275123   4.925   3.183   4.625 -0.3773 -0.7174 -0.4628
17903TIP3    H175124   4.867   3.170   4.700 -0.9820  3.2302 -0.0020
17903TIP3    H275125   4.866   3.197   4.551  0.1377 -1.0873 -0.9584
17904TIP3   OH275126   0.496   0.135   2.846 -0.3243  0.2299  0.0090
17904TIP3    H175127   0.588   0.152   2.863 -0.6954  2.7932 -0.2188
17904TIP3    H275128   0.466   0.209   2.794 -3.2431  1.1042  2.6000
17905TIP3   OH275129   1.785   1.463  13.638 -0.0134  0.2084 -0.5962
17905TIP3    H175130   1.762   1.545  13.681  0.3801  0.1247 -0.2046
17905TIP3    H275131   1.702   1.417  13.628 -0.0213 -0.2091  1.0297
17906TIP3   OH275132   4.754   3.978  15.813 -0.0281 -0.0984 -0.0744
17906TIP3    H175133   4.685   4.036  15.844  0.7554  0.7090  0.1857
17906TIP3    H275134   4.836   4.020  15.840  0.5507 -1.7499  0.8924
17907TIP3   OH275135   2.105   2.869  16.546  0.2333 -0.5146  0.4122
17907TIP3    H175136   2.044   2.853  16.474  0.4371  0.1914  0.0790
17907TIP3    H275137   2.181   2.910  16.505  0.3028  0.0164  1.0538
17908TIP3   OH275138   2.686   1.303  11.087  0.2682 -0.0394  0.6063
17908TIP3    H175139   2.602   1.263  11.111  0.2669 -1.7119 -1.7974
17908TIP3    H275140   2.723   1.333  11.170 -1.5514 -1.5428  2.0573
17909TIP3   OH275141   5.744   5.695  16.590 -0.2406 -0.3082 -0.5122
17909TIP3    H175142   5.690   5.770  16.566  0.3289  0.0434 -0.7078
17909TIP3    H275143   5.762   5.707  16.683 -0.2795 -0.2869 -0.5072
17910TIP3   OH275144   2.592   3.674   4.028 -0.1527 -0.0475  0.0932
17910TIP3    H175145   2.685   3.667   4.007 -0.1993  0.2767 -0.2474
17910TIP3    H275146   2.554   3.718   3.951 -0.3927  0.8655  0.7168
17911TIP3   OH275147   2.965   0.956  11.635 -0.3648  0.2046  0.0229
17911TIP3    H175148   2.960   0.876  11.582  1.2939 -0.2468  0.4947
17911TIP3    H275149   3.055   0.959  11.665 -0.8372  1.3757  1.4196
17912TIP3   OH275150   6.522   4.895   6.914  0.2532 -0.4877 -0.6738
17912TIP3    H175151   6.615   4.895   6.892 -0.0545 -0.9535 -2.0626
17912TIP3    H275152   6.489   4.812   6.881 -0.4649 -0.8222  0.7631
17913TIP3   OH275153   1.896   5.798  15.382  0.7112 -0.0222 -0.1952
17913TIP3    H175154   1.963   5.736  15.409  0.2116  0.1177  1.5411
17913TIP3    H275155   1.814   5.749  15.389  0.3156  0.7864  1.1690
17914TIP3   OH275156   1.950   0.523   4.121 -0.8199  0.1251  0.3693
17914TIP3    H175157   2.002   0.457   4.165 -0.2059 -0.1245 -0.7012
17914TIP3    H275158   1.975   0.606   4.163  0.6233  0.0406 -0.2742
17915TIP3   OH275159   0.844   0.359  12.339  0.2988  0.1249 -0.2314
17915TIP3    H175160   0.886   0.294  12.394  1.0679 -0.1075 -1.0702
17915TIP3    H275161   0.892   0.356  12.257 -0.5099  0.8098 -0.7511
17916TIP3   OH275162   3.020   5.963  14.449  0.7129 -0.3948 -0.4055
17916TIP3    H175163   3.110   5.951  14.417  0.3930 -0.1504 -1.4241
17916TIP3    H275164   2.997   6.052  14.424  0.1309 -0.5058 -0.2845
17917TIP3   OH275165   2.644   5.365   0.110 -0.0510  0.0750  0.1043
17917TIP3    H175166   2.681   5.322   0.033  1.2281  1.0577  0.1388
17917TIP3    H275167   2.585   5.299   0.148  1.5864 -1.5373 -0.0245
17918TIP3   OH275168   1.085   2.005  16.079  0.0846 -0.5765  0.0704
17918TIP3    H175169   1.067   2.077  16.018  0.0722 -0.5217  0.1376
17918TIP3    H275170   1.140   2.045  16.146 -1.5165 -0.1288  1.1639
17919TIP3   OH275171   4.896   0.993  16.302 -0.2430  0.2950  0.3266
17919TIP3    H175172   4.955   1.005  16.228 -1.2278 -0.0602 -0.5524
17919TIP3    H275173   4.939   1.036  16.375  0.8443  0.4965 -0.4118
17920TIP3   OH275174   6.178   1.633  16.859  0.1555  0.2585 -0.2358
17920TIP3    H175175   6.101   1.592  16.897  1.2341 -1.3306  0.3256
17920TIP3    H275176   6.182   1.719  16.901  0.5799 -0.9442  2.4127
17921TIP3   OH275177   4.262   1.957  16.204  0.2309  0.4563 -0.1082
17921TIP3    H175178   4.271   1.910  16.288 -0.0319  1.3754  0.4449
17921TIP3    H275179   4.342   1.935  16.157  1.7066  2.0824  1.4917
17922TIP3   OH275180   3.207   1.536  16.276 -0.4752  0.2592  0.2582
17922TIP3    H175181   3.129   1.538  16.331 -2.0014  1.9969 -1.7756
17922TIP3    H275182   3.186   1.594  16.202  2.2136 -0.3229 -1.1080
17923TIP3   OH275183   4.818   1.548   2.350  1.1166 -0.3526 -0.6408
17923TIP3    H175184   4.739   1.513   2.392  1.2290 -2.4152 -2.0276
17923TIP3    H275185   4.797   1.640   2.332 -1.4711 -1.1433 -2.0849
17924TIP3   OH275186   2.006   3.127   3.164  0.0249  0.2452 -0.6302
17924TIP3    H175187   2.099   3.103   3.154  0.8471  2.2952  1.1846
17924TIP3    H275188   1.987   3.180   3.087  0.9860  1.4701 -0.0475
17925TIP3   OH275189   1.528   3.021  17.112 -0.1316  0.1007  0.2033
17925TIP3    H175190   1.619   2.995  17.127 -0.2678 -0.4215  0.1383
17925TIP3    H275191   1.478   2.940  17.119 -0.5309  0.2988 -0.2939
17926TIP3   OH275192   4.268   1.310   1.239 -0.6754  0.2092 -0.3613
17926TIP3    H175193   4.344   1.293   1.296 -1.1069  0.6929  0.3730
17926TIP3    H275194   4.192   1.293   1.295 -1.1534 -1.9289 -1.5649
17927TIP3   OH275195   4.754   1.522   4.513  0.0511 -0.5803 -0.4600
17927TIP3    H175196   4.837   1.555   4.547  0.1264 -1.0941 -0.1276
17927TIP3    H275197   4.761   1.427   4.524 -1.2729 -0.5350  1.2112
17928TIP3   OH275198   0.273   1.554  13.919  0.8154  0.1745 -0.2444
17928TIP3    H175199   0.230   1.572  14.002  1.3410  0.2472  0.0214
17928TIP3    H275200   0.270   1.637  13.871  0.8415  0.2338 -0.1424
17929TIP3   OH275201   6.700   1.268   3.204  0.4194 -0.8609  0.4801
17929TIP3    H175202   6.758   1.193   3.218  1.3794 -0.2502 -0.1014
17929TIP3    H275203   6.652   1.247   3.123 -0.0018 -1.2580  0.8297
17930TIP3   OH275204   5.328   2.722  16.823 -0.2602 -0.1584  0.1980
17930TIP3    H175205   5.317   2.808  16.782 -2.5719  0.4825  1.9350
17930TIP3    H275206   5.260   2.668  16.784 -0.6777 -0.3372  1.1471
17931TIP3   OH275207   3.042   5.017  15.642 -0.6898  0.4439  0.3515
17931TIP3    H175208   3.115   4.979  15.691  0.1866  0.7710 -0.6580
17931TIP3    H275209   3.080   5.042  15.558 -2.4332 -1.4507 -1.1010
17932TIP3   OH275210   1.953   1.091   4.506  0.0333 -0.3081 -0.6709
17932TIP3    H175211   2.043   1.101   4.475 -0.5826  1.1823 -2.1306
17932TIP3    H275212   1.935   1.173   4.553 -0.4002 -0.8221  0.0712
17933TIP3   OH275213   2.792   3.064  16.609 -0.3672  0.1255 -0.2070
17933TIP3    H175214   2.761   3.074  16.699 -1.5318  0.6139 -0.6437
17933TIP3    H275215   2.857   3.132  16.597 -1.7887  1.5134 -0.3849
17934TIP3   OH275216   2.557   5.072  15.929 -0.0089  0.3365 -0.0570
17934TIP3    H175217   2.541   5.128  16.004 -0.3514 -0.2271  0.2997
17934TIP3    H275218   2.578   5.132  15.858 -0.9888  0.9561  0.1597
17935TIP3   OH275219   1.333   4.879  13.986 -0.3168 -0.2591  0.7351
17935TIP3    H175220   1.411   4.873  14.041  1.1166 -0.1377 -1.1996
17935TIP3    H275221   1.336   4.800  13.932 -1.4097 -0.1240  0.4520
17936TIP3   OH275222   0.710   3.907   4.270 -0.3614  0.2570  0.2984
17936TIP3    H175223   0.628   3.955   4.277 -0.9130 -0.7473  0.8116
17936TIP3    H275224   0.685   3.816   4.256  0.6788  0.2119 -1.6058
17937TIP3   OH275225   1.193   3.302   3.694  0.6906  0.4669 -0.3350
17937TIP3    H175226   1.239   3.255   3.624 -1.0838 -1.1313 -0.4997
17937TIP3    H275227   1.164   3.233   3.754 -0.8622  1.4791  0.1270
17938TIP3   OH275228   6.602   4.841   5.750  0.0081  0.2068  0.2278
17938TIP3    H175229   6.656   4.888   5.814 -0.9404  1.6760  0.0159
17938TIP3    H275230   6.650   4.849   5.667 -0.0779  0.7255  0.2219
17939TIP3   OH275231   4.377   2.251   0.295  0.6275 -0.1581  0.0828
17939TIP3    H175232   4.466   2.269   0.327  1.0673 -2.7231  0.4655
17939TIP3    H275233   4.377   2.284   0.205  1.6259  0.7846  0.4058
17940TIP3   OH275234   0.725   3.569  11.488 -0.1265 -0.4064 -0.6005
17940TIP3    H175235   0.737   3.534  11.400 -0.1884 -0.1419 -0.7141
17940TIP3    H275236   0.808   3.553  11.532 -0.5329 -1.7895 -0.2680
17941TIP3   OH275237   0.374   0.834  17.207 -0.0275 -0.4630  0.9249
17941TIP3    H175238   0.317   0.776  17.156 -0.7400  0.5408  0.5400
17941TIP3    H275239   0.320   0.861  17.281 -0.8599  2.0552 -0.4476
17942TIP3   OH275240   1.420   3.523  13.954 -0.4276 -0.8470  0.0959
17942TIP3    H175241   1.408   3.591  14.020 -0.4668 -1.3774  0.6406
17942TIP3    H275242   1.503   3.545  13.912 -1.9996  1.5329 -2.1336
17943TIP3   OH275243   2.146   1.778   1.700  0.0166 -0.5506  0.5019
17943TIP3    H175244   2.096   1.710   1.655  0.3313 -1.0231  0.8530
17943TIP3    H275245   2.080   1.826   1.752  0.0290 -1.7108  1.6345
17944TIP3   OH275246   6.150   6.417  15.090  0.2443  0.0200 -0.3902
17944TIP3    H175247   6.070   6.470  15.093  0.0415 -0.2911 -0.2446
17944TIP3    H275248   6.145   6.371  15.006 -1.3587 -2.4745  0.9198
17945TIP3   OH275249   1.990   1.564  17.171 -0.8516 -0.4700  0.0948
17945TIP3    H175250   2.018   1.491  17.116 -1.6121 -1.2881  0.7674
17945TIP3    H275251   1.905   1.589  17.135 -0.6362  0.0308 -0.0747
17946TIP3   OH275252   0.764   4.662   1.441  0.2137  0.0328 -0.3084
17946TIP3    H175253   0.683   4.614   1.428 -0.1989  0.7832 -0.5517
17946TIP3    H275254   0.761   4.691   1.532  1.2954 -1.8911  0.4023
17947TIP3   OH275255   5.359   5.001  11.469 -0.2143 -0.9325  0.3159
17947TIP3    H175256   5.405   4.917  11.476  1.2980 -0.0276  2.2243
17947TIP3    H275257   5.425   5.062  11.436 -0.9560 -0.2370  0.0801
17948TIP3   OH275258   3.382   2.087  11.174  0.3494  0.0836  0.0011
17948TIP3    H175259   3.354   2.178  11.163  1.2168  0.3058 -0.4307
17948TIP3    H275260   3.412   2.060  11.087 -0.0380 -0.6644  0.0955
17949TIP3   OH275261   4.580   6.076  13.946 -0.1887 -0.1978 -0.7729
17949TIP3    H175262   4.606   6.107  14.033  0.3561  1.0351 -1.3483
17949TIP3    H275263   4.506   6.132  13.922 -1.4172 -1.6131 -0.4497
17950TIP3   OH275264   3.236   1.343  12.820 -0.4380 -0.8445  0.4828
17950TIP3    H175265   3.176   1.407  12.782  0.5304  0.3901  0.9753
17950TIP3    H275266   3.182   1.297  12.885 -1.7510 -2.1145 -1.3864
17951TIP3   OH275267   3.051   1.308   3.735 -0.1298 -1.2111  0.4481
17951TIP3    H175268   3.096   1.314   3.651 -0.3011 -1.6653  0.3234
17951TIP3    H275269   3.120   1.290   3.798  0.3011  1.1198  0.7227
17952TIP3   OH275270   0.497   4.829   2.431  0.3211  0.0578  0.4081
17952TIP3    H175271   0.506   4.918   2.464 -0.2237  0.9908 -1.8263
17952TIP3    H275272   0.431   4.789   2.489  0.4035  1.1485  1.2833
17953TIP3   OH275273   6.363   2.998   3.606  0.0525 -0.0215 -0.3009
17953TIP3    H175274   6.325   2.925   3.557 -3.4718  1.8494 -0.6551
17953TIP3    H275275   6.335   3.076   3.559  0.9437  1.7163  1.8538
17954TIP3   OH275276   0.932   0.071   4.949  0.7023  0.1875 -0.2367
17954TIP3    H175277   0.896   0.106   5.030 -1.2341 -0.8681 -0.5782
17954TIP3    H275278   1.013   0.028   4.976  2.5824  3.7365  0.3486
17955TIP3   OH275279   3.637   4.000  15.264  0.0738  0.0560  0.4845
17955TIP3    H175280   3.672   3.976  15.178  0.6459 -0.7450  0.9283
17955TIP3    H275281   3.585   3.925  15.291 -2.1538  1.2537 -0.1970
17956TIP3   OH275282   1.369   1.220   0.837  0.3161 -0.7570 -0.1667
17956TIP3    H175283   1.390   1.148   0.896  0.5048 -0.3584  0.2617
17956TIP3    H275284   1.276   1.210   0.818  0.0352 -0.3787  0.9224
17957TIP3   OH275285   3.483   4.556  14.014  0.5666 -0.1820  0.7598
17957TIP3    H175286   3.399   4.587  13.979  2.2387  2.0545 -1.6401
17957TIP3    H275287   3.494   4.602  14.097 -0.2172  0.1029  0.7113
17958TIP3   OH275288   1.415   0.762   0.393  1.0654 -0.0751  0.2748
17958TIP3    H175289   1.485   0.697   0.388 -0.2271 -1.4615 -0.6197
17958TIP3    H275290   1.360   0.733   0.465  0.9078  0.5039  0.3976
17959TIP3   OH275291   1.741   3.135  11.649  0.3514  0.1125 -0.4338
17959TIP3    H175292   1.689   3.065  11.609  0.1106 -0.2745  0.5453
17959TIP3    H275293   1.677   3.201  11.674  0.3942 -0.0801  0.1940
17960TIP3   OH275294   0.672   2.873   6.004 -0.1891 -0.1516 -0.2546
17960TIP3    H175295   0.761   2.851   5.977  0.4617  2.9856 -0.9566
17960TIP3    H275296   0.620   2.863   5.925  0.0941  0.7760 -0.5624
17961TIP3   OH275297   1.893   5.512  11.454 -0.4198  0.4347  0.1632
17961TIP3    H175298   1.805   5.539  11.481 -0.8405 -0.3043 -0.4118
17961TIP3    H275299   1.927   5.465  11.530 -1.3403 -1.0585 -0.2907
17962TIP3   OH275300   4.294   2.179  16.921 -0.4020  0.2164  0.0131
17962TIP3    H175301   4.212   2.203  16.963 -1.1480 -0.8634 -0.7645
17962TIP3    H275302   4.348   2.144  16.992 -1.9276 -2.3158  0.0262
17963TIP3   OH275303   2.212   5.597   4.673  0.6038  0.4913  0.0262
17963TIP3    H175304   2.162   5.678   4.666 -1.8115 -1.0272 -1.9987
17963TIP3    H275305   2.185   5.558   4.756 -1.0207  0.0913 -0.6616
17964TIP3   OH275306   6.277   6.254  13.325 -0.3507  0.3004  0.2704
17964TIP3    H175307   6.206   6.211  13.276  0.0703  2.5556 -2.6255
17964TIP3    H275308   6.336   6.182  13.349 -1.8455 -1.2304 -0.3762
17965TIP3   OH275309   2.639   6.316   2.567 -0.3796  0.1433 -0.3651
17965TIP3    H175310   2.570   6.296   2.504 -1.7194  1.9267  0.4409
17965TIP3    H275311   2.592   6.329   2.650  1.1610 -0.5927  0.6724
17966TIP3   OH275312   1.718   1.068  17.161  0.2447  0.0106  0.4700
17966TIP3    H175313   1.691   1.053  17.251  0.0049 -1.0050  0.2387
17966TIP3    H275314   1.800   1.117  17.169 -0.6633  1.5022  1.1914
17967TIP3   OH275315   0.177   3.334   1.365  0.3075  0.4150 -0.6968
17967TIP3    H175316   0.186   3.385   1.284  0.1793  1.2336 -0.2100
17967TIP3    H275317   0.254   3.358   1.416  1.0176 -1.0089 -1.0440
17968TIP3   OH275318   0.865   1.326  11.160  0.6930 -0.7206 -0.1418
17968TIP3    H175319   0.890   1.413  11.129  0.2043 -0.0609  1.2408
17968TIP3    H275320   0.784   1.306  11.113 -1.2053  1.1726  2.0821
17969TIP3   OH275321   3.189   3.115  16.896  0.0209  0.1218  0.4413
17969TIP3    H175322   3.203   3.070  16.979  0.0718 -0.3439  0.1852
17969TIP3    H275323   3.179   3.207  16.919  0.3145  0.0315  0.9349
17970TIP3   OH275324   2.318   3.862  14.994 -0.5013  0.1584  0.7589
17970TIP3    H175325   2.292   3.808  14.920 -1.1627  1.7340 -0.2178
17970TIP3    H275326   2.314   3.952  14.961 -0.4287  0.8855  2.5939
17971TIP3   OH275327   0.511   3.172  11.130 -0.1742 -0.1114 -0.4493
17971TIP3    H175328   0.496   3.153  11.223  0.8678 -1.5374 -0.5371
17971TIP3    H275329   0.444   3.121  11.084  0.7044 -1.2152 -0.5510
17972TIP3   OH275330   0.607   1.392   5.794  0.4599  0.5878 -0.0665
17972TIP3    H175331   0.623   1.338   5.871  1.7253 -0.0438 -0.7357
17972TIP3    H275332   0.687   1.443   5.783  1.7524 -1.7783 -2.8388
17973TIP3   OH275333   1.984   3.999   0.491 -0.6100 -0.5673 -0.2221
17973TIP3    H175334   1.975   4.018   0.585 -1.6563 -0.6835 -0.2892
17973TIP3    H275335   2.074   4.025   0.471 -1.2726  2.4454  0.1509
17974TIP3   OH275336   5.964   4.066   2.157 -0.4590 -0.0769 -0.3934
17974TIP3    H175337   6.057   4.056   2.178  0.0746 -0.2437 -2.6233
17974TIP3    H275338   5.930   3.976   2.158 -0.3637 -0.1154 -0.5331
17975TIP3   OH275339   3.009   1.183   4.422  0.2102  0.5077  0.5856
17975TIP3    H175340   2.961   1.121   4.367 -0.3542  1.4334  0.0078
17975TIP3    H275341   2.947   1.253   4.440  1.5429  2.1915 -0.9060
17976TIP3   OH275342   2.931   6.035   4.033 -0.3605 -0.7793  0.0306
17976TIP3    H175343   2.914   6.129   4.042  2.2490 -0.3614  1.8591
17976TIP3    H275344   2.921   6.000   4.121  0.8300 -1.7876 -0.2065
17977TIP3   OH275345   1.303   0.412   4.195  0.0603 -0.2562 -0.0289
17977TIP3    H175346   1.343   0.494   4.224 -0.4108  0.7036 -1.9968
17977TIP3    H275347   1.276   0.369   4.277  0.7006  1.3209  1.0642
17978TIP3   OH275348   2.924   2.252   5.637  0.3652 -0.3981 -0.0498
17978TIP3    H175349   2.981   2.245   5.560 -0.5762 -0.6402 -0.7489
17978TIP3    H275350   2.860   2.319   5.613  0.4880  0.0390  0.8144
17979TIP3   OH275351   6.142   6.781  16.224  0.1682 -0.2989  0.2345
17979TIP3    H175352   6.160   6.863  16.178 -0.5982 -0.9712 -1.3685
17979TIP3    H275353   6.135   6.805  16.316  0.0113  1.4243 -0.2053
17980TIP3   OH275354   1.195   5.896  12.741 -0.3187 -0.0788 -0.0229
17980TIP3    H175355   1.114   5.916  12.789 -0.2091  0.4347 -0.0557
17980TIP3    H275356   1.164   5.866  12.655 -0.5656 -1.9915  0.6750
17981TIP3   OH275357   6.747   2.004  10.890 -0.6580 -0.3037  0.1474
17981TIP3    H175358   6.657   1.976  10.874 -1.1686  1.1209  0.3893
17981TIP3    H275359   6.760   2.078  10.831 -0.0190  0.1985  0.8976
17982TIP3   OH275360   2.058   6.746  13.344  0.3895 -0.7025  0.4027
17982TIP3    H175361   2.099   6.671  13.301 -0.6051 -1.9374  1.5178
17982TIP3    H275362   2.130   6.805  13.364  1.1597 -1.2112 -0.7602
17983TIP3   OH275363   5.697   1.063   6.009  0.3557  0.2263 -0.5563
17983TIP3    H175364   5.756   1.116   6.062 -0.1857  0.7624 -0.4793
17983TIP3    H275365   5.743   0.979   5.998  0.7225  0.3118  0.2711
17984TIP3   OH275366   2.143   6.125  16.495  0.2414  0.2089  0.3070
17984TIP3    H175367   2.138   6.162  16.407 -2.0505 -0.1354  0.2090
17984TIP3    H275368   2.189   6.190  16.546 -0.0045  1.2736 -0.7704
17985TIP3   OH275369   1.489   1.593  17.021 -0.0217  0.1555  0.5223
17985TIP3    H175370   1.421   1.578  16.955  0.1956 -0.6514  0.4716
17985TIP3    H275371   1.448   1.567  17.104  0.2827 -0.5398  0.4648
17986TIP3   OH275372   1.684   2.375   0.995 -0.1601 -0.1968 -0.5135
17986TIP3    H175373   1.696   2.339   0.907 -2.1573 -0.6848 -0.6319
17986TIP3    H275374   1.600   2.422   0.991 -1.3519 -1.9265  1.6109
17987TIP3   OH275375   1.717   0.268  11.941 -0.3763 -0.2974 -0.3460
17987TIP3    H175376   1.755   0.235  11.860 -0.5166 -0.8516 -0.1869
17987TIP3    H275377   1.622   0.258  11.930 -0.4877  0.8912 -0.6593
17988TIP3   OH275378   0.641   0.195   6.307 -0.6647  0.1510  0.3451
17988TIP3    H175379   0.549   0.207   6.283 -1.0468  1.1263  2.1054
17988TIP3    H275380   0.664   0.110   6.270 -1.6613  0.7427 -1.8333
17989TIP3   OH275381   4.986   6.465   5.512  0.6254  0.3750 -0.4624
17989TIP3    H175382   4.915   6.402   5.510  0.8669  0.1194 -1.6815
17989TIP3    H275383   5.064   6.413   5.530  0.6557  0.5037 -0.2158
17990TIP3   OH275384   0.439   1.032   1.103 -0.1207  0.0811 -0.3114
17990TIP3    H175385   0.386   1.095   1.054  0.3007  1.6875  1.1805
17990TIP3    H275386   0.422   0.948   1.061 -2.8167  0.7348 -0.7140
17991TIP3   OH275387   1.700   5.044   2.545 -0.3220  0.1860  0.3641
17991TIP3    H175388   1.794   5.053   2.564 -0.0519 -0.4068 -0.5927
17991TIP3    H275389   1.664   5.132   2.557  0.6472  0.7549 -0.7198
17992TIP3   OH275390   4.394   5.449  16.428 -0.4520 -0.1637 -0.0194
17992TIP3    H175391   4.380   5.397  16.507  4.1025  0.2293  1.3394
17992TIP3    H275392   4.442   5.526  16.458  0.1175  0.7555 -2.9876
17993TIP3   OH275393   5.804   4.283  11.782 -0.0346 -0.3956 -0.0128
17993TIP3    H175394   5.793   4.201  11.735 -1.8324 -0.3865  0.2938
17993TIP3    H275395   5.723   4.332  11.765  1.2373  1.6064 -0.7118
17994TIP3   OH275396   3.699   4.631   4.694 -1.1360 -0.2241  0.0987
17994TIP3    H175397   3.721   4.548   4.650  1.9083  0.8829 -0.6837
17994TIP3    H275398   3.701   4.696   4.624  1.8200  1.2647  1.4199
17995TIP3   OH275399   6.476   3.509  17.139 -0.2496 -1.0221  0.1493
17995TIP3    H175400   6.436   3.427  17.167 -1.1141 -0.6388  0.0528
17995TIP3    H275401   6.563   3.507  17.179 -1.3986 -0.4950  2.9339
17996TIP3   OH275402   5.576   6.010  13.286  0.3706 -0.3458  0.3787
17996TIP3    H175403   5.589   6.103  13.271  0.7966 -0.4410  0.1320
17996TIP3    H275404   5.550   5.975  13.201  0.2796 -0.4659  0.4544
17997TIP3   OH275405   2.191   1.105  15.884 -0.4945  0.3944  0.7086
17997TIP3    H175406   2.283   1.082  15.900  0.1598  2.0462 -0.4140
17997TIP3    H275407   2.167   1.055  15.806  0.1410  1.4956 -0.2336
17998TIP3   OH275408   5.418   2.843  14.361  0.8080 -0.2901 -0.2896
17998TIP3    H175409   5.485   2.903  14.326  0.0797  0.2441 -0.7784
17998TIP3    H275410   5.338   2.895  14.363  0.4221 -0.8917  0.4077
17999TIP3   OH275411   5.596   1.247  12.029 -0.2913 -0.2433 -0.1074
17999TIP3    H175412   5.683   1.262  11.992  1.0407 -0.4609  2.6912
17999TIP3    H275413   5.584   1.153  12.023  0.7559 -0.5258  1.5903
18000TIP3   OH275414   0.725   3.399  13.825  0.0112  0.1224 -0.1051
18000TIP3    H175415   0.787   3.348  13.877  0.2672  1.1194  0.5859
18000TIP3    H275416   0.779   3.448  13.763 -0.2094 -0.1454 -0.5212
18001TIP3   OH275417   4.312   0.345   3.729  0.1491 -0.3604  0.5317
18001TIP3    H175418   4.244   0.286   3.762 -1.0090  1.3970  1.4552
18001TIP3    H275419   4.272   0.387   3.653  0.3749  0.3245  0.7832
18002TIP3   OH275420   5.946   2.122   0.968  0.3120 -0.0904  0.2958
18002TIP3    H175421   5.935   2.029   0.950  1.5582  0.0832 -1.5346
18002TIP3    H275422   5.888   2.166   0.906  2.5649  0.4305 -1.5523
18003TIP3   OH275423   1.776   3.417   5.510 -0.5339  0.1142  0.2064
18003TIP3    H175424   1.693   3.425   5.558 -0.5492  1.3293  0.0237
18003TIP3    H275425   1.799   3.507   5.488  2.3196  0.1653  2.7066
18004TIP3   OH275426   5.120   0.118   6.233 -0.3145 -0.0021  0.5049
18004TIP3    H175427   5.179   0.119   6.159 -2.4966  2.0348 -1.3640
18004TIP3    H275428   5.150   0.189   6.290  0.1590 -0.2220  0.5272
18005TIP3   OH275429   0.710   4.753  16.149 -0.5945  0.2449  0.2787
18005TIP3    H175430   0.715   4.810  16.226 -0.7850  1.2817 -0.4545
18005TIP3    H275431   0.743   4.807  16.078 -1.6250 -0.2621 -0.6055
18006TIP3   OH275432   1.581   1.182  16.217  0.8864  0.3295  0.0942
18006TIP3    H175433   1.610   1.199  16.127  2.7270  1.8751  0.9164
18006TIP3    H275434   1.556   1.269  16.251  3.1704  0.3287  2.0158
18007TIP3   OH275435   3.024   0.086   6.005  0.7302  0.2439 -0.6011
18007TIP3    H175436   2.959   0.041   6.057  1.1781  0.0022 -0.2448
18007TIP3    H275437   3.041   0.168   6.052  0.9820  0.1207 -0.4776
18008TIP3   OH275438   1.020   3.207  16.315 -0.2819  0.5749 -0.2700
18008TIP3    H175439   0.963   3.200  16.391  1.3325 -0.4062  0.8989
18008TIP3    H275440   1.027   3.118  16.282 -1.3282  1.0515 -1.8991
18009TIP3   OH275441   1.875   0.413  12.394 -0.2638 -0.3166  0.1873
18009TIP3    H175442   1.871   0.354  12.318  0.9720  0.7482 -0.7448
18009TIP3    H275443   1.923   0.489  12.362 -0.9877  0.7866  1.6499
18010TIP3   OH275444   5.976   1.410   4.269  0.3433  0.8353  0.2809
18010TIP3    H175445   6.057   1.427   4.221 -0.1882  2.5428 -0.1092
18010TIP3    H275446   5.999   1.422   4.361  0.8448 -0.1651  0.3014
18011TIP3   OH275447   4.241   4.399  11.993  0.0327 -0.1026  0.2097
18011TIP3    H175448   4.195   4.357  12.065 -1.7069  1.7368  0.2554
18011TIP3    H275449   4.256   4.329  11.930  0.6971 -1.5343  1.8875
18012TIP3   OH275450   3.642   3.852   3.923  0.8213  0.3439 -0.0670
18012TIP3    H175451   3.638   3.896   3.838  1.8488  1.9253  0.6463
18012TIP3    H275452   3.588   3.907   3.981  0.3400 -0.5665  0.3612
18013TIP3   OH275453   5.984   1.028  12.429  0.1515 -0.0096 -0.0118
18013TIP3    H175454   5.933   1.007  12.507  0.2065  1.1319  0.3515
18013TIP3    H275455   5.922   1.017  12.357 -0.7753  1.7170  0.4570
18014TIP3   OH275456   0.818   4.616  14.393 -0.6201  0.5041 -0.0545
18014TIP3    H175457   0.749   4.566  14.436 -0.5577  0.0272 -0.4984
18014TIP3    H275458   0.792   4.620  14.301  0.1146  0.0044 -0.2981
18015TIP3   OH275459   3.899   0.258  13.163 -0.0223 -0.2726  0.3751
18015TIP3    H175460   3.980   0.219  13.130 -0.5447 -0.7960 -0.3377
18015TIP3    H275461   3.885   0.335  13.108 -0.3047 -0.5093  0.1106
18016TIP3   OH275462   0.398   0.353   2.650  0.0082  0.4178 -0.4683
18016TIP3    H175463   0.304   0.346   2.665  0.2430  1.2937  1.8589
18016TIP3    H275464   0.406   0.371   2.556 -2.0921 -0.1893 -0.8213
18017TIP3   OH275465   2.235   0.453   0.456 -0.4294 -0.2439 -0.0143
18017TIP3    H175466   2.200   0.497   0.379  0.9781  0.2423 -0.4204
18017TIP3    H275467   2.230   0.519   0.526 -2.0146 -0.7929  0.4335
18018TIP3   OH275468   5.457   0.201   0.450  0.0379 -0.3631  0.4665
18018TIP3    H175469   5.455   0.261   0.525 -1.8339 -0.8563  0.8655
18018TIP3    H275470   5.365   0.188   0.427  0.3945 -2.7690  0.1453
18019TIP3   OH275471   0.434   6.698   1.780 -0.7160 -0.3889 -0.3897
18019TIP3    H175472   0.527   6.683   1.763  0.3124 -1.1092  4.3908
18019TIP3    H275473   0.424   6.793   1.777  0.1861 -0.3021 -0.9363
18020TIP3   OH275474   4.979   2.184  11.796  0.0535  0.0731  0.0181
18020TIP3    H175475   5.065   2.215  11.825  0.0609  0.1075 -0.0419
18020TIP3    H275476   4.945   2.135  11.872  0.6119 -0.9298 -0.3574
18021TIP3   OH275477   0.811   2.998   0.227  0.0230 -0.1906  0.3002
18021TIP3    H175478   0.853   3.020   0.143  0.4263 -1.5632  0.1169
18021TIP3    H275479   0.752   3.072   0.244  0.2377  0.3146 -0.9879
18022TIP3   OH275480   1.645   2.429  12.740  0.0969  0.3110 -0.0404
18022TIP3    H175481   1.723   2.483  12.756  1.5381 -0.6764 -3.0887
18022TIP3    H275482   1.580   2.491  12.706 -0.4426  1.0768  2.2003
18023TIP3   OH275483   1.141   0.479  14.089 -0.4459  1.0974 -0.3069
18023TIP3    H175484   1.104   0.524  14.014 -0.0821  1.9492  0.0088
18023TIP3    H275485   1.066   0.455  14.143 -0.6941  0.6236 -0.8658
18024TIP3   OH275486   0.448   4.670   0.837 -0.2184 -0.1229 -0.2767
18024TIP3    H175487   0.497   4.748   0.811 -1.0349  1.6071  2.8308
18024TIP3    H275488   0.512   4.599   0.838  1.0827  1.0171 -0.9067
18025TIP3   OH275489   5.277   5.267   2.941  0.2969 -0.0448  0.4259
18025TIP3    H175490   5.218   5.219   2.883  0.2463 -1.3616  1.5151
18025TIP3    H275491   5.328   5.323   2.882 -0.5644 -0.4646 -0.7521
18026TIP3   OH275492   3.311   4.873   4.556  0.0921 -0.4817  0.2530
18026TIP3    H175493   3.396   4.918   4.548  0.7323 -1.4760  1.1841
18026TIP3    H275494   3.276   4.872   4.467 -0.2367  2.3488  0.2526
18027TIP3   OH275495   5.579   4.715  13.765  0.1997 -0.1568 -0.3124
18027TIP3    H175496   5.542   4.764  13.839  0.2829 -3.8217  2.4276
18027TIP3    H275497   5.504   4.669  13.728  0.5910 -0.3617 -0.8572
18028TIP3   OH275498   0.307   3.878  10.490  0.2341  0.0468  0.0693
18028TIP3    H175499   0.392   3.901  10.528  1.0473 -0.3295 -1.4346
18028TIP3    H275500   0.328   3.843  10.404 -1.5948  2.1745 -1.3704
18029TIP3   OH275501   2.976   2.896  14.722  0.0883 -0.6554  0.4601
18029TIP3    H175502   3.014   2.811  14.742 -1.3456 -1.4552 -0.0543
18029TIP3    H275503   2.916   2.879  14.649 -0.2733  0.7842  0.3919
18030TIP3   OH275504   4.291   1.429   5.268 -0.0470  0.1739 -0.2396
18030TIP3    H175505   4.208   1.381   5.264 -0.4903  0.7651  1.1687
18030TIP3    H275506   4.266   1.521   5.260  0.2838  0.4605  1.6782
18031TIP3   OH275507   1.207   2.600  16.603  0.6402  0.2205  0.3512
18031TIP3    H175508   1.278   2.544  16.636  0.5097  0.8789  1.8192
18031TIP3    H275509   1.133   2.580  16.660 -0.5225 -0.7241 -1.3862
18032TIP3   OH275510   6.376   4.712   0.933  0.8763  0.3350  0.0188
18032TIP3    H175511   6.306   4.659   0.970  1.7359 -0.9993 -0.1793
18032TIP3    H275512   6.360   4.801   0.966 -0.8961  0.0757 -0.0460
18033TIP3   OH275513   2.569   5.119  14.583 -0.1899 -0.1806 -0.0290
18033TIP3    H175514   2.487   5.072  14.596 -1.3425  1.0690 -2.3512
18033TIP3    H275515   2.544   5.208  14.560  1.8375  0.3760 -0.3502
18034TIP3   OH275516   1.911   4.488   2.449 -0.0940  0.2180  0.3429
18034TIP3    H175517   1.841   4.530   2.398 -1.1005 -1.8214 -0.1046
18034TIP3    H275518   1.967   4.560   2.478 -1.9615  1.8636  0.0755
18035TIP3   OH275519   4.668   3.718   3.995  0.1552  0.1580  0.0687
18035TIP3    H175520   4.595   3.754   4.046  0.5566  2.4143 -0.7920
18035TIP3    H275521   4.746   3.753   4.037  0.6144 -0.2612 -0.4228
18036TIP3   OH275522   1.017   5.334  11.848  0.2780 -0.0873 -0.2085
18036TIP3    H175523   0.950   5.403  11.851 -0.6791 -0.9813 -0.3826
18036TIP3    H275524   1.060   5.338  11.934 -0.2334  0.2818  0.0357
18037TIP3   OH275525   5.570   3.694   0.023 -0.0686 -0.4404 -0.2943
18037TIP3    H175526   5.649   3.715  -0.027  0.5251 -2.4314 -0.2881
18037TIP3    H275527   5.600   3.687   0.113 -0.4214 -0.3846 -0.1710
18038TIP3   OH275528   6.503   0.296  13.186  0.2451 -0.0985  0.0941
18038TIP3    H175529   6.533   0.386  13.177  0.4529 -0.0978  0.6912
18038TIP3    H275530   6.436   0.285  13.119 -1.3823  1.1956  1.4101
18039TIP3   OH275531   2.577   0.014   0.974 -0.0827 -0.0349 -0.4929
18039TIP3    H175532   2.668  -0.014   0.983 -0.5027 -0.9737  1.6170
18039TIP3    H275533   2.567   0.084   1.040 -0.6941  0.6399 -1.2786
18040TIP3   OH275534   4.811   0.214  11.878 -0.9602 -0.1556 -0.0221
18040TIP3    H175535   4.857   0.238  11.958 -0.7966  0.8616 -0.4048
18040TIP3    H275536   4.799   0.297  11.831 -3.5032 -0.3152  0.2282
18041TIP3   OH275537   4.335   1.567   5.800 -0.3177 -0.2916 -0.2541
18041TIP3    H175538   4.358   1.624   5.873 -2.3387  0.9774 -0.5177
18041TIP3    H275539   4.409   1.507   5.791  0.6521  0.5146  1.8233
18042TIP3   OH275540   5.846   3.187  15.106  0.5588  0.4886  0.0706
18042TIP3    H175541   5.853   3.249  15.034 -0.4269 -0.1481 -0.5926
18042TIP3    H275542   5.757   3.152  15.100  0.7986 -0.3354  0.9643
18043TIP3   OH275543   5.735   4.729   2.943  0.3286 -0.2598  0.4985
18043TIP3    H175544   5.655   4.774   2.969  0.1059  0.3689 -1.1490
18043TIP3    H275545   5.799   4.751   3.010 -0.6282 -0.0143  1.3436
18044TIP3   OH275546   2.319   2.862  12.048 -0.1709 -0.3606 -0.3518
18044TIP3    H175547   2.238   2.911  12.061 -0.3097 -0.6543 -0.1053
18044TIP3    H275548   2.366   2.870  12.131 -1.0787 -2.2738  0.4151
18045TIP3   OH275549   5.482   2.405  12.374  0.5782 -0.2989 -0.4857
18045TIP3    H175550   5.571   2.387  12.403  0.5941 -0.6269 -0.7280
18045TIP3    H275551   5.429   2.408  12.454  1.1047  1.7632 -0.1468
18046TIP3   OH275552   2.089   4.908  12.727  0.5597 -0.0400  0.1130
18046TIP3    H175553   2.132   4.825  12.705  2.8666  0.6299  1.6420
18046TIP3    H275554   2.023   4.920  12.659 -0.2821 -3.3793  0.1485
18047TIP3   OH275555   4.625   3.708   5.931  0.0637  0.1105 -0.4394
18047TIP3    H175556   4.700   3.681   5.878 -0.4087 -1.7140 -0.2392
18047TIP3    H275557   4.648   3.797   5.960  2.3830 -0.5459  0.0107
18048TIP3   OH275558   1.505   4.397  15.247  0.4711  0.1483 -0.2671
18048TIP3    H175559   1.579   4.457  15.247  0.0528  0.7144 -1.6693
18048TIP3    H275560   1.544   4.310  15.257  1.0404  0.6201  2.4274
18049TIP3   OH275561   5.051   3.310  15.159  0.2263  0.7993  0.4411
18049TIP3    H175562   5.037   3.395  15.201 -0.3552  0.9551 -0.0413
18049TIP3    H275563   5.024   3.324  15.068 -1.1066 -0.2287  0.6528
18050TIP3   OH275564   1.455   5.045  13.366 -0.0500  0.4035 -0.1046
18050TIP3    H175565   1.431   5.058  13.274  0.4983  2.4151 -0.0067
18050TIP3    H275566   1.371   5.038  13.411 -0.4098 -3.6418 -1.0089
18051TIP3   OH275567   4.790   4.010  11.955  0.2036  0.5894 -0.4280
18051TIP3    H175568   4.721   3.943  11.954 -0.5940  1.3843  0.1820
18051TIP3    H275569   4.871   3.960  11.965 -0.5677 -0.2131  3.1568
18052TIP3   OH275570   2.281   0.259   3.749 -0.6778  0.1543  0.2767
18052TIP3    H175571   2.257   0.228   3.662 -1.2322  0.3269  0.3632
18052TIP3    H275572   2.317   0.346   3.735  0.0836 -0.1810  0.1252
18053TIP3   OH275573   6.497   3.254   3.371 -0.6233 -0.1175  0.1068
18053TIP3    H175574   6.411   3.255   3.413 -1.6114 -0.0459 -1.8174
18053TIP3    H275575   6.481   3.219   3.284  1.2581  0.2426 -0.4362
18054TIP3   OH275576   4.812   0.913   5.671 -0.1039 -0.9141 -0.2078
18054TIP3    H175577   4.751   0.968   5.720 -0.0136 -1.6463  0.7593
18054TIP3    H275578   4.768   0.895   5.589  0.5597  1.9939 -1.3260
18055TIP3   OH275579   5.579   5.393  14.598 -0.2146  0.5110 -0.4720
18055TIP3    H175580   5.609   5.341  14.672 -1.8461  1.1351  0.6929
18055TIP3    H275581   5.521   5.334  14.549  0.0863  0.3963 -0.6875
18056TIP3   OH275582   6.124   5.096   1.435 -0.2706  0.3591  0.0218
18056TIP3    H175583   6.073   5.175   1.418 -1.3835  0.0741  1.7875
18056TIP3    H275584   6.188   5.092   1.363 -0.8705  2.2758 -0.6629
18057TIP3   OH275585   0.360   2.353  16.525 -1.2787  0.4828  0.1434
18057TIP3    H175586   0.399   2.439  16.508  1.3039 -0.3245  1.5384
18057TIP3    H275587   0.400   2.325  16.607 -2.2935 -1.9465 -0.1304
18058TIP3   OH275588   6.265   6.159   2.485  0.5130  0.6443  0.0181
18058TIP3    H175589   6.321   6.085   2.508 -1.3422 -1.3868 -1.6434
18058TIP3    H275590   6.325   6.225   2.450  2.1499 -0.2363  1.0672
18059TIP3   OH275591   4.754   5.702   2.208  0.1644 -0.1325  0.1140
18059TIP3    H175592   4.740   5.730   2.117 -0.4192 -0.4395  0.0974
18059TIP3    H275593   4.834   5.745   2.235  0.0959  0.3281 -0.4022
18060TIP3   OH275594   0.021   4.822  13.269 -0.2460  0.8682  0.1881
18060TIP3    H175595   0.068   4.905  13.265 -0.3866  0.9524  0.3018
18060TIP3    H275596   0.041   4.779  13.186  0.2729  0.7751  0.3586
18061TIP3   OH275597   1.519   0.790   0.025 -0.2917 -0.5326  0.2432
18061TIP3    H175598   1.513   0.724  -0.045 -0.0353 -1.0561  0.7064
18061TIP3    H275599   1.431   0.827   0.030 -1.0829 -2.4249  1.4776
18062TIP3   OH275600   3.121   4.381   3.224  0.7875  0.3830 -0.2002
18062TIP3    H175601   3.192   4.363   3.285  0.9073 -0.1696 -0.4947
18062TIP3    H275602   3.165   4.408   3.144  0.6835 -0.2132 -0.4663
18063TIP3   OH275603   5.332   2.716   1.575 -0.7284  0.3627  0.4003
18063TIP3    H175604   5.252   2.664   1.576 -0.0461 -0.7514  0.0841
18063TIP3    H275605   5.317   2.787   1.637 -1.3536 -0.7540  1.5565
18064TIP3   OH275606   6.370   4.179  15.219 -0.1899 -0.1894 -0.1056
18064TIP3    H175607   6.292   4.215  15.262  0.4806  0.5605  0.5175
18064TIP3    H275608   6.412   4.126  15.287  0.8492  0.9588  0.1944
18065TIP3   OH275609   2.105   0.549   5.190 -0.0001  0.0570 -0.3490
18065TIP3    H175610   2.086   0.455   5.189  1.4257 -0.3026 -2.9622
18065TIP3    H275611   2.198   0.554   5.212 -0.0959  0.8913 -0.0975
18066TIP3   OH275612   3.537   3.117  13.703 -0.4081 -0.0722  0.0957
18066TIP3    H175613   3.479   3.179  13.748  0.8387  0.5801  0.8629
18066TIP3    H275614   3.567   3.058  13.773  0.1251 -0.1774 -0.2196
18067TIP3   OH275615   1.513   4.357   0.433  0.1987  0.2067  0.0979
18067TIP3    H175616   1.432   4.323   0.473 -0.5230 -0.2467 -1.6696
18067TIP3    H275617   1.579   4.347   0.502 -0.7733 -1.4421  0.8582
18068TIP3   OH275618   5.592   4.963   5.949  0.0408 -0.8020 -0.0051
18068TIP3    H175619   5.544   5.032   5.994 -1.1119 -2.3300  1.2303
18068TIP3    H275620   5.682   4.972   5.979  0.1024  0.7118 -0.5886
18069TIP3   OH275621   2.913   6.643  13.242 -0.4218 -0.0431 -0.1134
18069TIP3    H175622   2.953   6.722  13.206  1.9840 -0.8661  0.6288
18069TIP3    H275623   2.863   6.674  13.317  1.7044  0.6511  1.0774
18070TIP3   OH275624   0.717   4.766  12.863  0.3143 -0.7136  0.9101
18070TIP3    H175625   0.759   4.784  12.778  0.4559 -0.1977  1.0905
18070TIP3    H275626   0.790   4.750  12.922  0.2091 -1.3430  0.8833
18071TIP3   OH275627   2.298   3.228  12.091 -0.3018 -0.0033  0.0851
18071TIP3    H175628   2.224   3.287  12.087 -0.6662 -0.4235  0.5174
18071TIP3    H275629   2.263   3.142  12.066 -0.5901 -0.7683  2.7978
18072TIP3   OH275630   4.805   0.986   2.486  0.9012 -0.5919 -0.1347
18072TIP3    H175631   4.866   0.918   2.456  3.0615  2.2082 -2.8186
18072TIP3    H275632   4.860   1.046   2.537 -0.4693  0.1684  0.4861
18073TIP3   OH275633   4.141   5.117   0.936  0.0242  0.3501 -0.7229
18073TIP3    H175634   4.045   5.118   0.943  0.1509  1.5910  3.3048
18073TIP3    H275635   4.170   5.072   1.015  2.7701  3.0388 -0.0101
18074TIP3   OH275636   3.609   1.772   2.177  0.3420  0.1714 -0.2492
18074TIP3    H175637   3.606   1.686   2.134 -0.6179  0.1777 -0.2257
18074TIP3    H275638   3.527   1.814   2.152  0.7829  1.0711 -0.2229
18075TIP3   OH275639   5.567   5.542  14.941  0.5698  0.1699  0.3489
18075TIP3    H175640   5.561   5.466  14.999  0.9142  1.3577  2.0556
18075TIP3    H275641   5.621   5.604  14.990  1.6897  0.9012 -1.6968
18076TIP3   OH275642   6.586   5.676  11.174 -0.5862  0.1713  0.2636
18076TIP3    H175643   6.503   5.680  11.221 -0.4788  0.5830  0.4276
18076TIP3    H275644   6.611   5.584  11.176 -0.8348  0.1079  0.5700
18077TIP3   OH275645   2.389   4.370   3.250 -0.2809 -0.1760 -0.4742
18077TIP3    H175646   2.388   4.448   3.306 -1.8856 -0.9152  0.6119
18077TIP3    H275647   2.438   4.306   3.300 -0.8141 -0.5201 -0.3908
18078TIP3   OH275648   4.614   3.228   6.420 -0.3578  0.1096 -0.2972
18078TIP3    H175649   4.602   3.287   6.345 -1.4347  0.5515  0.2101
18078TIP3    H275650   4.574   3.274   6.493  1.3909  0.0540  0.7504
18079TIP3   OH275651   3.322   0.827   4.825 -0.3852  0.1968 -0.2502
18079TIP3    H175652   3.335   0.917   4.798 -1.0762  0.7482  1.1170
18079TIP3    H275653   3.318   0.777   4.744  0.5256  1.3150 -1.0032
18080TIP3   OH275654   3.612   2.061   2.090  0.9703 -0.0685 -0.1782
18080TIP3    H175655   3.618   1.966   2.101  0.3879 -0.0959 -0.0733
18080TIP3    H275656   3.691   2.084   2.040 -0.2161 -0.9964 -2.6706
18081TIP3   OH275657   3.575   4.351   5.793  0.2610 -0.0521 -0.3779
18081TIP3    H175658   3.485   4.329   5.816 -0.2860  1.5886 -0.7819
18081TIP3    H275659   3.590   4.436   5.834  1.6743 -0.3591 -0.2235
18082TIP3   OH275660   1.614   3.775  12.197 -0.6248 -0.2502 -0.1288
18082TIP3    H175661   1.614   3.865  12.229 -0.7106 -0.0880 -0.5791
18082TIP3    H275662   1.595   3.783  12.104  2.1036 -0.5260 -0.7766
18083TIP3   OH275663   0.262   1.940   6.753  0.3151  0.5649  0.6071
18083TIP3    H175664   0.304   1.904   6.675 -0.0725  1.2022  0.0965
18083TIP3    H275665   0.319   1.912   6.825 -0.7148 -2.3115  0.4510
18084TIP3   OH275666   3.945   0.514   2.464  0.4624 -0.4048  0.1691
18084TIP3    H175667   3.896   0.446   2.510 -0.2374 -0.6673 -0.9236
18084TIP3    H275668   3.897   0.595   2.484  1.1768 -0.2448  1.3030
18085TIP3   OH275669   2.298   6.198   3.067  0.3273  0.1569  0.5358
18085TIP3    H175670   2.370   6.181   3.007  0.4192  1.2533  0.3166
18085TIP3    H275671   2.248   6.269   3.025 -2.5691 -2.4104 -0.7823
18086TIP3   OH275672   1.372   1.764   2.543  0.0409 -0.2410  0.1699
18086TIP3    H175673   1.369   1.812   2.626  2.1094  1.4204 -0.6273
18086TIP3    H275674   1.459   1.723   2.542  0.0225 -0.2808 -1.1425
18087TIP3   OH275675   5.897   3.267  12.519 -0.2399 -0.9181 -0.1433
18087TIP3    H175676   5.956   3.200  12.483  0.9804 -0.1965  0.4470
18087TIP3    H275677   5.913   3.344  12.465 -1.0048 -0.8499 -0.2756
18088TIP3   OH275678   0.296   4.417   5.830  0.5598  0.2421  0.5188
18088TIP3    H175679   0.234   4.489   5.838 -0.6235 -0.2952 -2.4907
18088TIP3    H275680   0.241   4.338   5.837  1.4944 -0.3627  1.3978
18089TIP3   OH275681   5.858   3.735  13.061 -1.1374  0.0351  0.6948
18089TIP3    H175682   5.871   3.830  13.055 -0.7816  0.0165  1.1022
18089TIP3    H275683   5.853   3.718  13.155 -1.3556 -0.3322  0.6165
18090TIP3   OH275684   2.452   0.078   5.288  0.5458 -0.1546  0.0866
18090TIP3    H175685   2.398   0.107   5.362 -1.0497  1.1679 -1.5093
18090TIP3    H275686   2.539   0.111   5.307 -0.0177  0.8519  1.0124
18091TIP3   OH275687   6.575   6.580   0.608 -0.4193 -0.3430 -0.1774
18091TIP3    H175688   6.493   6.581   0.559 -2.1873 -0.9027  2.5530
18091TIP3    H275689   6.591   6.672   0.630  0.6018 -0.0371 -2.0208
18092TIP3   OH275690   4.906   3.110  16.878 -0.5791  0.4334  0.0690
18092TIP3    H175691   4.976   3.174  16.866 -0.0777  0.0266  0.7630
18092TIP3    H275692   4.826   3.163  16.887 -0.1654  0.9625  0.7022
18093TIP3   OH275693   5.400   5.743  16.176  0.0151 -0.3556  0.2978
18093TIP3    H175694   5.345   5.817  16.201  0.6575  0.3128 -0.1982
18093TIP3    H275695   5.343   5.666  16.183 -1.8133  0.5484 -2.5645
18094TIP3   OH275696   0.559   6.761  15.422 -0.3515  0.0130 -0.1111
18094TIP3    H175697   0.651   6.772  15.446 -0.0852 -0.0122 -1.0766
18094TIP3    H275698   0.542   6.668  15.436 -0.0673 -0.0943 -0.4892
18095TIP3   OH275699   1.033   1.333   5.162  0.7485 -0.0430  0.0450
18095TIP3    H175700   0.946   1.343   5.200  0.3183  0.2526 -0.9927
18095TIP3    H275701   1.087   1.301   5.235 -0.6334 -2.1326  0.2340
18096TIP3   OH275702   1.827   2.525  16.824  0.0410  0.5157 -0.7457
18096TIP3    H175703   1.891   2.569  16.880  0.0540  2.1949 -1.9903
18096TIP3    H275704   1.747   2.577  16.836 -0.6862 -0.6640 -0.3452
18097TIP3   OH275705   4.766   4.867  16.229  0.0780 -0.3648  0.2096
18097TIP3    H175706   4.855   4.846  16.256  0.6257  1.3393 -0.1539
18097TIP3    H275707   4.741   4.941  16.285  0.4487  1.8486 -2.3205
18098TIP3   OH275708   3.051   5.073   5.369  0.0502  0.7381  0.1411
18098TIP3    H175709   2.978   5.119   5.326  0.0977  0.6061 -0.0853
18098TIP3    H275710   3.017   5.048   5.455 -0.7456 -0.7591 -0.5560
18099TIP3   OH275711   1.528   5.637  14.298  0.4760  0.4749  0.7766
18099TIP3    H175712   1.589   5.582  14.250 -1.5007 -1.6536  0.5119
18099TIP3    H275713   1.481   5.686  14.231 -1.1039 -1.2344  0.5391
18100TIP3   OH275714   0.957   2.256   1.051  0.6986 -0.2206 -0.1089
18100TIP3    H175715   1.038   2.235   1.004  0.8499 -0.1634  0.1263
18100TIP3    H275716   0.898   2.290   0.983  0.5226 -1.1873 -0.4576
18101TIP3   OH275717   1.513   3.599  10.685  0.6976 -0.1926  0.4480
18101TIP3    H175718   1.536   3.536  10.753 -0.2500 -0.6365  0.3761
18101TIP3    H275719   1.438   3.559  10.639  1.0259  0.3044 -0.5557
18102TIP3   OH275720   6.324   1.074   1.833  0.0901 -0.0629  0.1139
18102TIP3    H175721   6.338   1.137   1.763 -0.0664 -0.6694 -0.4779
18102TIP3    H275722   6.377   1.107   1.906 -0.3135  0.9661 -0.0400
18103TIP3   OH275723   2.588   0.022  13.635 -0.4737  0.7413 -0.4715
18103TIP3    H175724   2.595   0.029  13.730 -0.7974  0.8708 -0.4555
18103TIP3    H275725   2.569  -0.070  13.619  0.1695  0.6029 -0.4498
18104TIP3   OH275726   2.076   3.123  14.583  0.0467  0.4514 -0.5979
18104TIP3    H175727   2.135   3.197  14.569  1.1437 -0.1509  0.5767
18104TIP3    H275728   2.133   3.046  14.575 -0.8419 -0.2195 -0.6600
18105TIP3   OH275729   5.716   0.949  11.984  0.3096  0.0699  0.1805
18105TIP3    H175730   5.710   0.856  11.959 -1.0421 -0.0173  0.7741
18105TIP3    H275731   5.751   0.947  12.073 -0.0119  0.1083  0.3085
18106TIP3   OH275732   2.088   6.556  16.289  0.0681  0.7152  0.4425
18106TIP3    H175733   2.142   6.611  16.232  0.8172 -0.7986 -0.3700
18106TIP3    H275734   2.000   6.563  16.252  0.4197  0.2921 -0.5146
18107TIP3   OH275735   2.398   5.397   3.592 -0.7161  0.5849  0.3409
18107TIP3    H175736   2.391   5.492   3.576 -1.8282  0.3746 -0.5334
18107TIP3    H275737   2.465   5.368   3.529 -0.2153  0.8041  0.7583
18108TIP3   OH275738   6.415   6.102  13.839  0.4655  0.1241 -0.0606
18108TIP3    H175739   6.376   6.046  13.906  0.6300 -0.8412 -0.7487
18108TIP3    H275740   6.489   6.143  13.882  0.4620 -0.3483  0.4029
18109TIP3   OH275741   2.814   5.594  17.065 -0.3177 -0.2225  0.2023
18109TIP3    H175742   2.895   5.609  17.114 -0.3014 -0.9887  0.4266
18109TIP3    H275743   2.813   5.663  16.999  0.2490  0.1215  0.5401
18110TIP3   OH275744   1.593   5.296  14.342 -0.2418 -0.6477  0.5885
18110TIP3    H175745   1.508   5.265  14.374 -0.5039 -1.2306 -0.6178
18110TIP3    H275746   1.581   5.308  14.248  0.8661 -0.2281  0.4799
18111TIP3   OH275747   4.237   0.943   6.159  0.1875  0.1965  0.1781
18111TIP3    H175748   4.189   0.983   6.232  0.0896 -0.8272  0.6937
18111TIP3    H275749   4.322   0.918   6.196  0.1434 -0.3203 -0.0509
18112TIP3   OH275750   0.578   1.471   0.764 -0.1563  0.0468 -0.8769
18112TIP3    H175751   0.634   1.548   0.776 -2.6532  2.5124 -3.4844
18112TIP3    H275752   0.556   1.472   0.670 -2.3955 -2.3246 -0.4833
18113TIP3   OH275753   2.573   1.930  15.486  0.0228  0.1398 -0.0385
18113TIP3    H175754   2.486   1.938  15.524 -0.5240  0.4294 -1.3258
18113TIP3    H275755   2.609   1.850  15.524 -1.4809 -0.9467 -0.8430
18114TIP3   OH275756   1.764   2.002  15.376  0.0022 -0.1438  0.0476
18114TIP3    H175757   1.679   1.988  15.417  0.1256  0.8480  0.6739
18114TIP3    H275758   1.824   2.014  15.449  0.2000  1.8191 -0.3841
18115TIP3   OH275759   1.314   2.291   2.493  0.1017 -0.1274 -0.3932
18115TIP3    H175760   1.222   2.281   2.468 -0.2131  1.8434 -0.1846
18115TIP3    H275761   1.337   2.380   2.468  1.4136  0.0447  1.1969
18116TIP3   OH275762   3.484   1.980   1.756 -0.5893  0.4465  0.6177
18116TIP3    H175763   3.502   1.890   1.784  0.8688  1.0361  1.7357
18116TIP3    H275764   3.565   2.008   1.714 -1.3675  0.9406 -0.5963
18117TIP3   OH275765   4.203   4.811   0.666  0.6145  0.0476  0.3960
18117TIP3    H175766   4.247   4.731   0.695  1.1434 -0.6148 -1.9835
18117TIP3    H275767   4.151   4.783   0.590 -0.7527  1.6060  0.7209
18118TIP3   OH275768   1.295   6.694   5.729 -0.6871  0.0944 -0.9091
18118TIP3    H175769   1.243   6.617   5.751  0.2728 -0.9133 -2.0061
18118TIP3    H275770   1.367   6.693   5.792 -0.9481  0.3985 -0.6012
18119TIP3   OH275771   3.672   0.695  13.402 -0.1632  0.5415  0.0548
18119TIP3    H175772   3.761   0.687  13.369 -0.2145  2.1140 -0.5705
18119TIP3    H275773   3.663   0.788  13.424 -1.3300  0.2215  1.0452
18120TIP3   OH275774   5.628   5.974  12.153 -0.3359 -0.1781  0.0019
18120TIP3    H175775   5.694   5.928  12.102  1.3242 -1.5181  3.1096
18120TIP3    H275776   5.548   5.923  12.140  0.3619 -1.2532 -0.2076
18121TIP3   OH275777   3.601   5.911   4.996 -0.0837 -0.6245 -0.6088
18121TIP3    H175778   3.594   5.940   4.905  0.1382  0.6843 -0.2222
18121TIP3    H275779   3.695   5.909   5.014 -0.1630  1.1214  0.1832
18122TIP3   OH275780   3.306   6.363   2.645  0.0671  0.1233 -0.6232
18122TIP3    H175781   3.275   6.411   2.722 -1.4089  0.9301 -1.6824
18122TIP3    H275782   3.317   6.273   2.676 -0.7375  0.3760  0.4761
18123TIP3   OH275783   5.350   0.644   4.802 -0.1508 -0.1436  0.1904
18123TIP3    H175784   5.392   0.677   4.881  1.0776  2.6955 -1.5046
18123TIP3    H275785   5.262   0.683   4.803 -0.4275 -0.7608  0.5178
18124TIP3   OH275786   1.500   4.565   4.480 -0.6600  0.1914 -0.5457
18124TIP3    H175787   1.533   4.485   4.439  0.0466  0.7641 -1.1284
18124TIP3    H275788   1.426   4.591   4.426 -2.1955 -1.1307  0.7995
18125TIP3   OH275789   4.130   4.135   0.568  0.2091 -0.2824  0.4387
18125TIP3    H175790   4.148   4.066   0.504 -3.2140  0.9165 -2.1852
18125TIP3    H275791   4.034   4.140   0.571  0.2898  2.8368  2.2186
18126TIP3   OH275792   3.204   0.566  14.752 -0.0543  0.1956  0.1877
18126TIP3    H175793   3.196   0.475  14.724  1.2612  0.1413 -0.0603
18126TIP3    H275794   3.238   0.560  14.842 -2.2712  0.4164  1.1119
18127TIP3   OH275795   0.472   5.342  15.794  0.0411  0.2941 -0.0766
18127TIP3    H175796   0.383   5.370  15.772  0.0583 -0.3794 -1.0792
18127TIP3    H275797   0.529   5.400  15.744  0.1787  0.8776  0.7487
18128TIP3   OH275798   5.996   4.381   2.705  0.2898 -0.2845  0.2330
18128TIP3    H175799   5.928   4.319   2.732 -0.0330  0.3935  1.0181
18128TIP3    H275800   5.964   4.466   2.734  2.3032 -0.1496  2.3320
18129TIP3   OH275801   4.814   5.337  15.865  0.2705 -0.0302  0.4782
18129TIP3    H175802   4.814   5.418  15.814 -2.1709  0.6828  1.4662
18129TIP3    H275803   4.816   5.267  15.799  0.6451  0.8232 -0.4428
18130TIP3   OH275804   3.222   1.762   0.461 -0.3336 -0.2585 -0.4446
18130TIP3    H175805   3.222   1.695   0.529  3.3288  1.0433  1.0868
18130TIP3    H275806   3.223   1.845   0.509 -0.7135  0.8108 -2.1872
18131TIP3   OH275807   2.793   4.278   1.300  0.3211 -0.1865  0.1741
18131TIP3    H175808   2.791   4.357   1.246 -1.4370  0.8445  1.6349
18131TIP3    H275809   2.881   4.242   1.286  1.3664  2.2859 -0.1524
18132TIP3   OH275810   0.705   3.326  11.305 -0.4477 -0.1661 -0.2856
18132TIP3    H175811   0.726   3.262  11.237 -1.5741 -0.8692 -0.0032
18132TIP3    H275812   0.745   3.290  11.384 -2.0472 -1.1691  0.1169
18133TIP3   OH275813   5.237   1.105   1.205 -0.7701 -0.2355 -0.0447
18133TIP3    H175814   5.184   1.031   1.175  0.4554 -1.2433  0.1529
18133TIP3    H275815   5.174   1.172   1.229 -1.9375 -1.2946 -0.0561
18134TIP3   OH275816   4.988   6.183  13.906  0.4741 -0.2724 -0.0176
18134TIP3    H175817   5.013   6.275  13.908  0.4613 -0.1358 -2.5026
18134TIP3    H275818   4.962   6.162  13.995  0.3116  2.1677  0.5538
18135TIP3   OH275819   0.017   3.287   2.064  0.0896 -0.3010  0.3196
18135TIP3    H175820  -0.023   3.203   2.040 -3.1951  1.6698 -2.0339
18135TIP3    H275821  -0.028   3.313   2.145 -0.5293  0.1285 -0.1520
18136TIP3   OH275822   4.262   4.990  12.765 -0.0975 -0.2393  0.5506
18136TIP3    H175823   4.344   5.013  12.723 -0.9397  1.3289 -0.3554
18136TIP3    H275824   4.214   4.940  12.700  0.2041 -1.3503  1.1583
18137TIP3   OH275825   4.526   4.877   4.848 -0.2634 -0.2202  0.4663
18137TIP3    H175826   4.523   4.833   4.763  2.0398  0.8054 -0.2371
18137TIP3    H275827   4.512   4.807   4.912  0.7314 -1.5342 -0.6925
18138TIP3   OH275828   4.016   5.616   4.379  0.2805  0.0269  0.1314
18138TIP3    H175829   4.095   5.600   4.328 -0.9736 -1.7120 -1.4075
18138TIP3    H275830   4.013   5.711   4.390  2.1013  0.1898 -0.5296
18139TIP3   OH275831   1.566   1.470  14.280  0.0391 -0.1881 -0.1686
18139TIP3    H175832   1.581   1.414  14.204 -0.2760 -0.2110 -0.2175
18139TIP3    H275833   1.508   1.419  14.337  0.0261 -0.0516 -0.0560
18140TIP3   OH275834   6.054   0.474  12.611  0.0768 -0.2971 -0.2838
18140TIP3    H175835   6.051   0.557  12.565  0.3955  0.0483  0.2966
18140TIP3    H275836   6.107   0.492  12.689  2.1574 -1.6096 -1.2918
18141TIP3   OH275837   5.570   0.768  15.094  0.1351 -0.4158 -0.1017
18141TIP3    H175838   5.596   0.859  15.082  1.8266 -1.0414 -1.6542
18141TIP3    H275839   5.488   0.760  15.045 -0.9525  0.6449  1.4801
18142TIP3   OH275840   2.309   6.271   5.828 -0.0889  0.2302 -0.4161
18142TIP3    H175841   2.332   6.345   5.885 -2.6385 -0.3207  1.5407
18142TIP3    H275842   2.280   6.312   5.747 -1.8381  1.4914  0.7737
18143TIP3   OH275843   2.251   6.378   5.565 -0.1822 -0.0214 -0.1110
18143TIP3    H175844   2.305   6.378   5.486 -1.3107  2.9826 -0.9830
18143TIP3    H275845   2.176   6.434   5.544 -1.7872 -1.0995  2.2973
18144TIP3   OH275846   0.033   3.949   5.941 -0.3671 -0.0036 -0.1402
18144TIP3    H175847   0.073   3.924   5.857 -0.0403 -0.0138  0.0152
18144TIP3    H275848   0.050   3.874   5.998  0.6449  0.5637  0.3407
18145TIP3   OH275849   0.812   4.242   6.725  0.5317 -0.2662  0.3653
18145TIP3    H175850   0.883   4.266   6.666 -0.1562  1.1552  0.0672
18145TIP3    H275851   0.827   4.296   6.803  0.0158 -0.2636  0.4636
18146TIP3   OH275852   6.434   2.138   6.622 -0.0095  0.0115 -0.1382
18146TIP3    H175853   6.519   2.121   6.581  0.5182  0.5125  0.7088
18146TIP3    H275854   6.402   2.218   6.579  0.8726  0.9447  0.8830
18147TIP3   OH275855   4.065   6.536  11.798  0.0389  0.4605 -0.2513
18147TIP3    H175856   4.002   6.604  11.774 -1.1099  0.0827  1.5315
18147TIP3    H275857   4.149   6.583  11.805 -0.8569  1.9071  1.6575
18148TIP3   OH275858   0.033   2.549   1.422 -0.0644 -0.1980 -0.6297
18148TIP3    H175859   0.032   2.637   1.461  0.6632 -0.3543 -0.2540
18148TIP3    H275860  -0.059   2.532   1.402 -0.9450 -1.0625  3.2300
18149TIP3   OH275861   5.166   3.391  11.201  0.6064  0.0574  0.3206
18149TIP3    H175862   5.238   3.341  11.163 -1.0349 -0.8646 -1.7952
18149TIP3    H275863   5.134   3.445  11.129 -1.9766 -0.9622  0.5982
18150TIP3   OH275864   4.399   2.503   3.757 -0.4941 -0.0265  0.4099
18150TIP3    H175865   4.415   2.597   3.759  3.6905 -0.5217  2.7282
18150TIP3    H275866   4.444   2.473   3.678 -2.4766 -0.1218 -0.7549
18151TIP3   OH275867   1.090   0.305   5.910  0.1548  0.4083 -0.3742
18151TIP3    H175868   1.007   0.330   5.951 -0.6107 -0.1791 -1.5270
18151TIP3    H275869   1.141   0.387   5.907 -1.0085  1.1363 -1.0987
18152TIP3   OH275870   6.356   0.108   0.027 -0.3729 -0.4788  0.0171
18152TIP3    H175871   6.289   0.177   0.025  0.3532  0.2390  0.2099
18152TIP3    H275872   6.391   0.107  -0.062  0.0305 -0.1850  0.1709
18153TIP3   OH275873   3.955   1.031  14.020  0.2736 -0.1639 -0.1145
18153TIP3    H175874   4.002   1.114  14.017 -1.4894  0.8608 -2.0294
18153TIP3    H275875   3.972   0.990  13.935 -0.3225 -0.9233  0.1167
18154TIP3   OH275876   5.704   4.220  16.774 -0.0984 -0.6300 -0.7752
18154TIP3    H175877   5.619   4.217  16.818  1.0908 -0.2899  1.6909
18154TIP3    H275878   5.767   4.203  16.843  1.8972 -0.5126 -2.4809
18155TIP3   OH275879   1.775   0.749  12.744  0.2891 -0.2564  0.1527
18155TIP3    H175880   1.702   0.704  12.785  1.3591 -2.1192  0.1082
18155TIP3    H275881   1.842   0.754  12.812 -0.0804  2.1126  0.4353
18156TIP3   OH275882   5.404   5.166   5.989 -0.1931  0.1368 -0.4790
18156TIP3    H175883   5.353   5.197   6.063  1.5975  2.1057  0.0092
18156TIP3    H275884   5.344   5.170   5.915 -1.5739 -0.4504  0.5678
18157TIP3   OH275885   2.100   5.858   4.819 -0.4124 -0.4426 -0.2121
18157TIP3    H175886   2.120   5.935   4.765 -0.9082 -0.5291 -0.5270
18157TIP3    H275887   2.005   5.863   4.832 -0.5484 -1.3660 -0.7920
18158TIP3   OH275888   4.452   2.602  12.749  0.5086 -0.1850  0.0941
18158TIP3    H175889   4.406   2.648  12.680 -2.0743 -2.1748  0.3197
18158TIP3    H275890   4.417   2.638  12.830  1.3813  0.1390  0.3404
18159TIP3   OH275891   5.762   4.797   0.074 -0.7277  0.4073 -0.2901
18159TIP3    H175892   5.857   4.789   0.081 -0.7330  0.8014  0.2436
18159TIP3    H275893   5.744   4.779  -0.018 -0.2779 -1.1111 -0.1177
18160TIP3   OH275894   2.608   4.226  12.658  0.1216  0.6267 -0.1064
18160TIP3    H175895   2.609   4.177  12.576  1.7008 -0.9789  0.8042
18160TIP3    H275896   2.669   4.298  12.644 -0.8248  1.3269 -0.8289
18161TIP3   OH275897   4.638   1.057   0.703  0.5671 -0.1466 -0.3846
18161TIP3    H175898   4.661   1.107   0.781  0.7997 -1.5848  0.5121
18161TIP3    H275899   4.669   1.110   0.630  0.9548  0.9171  0.5260
18162TIP3   OH275900   3.871   1.816   5.443 -0.3406 -0.1932 -0.0818
18162TIP3    H175901   3.824   1.765   5.509  0.3814  0.8577  1.3032
18162TIP3    H275902   3.955   1.836   5.483 -0.1232  1.0117 -1.0740
18163TIP3   OH275903   2.308   0.330   4.088  0.1341 -0.3191 -0.8652
18163TIP3    H175904   2.314   0.295   3.999 -0.9049 -2.2054 -0.2451
18163TIP3    H275905   2.335   0.421   4.079  1.7641 -0.9089 -2.8050
18164TIP3   OH275906   2.881   3.356  16.317 -0.0671 -0.4800 -0.1867
18164TIP3    H175907   2.837   3.330  16.236 -3.4928 -0.8286  1.5918
18164TIP3    H275908   2.926   3.277  16.346  1.5381 -0.2468 -1.8572
18165TIP3   OH275909   2.574   2.355   1.530 -0.2377 -0.0188  0.1892
18165TIP3    H175910   2.623   2.389   1.604 -0.8308  1.4518 -0.0604
18165TIP3    H275911   2.586   2.420   1.461 -2.3728  0.3435  0.0749
18166TIP3   OH275912   3.233   5.647   4.339 -0.0090  0.6051 -0.4909
18166TIP3    H175913   3.306   5.666   4.280  0.5961 -2.1612 -0.7672
18166TIP3    H275914   3.270   5.591   4.407 -1.4845  0.7108  0.4550
18167TIP3   OH275915   5.465   2.980   1.959 -0.0605  1.1881  0.2325
18167TIP3    H175916   5.532   3.045   1.938  0.5797  0.6736  0.6501
18167TIP3    H275917   5.429   3.009   2.043  1.1732  0.2764  1.0990
18168TIP3   OH275918   6.125   6.643  17.179 -0.0604 -0.7288 -0.5535
18168TIP3    H175919   6.190   6.675  17.242 -0.4315  2.3184 -1.5671
18168TIP3    H275920   6.044   6.635  17.229  0.2380 -0.9126 -0.0959
18169TIP3   OH275921   5.550   5.198  11.139  0.1793  0.1977 -0.1335
18169TIP3    H175922   5.631   5.146  11.144 -0.3651 -0.7863 -1.1587
18169TIP3    H275923   5.519   5.202  11.230  1.3131  0.5156  0.2652
18170TIP3   OH275924   6.183   4.529  12.815  0.1644 -0.2579 -0.4664
18170TIP3    H175925   6.237   4.498  12.887 -0.1716 -0.6743 -0.3949
18170TIP3    H275926   6.107   4.471  12.814 -0.6821  0.8007 -0.0585
18171TIP3   OH275927   5.057   1.949   4.766  0.1869  0.3565 -0.6235
18171TIP3    H175928   4.986   1.953   4.702 -0.0594 -0.1455 -0.3838
18171TIP3    H275929   5.136   1.936   4.713 -0.0932 -0.7255 -0.7950
18172TIP3   OH275930   3.829   5.315   0.678 -0.8260 -0.3647 -0.3610
18172TIP3    H175931   3.869   5.233   0.648 -1.7589  0.0422 -3.0046
18172TIP3    H275932   3.900   5.363   0.720  0.8683 -0.7246 -2.6381
18173TIP3   OH275933   6.025   3.523   1.060 -0.5247  0.4347  0.1913
18173TIP3    H175934   6.087   3.587   1.025  0.5213  0.7127  2.3844
18173TIP3    H275935   5.984   3.485   0.983  1.0355  1.5773 -1.2760
18174TIP3   OH275936   6.531   1.973   5.930  0.6730 -0.1747  0.2750
18174TIP3    H175937   6.586   1.994   6.006  1.3914  0.1160 -0.3077
18174TIP3    H275938   6.567   2.028   5.860 -2.0642  2.1265  0.4923
18175TIP3   OH275939   6.701   3.411  12.524 -0.7232 -0.0025  0.4420
18175TIP3    H175940   6.744   3.418  12.439  0.5685 -0.8372  0.9779
18175TIP3    H275941   6.615   3.374  12.505 -0.6432  0.2859 -0.5386
18176TIP3   OH275942   4.981   5.801  13.041  0.5480 -0.0420 -0.1413
18176TIP3    H175943   4.938   5.842  12.967  1.7643 -0.2872 -1.0220
18176TIP3    H275944   4.997   5.873  13.102 -1.3548 -0.0011  0.3692
18177TIP3   OH275945   1.803   6.789  16.670 -0.6639 -0.3167 -0.1411
18177TIP3    H175946   1.873   6.814  16.610  0.2250 -1.4695  0.3843
18177TIP3    H275947   1.784   6.698  16.647 -1.0745 -0.4237  0.5981
18178TIP3   OH275948   4.139   0.275  10.826  0.3848  0.2165  1.1120
18178TIP3    H175949   4.220   0.320  10.850  0.8611  0.1683 -0.3132
18178TIP3    H275950   4.164   0.182  10.821 -0.0841  0.0371  1.9547
18179TIP3   OH275951   4.251   6.475   3.109  0.2779  0.5762  0.6713
18179TIP3    H175952   4.217   6.467   3.019 -0.9254  0.1759  1.1358
18179TIP3    H275953   4.235   6.566   3.132 -0.7837  0.3233  0.9850
18180TIP3   OH275954   1.676   2.918   1.518 -0.1540 -0.6084 -0.5024
18180TIP3    H175955   1.625   2.900   1.597 -0.0683 -0.6230 -0.4513
18180TIP3    H275956   1.744   2.851   1.516  0.3816 -0.0792 -0.1239
18181TIP3   OH275957   0.086   0.938  14.475  0.8837  0.2766  0.4323
18181TIP3    H175958   0.002   0.913  14.513  0.8354  1.5773  1.2316
18181TIP3    H275959   0.136   0.857  14.472 -0.4074 -0.5350 -0.1285
18182TIP3   OH275960   5.154   1.142   3.978  1.0154 -0.2289 -0.2739
18182TIP3    H175961   5.077   1.193   3.952  0.5926  0.0557  1.4003
18182TIP3    H275962   5.222   1.170   3.918 -0.2928 -0.8489 -2.1249
18183TIP3   OH275963   0.181   6.149   3.144 -0.3698 -0.0113  0.4047
18183TIP3    H175964   0.200   6.057   3.124 -0.3054  0.2078 -0.6110
18183TIP3    H275965   0.134   6.147   3.227 -1.9169 -1.1068 -0.4572
18184TIP3   OH275966   0.536   4.679   2.928 -0.0689 -0.2818  0.0549
18184TIP3    H175967   0.548   4.714   3.016  0.6416  1.3548 -0.6576
18184TIP3    H275968   0.615   4.703   2.881 -1.1788  0.4535 -1.5249
18185TIP3   OH275969   3.203   0.971  17.153 -0.4280  0.3505 -0.7549
18185TIP3    H175970   3.263   0.919  17.207 -0.9984  1.2411  0.8130
18185TIP3    H275971   3.127   0.914  17.140 -0.6241  0.4049  0.0927
18186TIP3   OH275972   6.317   2.672  14.586 -0.5775 -0.0220  0.3257
18186TIP3    H175973   6.354   2.631  14.509 -0.8665  2.7123 -1.3904
18186TIP3    H275974   6.224   2.648  14.583 -0.6467  0.3092 -0.3610
18187TIP3   OH275975   2.408   0.332   5.155 -0.9246 -0.4094  0.6405
18187TIP3    H175976   2.318   0.305   5.170 -1.4882 -0.0387 -1.6403
18187TIP3    H275977   2.440   0.272   5.088 -0.2865  0.9262 -0.2947
18188TIP3   OH275978   3.258   1.433   3.024  0.5026 -0.1330 -0.0250
18188TIP3    H175979   3.292   1.512   3.067  0.5095 -0.0884 -0.1127
18188TIP3    H275980   3.230   1.463   2.938  0.4004 -0.2048 -0.0161
18189TIP3   OH275981   2.030   3.771  13.539  0.4676  0.3166  0.4592
18189TIP3    H175982   2.001   3.826  13.466 -0.5223 -0.7319  0.0247
18189TIP3    H275983   2.029   3.829  13.615  0.0020  1.0317 -0.0813
18190TIP3   OH275984   5.721   5.191   1.306  0.8802  0.4077 -0.0795
18190TIP3    H175985   5.750   5.238   1.228  0.9410  0.5825  0.0471
18190TIP3    H275986   5.758   5.103   1.297 -1.0218 -0.3277 -1.3990
18191TIP3   OH275987   4.316   2.161   1.574  0.1186  0.1094  0.5470
18191TIP3    H175988   4.241   2.121   1.529  0.8392 -0.2387 -0.3834
18191TIP3    H275989   4.391   2.137   1.520  0.6639  2.2021  0.3071
18192TIP3   OH275990   5.556   6.120   1.723 -0.5800  0.2876  0.3337
18192TIP3    H175991   5.542   6.061   1.796 -0.6836  0.1534  0.2069
18192TIP3    H275992   5.507   6.081   1.650 -0.1735  0.2181  0.0911
18193TIP3   OH275993   6.777   2.281   0.944  0.4110  0.4969 -0.1609
18193TIP3    H175994   6.757   2.365   0.987  3.4458  0.7051  1.1629
18193TIP3    H275995   6.820   2.306   0.862  2.3113  0.3777  0.7314
18194TIP3   OH275996   5.068   3.708   1.188 -0.1386  0.3562  0.0988
18194TIP3    H175997   4.995   3.765   1.211 -0.6082  0.0988 -0.7061
18194TIP3    H275998   5.027   3.628   1.154  0.5045 -0.4050  1.0457
18195TIP3   OH275999   0.808   1.194  16.606 -0.4075  0.0228  0.2371
18195TIP3    H176000   0.791   1.138  16.530  0.8228  0.4939 -0.4235
18195TIP3    H276001   0.727   1.243  16.619 -0.4844  0.2929 -1.1015
18196TIP3   OH276002   2.066   6.333  16.734  0.2343 -0.2684  0.2678
18196TIP3    H176003   2.148   6.313  16.781  0.0042 -0.7850  0.4598
18196TIP3    H276004   2.089   6.405  16.676  0.8853 -0.5471  0.1651
18197TIP3   OH276005   3.608   2.749  12.594  0.2253  0.4317 -0.3474
18197TIP3    H176006   3.595   2.798  12.512 -0.7609  0.3493 -0.2582
18197TIP3    H276007   3.563   2.802  12.660 -0.6382 -0.4638 -0.2043
18198TIP3   OH276008   1.265   1.798  11.360 -0.3441 -0.0512  0.2900
18198TIP3    H176009   1.329   1.728  11.348 -2.1928 -1.7641 -0.2933
18198TIP3    H276010   1.303   1.874  11.316  1.2080 -1.0214 -0.1110
18199TIP3   OH276011   3.524   5.788  12.238 -0.5507  0.6813  0.3378
18199TIP3    H176012   3.489   5.770  12.150  1.0897  1.4382 -0.5231
18199TIP3    H276013   3.603   5.734  12.243  0.9479  2.7587  0.1841
18200TIP3   OH276014   1.071   4.505   5.381  0.1041  0.1332 -0.2800
18200TIP3    H176015   0.983   4.542   5.385 -0.2855 -0.6828 -0.9437
18200TIP3    H276016   1.128   4.575   5.415 -0.8513  0.4371  0.7696
18201TIP3   OH276017   3.266   4.868   0.791 -0.5129  0.1740 -0.4964
18201TIP3    H176018   3.265   4.825   0.706  3.3662 -1.8119  0.2109
18201TIP3    H276019   3.247   4.798   0.854 -2.1307  1.3382  0.3689
18202TIP3   OH276020   6.463   1.554   1.614 -0.1537  0.6714  0.0346
18202TIP3    H176021   6.376   1.532   1.646 -0.2613  0.9175 -0.0821
18202TIP3    H276022   6.449   1.630   1.557  0.1152  0.6145 -0.1105
18203TIP3   OH276023   0.524   5.283   0.450  0.3452 -0.0636 -0.0182
18203TIP3    H176024   0.544   5.318   0.537  0.7382 -0.5078  0.0745
18203TIP3    H276025   0.432   5.305   0.436  0.9995  2.6165 -0.7218
18204TIP3   OH276026   1.144   4.069   5.945 -0.3499 -0.1284 -0.0585
18204TIP3    H176027   1.212   4.070   5.878 -0.2344  0.5173  0.0628
18204TIP3    H276028   1.158   3.986   5.992 -1.1046 -1.1163 -1.4862
18205TIP3   OH276029   4.245   3.019  12.852 -0.1193 -0.2342  0.1594
18205TIP3    H176030   4.270   2.946  12.908 -0.5291 -0.0079  0.6513
18205TIP3    H276031   4.312   3.085  12.867 -0.0345 -0.3093  0.1111
18206TIP3   OH276032   4.392   4.182   5.082  0.1767  0.0843  0.0560
18206TIP3    H176033   4.425   4.127   5.011 -0.2204  1.0673 -0.9184
18206TIP3    H276034   4.374   4.266   5.041 -0.1710  0.6483  1.3103
18207TIP3   OH276035   4.168   1.890   2.408  0.5096 -0.0794  0.0309
18207TIP3    H176036   4.179   1.963   2.469 -0.6528 -0.8696  1.2377
18207TIP3    H276037   4.079   1.898   2.376  0.9364  0.0065 -1.1889
18208TIP3   OH276038   6.467   5.244  12.610 -0.0413 -0.0317 -0.4710
18208TIP3    H176039   6.522   5.321  12.626  1.1652 -1.0296  0.4134
18208TIP3    H276040   6.520   5.188  12.554 -1.7647  0.6496 -2.9301
18209TIP3   OH276041   3.717   1.796  11.054  0.1274  0.2594  0.6618
18209TIP3    H176042   3.738   1.872  11.001 -1.5337  0.2356 -0.0975
18209TIP3    H276043   3.711   1.724  10.992 -1.2617  0.1182  0.9218
18210TIP3   OH276044   0.613   0.839  16.960 -0.0553 -0.8893 -0.2702
18210TIP3    H176045   0.588   0.755  16.922 -1.4883 -1.9392  2.6597
18210TIP3    H276046   0.532   0.889  16.965  0.7459  0.6448 -1.7703
18211TIP3   OH276047   3.526   6.347  10.800 -0.3308  0.1311 -0.4679
18211TIP3    H176048   3.503   6.255  10.793 -2.4387  0.5746  0.0255
18211TIP3    H276049   3.499   6.385  10.716  1.8867  0.0887 -1.2667
18212TIP3   OH276050   0.046   5.610  16.729 -0.1418  0.2258  0.2406
18212TIP3    H176051   0.023   5.602  16.822  0.1268 -0.9007  0.2278
18212TIP3    H276052   0.134   5.645  16.729  0.8774 -2.1208  0.5386
18213TIP3   OH276053   2.365   1.844   1.538  0.8277 -0.3353 -0.2412
18213TIP3    H176054   2.298   1.821   1.602 -0.6798  0.3127 -1.5235
18213TIP3    H276055   2.391   1.933   1.560 -0.6940  0.4095 -1.2977
18214TIP3   OH276056   2.554   5.713   1.459 -0.0334  1.1603 -0.8047
18214TIP3    H176057   2.532   5.800   1.427 -1.9703  1.3309  0.7818
18214TIP3    H276058   2.474   5.661   1.444 -0.6422  0.9368  2.4047
18215TIP3   OH276059   2.150   2.409   1.665  0.0316 -0.0510 -0.0133
18215TIP3    H176060   2.107   2.442   1.587 -2.5839  0.9239  1.6872
18215TIP3    H276061   2.114   2.321   1.677  0.3367 -0.1562  0.1594
18216TIP3   OH276062   3.510   4.475   0.132  0.4854 -0.4306 -0.2076
18216TIP3    H176063   3.594   4.468   0.178  0.4758  1.9389  0.2993
18216TIP3    H276064   3.516   4.410   0.062  2.7857 -0.2768 -0.2369
18217TIP3   OH276065   1.609   1.164  12.896  0.1144 -0.2431  0.7291
18217TIP3    H176066   1.693   1.121  12.910  0.0794 -0.5760 -0.0123
18217TIP3    H276067   1.589   1.206  12.979  0.9979 -0.1821  0.9231
18218TIP3   OH276068   5.234   1.322  16.150  0.0464 -0.7366  0.2094
18218TIP3    H176069   5.189   1.368  16.080  0.9028  0.9844  0.7441
18218TIP3    H276070   5.327   1.326  16.126  0.1813 -1.9492  0.4249
18219TIP3   OH276071   5.415   0.706   4.319 -0.5137  0.5778  0.0734
18219TIP3    H176072   5.434   0.683   4.410  0.0212  0.6950 -0.0040
18219TIP3    H276073   5.501   0.713   4.278 -0.7860 -0.9838 -0.8219
18220TIP3   OH276074   2.044   4.968  13.238  0.0251 -0.1513 -0.3830
18220TIP3    H176075   1.985   4.934  13.307  0.4350 -1.6382 -0.7331
18220TIP3    H276076   2.047   5.062  13.254 -1.0995 -0.2695  0.7019
18221TIP3   OH276077   4.730   3.227  13.098  0.3023  0.1046  0.0346
18221TIP3    H176078   4.744   3.321  13.083  2.6223 -0.0056  1.1453
18221TIP3    H276079   4.660   3.223  13.163 -0.7237  0.9910 -0.9700
18222TIP3   OH276080   4.456   5.920  17.019 -0.2202  0.1887  0.6922
18222TIP3    H176081   4.427   5.869  16.944  0.4334 -1.0221  1.2290
18222TIP3    H276082   4.496   5.856  17.077  1.8095  1.4715  0.8231
18223TIP3   OH276083   6.028   5.733   0.277 -0.9018  0.3093 -0.3931
18223TIP3    H176084   6.035   5.681   0.197  0.8468  0.9080 -0.6594
18223TIP3    H276085   6.108   5.714   0.325 -0.8525  1.7522  0.1187
18224TIP3   OH276086   6.225   3.333  10.802  0.2198  0.0619 -0.2147
18224TIP3    H176087   6.235   3.390  10.726  1.4704  0.3486  0.1416
18224TIP3    H276088   6.187   3.252  10.767  2.4257 -0.4960 -1.4877
18225TIP3   OH276089   1.990   2.517  14.150  0.3885 -0.0564  0.2270
18225TIP3    H176090   1.908   2.556  14.181  0.1000  1.7087 -2.4736
18225TIP3    H276091   1.973   2.423  14.149 -1.1673  0.1935  0.8071
18226TIP3   OH276092   0.512   4.727  16.682 -0.2619  0.4150 -0.1717
18226TIP3    H176093   0.602   4.703  16.661 -0.3828 -0.3569  0.1478
18226TIP3    H276094   0.461   4.647  16.667 -0.7843  0.6436  0.3052
18227TIP3   OH276095   3.052   6.376  10.530  0.3612  0.0744  0.2674
18227TIP3    H176096   3.002   6.310  10.482  1.7254 -1.8406  1.3689
18227TIP3    H276097   3.114   6.411  10.467  0.8618 -1.0462  0.1302
18228TIP3   OH276098   4.216   4.746  10.531 -0.0611 -0.0729 -0.2392
18228TIP3    H176099   4.283   4.775  10.469  1.0790  1.3637  1.5572
18228TIP3    H276100   4.252   4.666  10.569  0.4583  0.4828  0.4432
18229TIP3   OH276101   5.151   3.865   4.559 -0.0164  0.8569  0.0044
18229TIP3    H176102   5.244   3.886   4.548  0.0171  0.2508 -0.9610
18229TIP3    H276103   5.150   3.784   4.609  0.0616 -0.3217 -1.8400
18230TIP3   OH276104   3.013   1.788  15.659  0.1143  0.4353 -0.5893
18230TIP3    H176105   3.101   1.771  15.691  0.5441 -0.7525 -2.2874
18230TIP3    H276106   3.024   1.818  15.569 -1.1611  1.5672 -0.4061
18231TIP3   OH276107   4.308   3.644  13.153  0.4156  0.0784  0.0458
18231TIP3    H176108   4.379   3.647  13.217  1.2362  1.2726 -0.8884
18231TIP3    H276109   4.280   3.552  13.153  2.4326 -0.5764 -0.0883
18232TIP3   OH276110   4.272   0.563  11.795 -0.2643  0.5733 -0.0208
18232TIP3    H176111   4.312   0.632  11.742 -0.6282  0.8655  0.0823
18232TIP3    H276112   4.332   0.550  11.868  1.3887 -1.3684 -1.6147
18233TIP3   OH276113   2.051   5.420   2.609 -0.2638  0.3583 -0.4723
18233TIP3    H176114   2.070   5.496   2.663  0.5084  1.2823 -1.9777
18233TIP3    H276115   2.021   5.456   2.526 -2.0093 -1.0220 -0.5165
18234TIP3   OH276116   5.232   0.165   5.994  0.0591  0.4125  0.5943
18234TIP3    H176117   5.146   0.207   5.979  0.2331 -0.2199 -3.0555
18234TIP3    H276118   5.295   0.229   5.962  0.7232 -0.3655  0.3243
18235TIP3   OH276119   0.968   6.504  14.284  0.3009 -0.2848 -0.1280
18235TIP3    H176120   0.952   6.474  14.194 -0.4634 -1.5179  0.3915
18235TIP3    H276121   1.043   6.453  14.314  2.2258  1.9143 -0.8527
18236TIP3   OH276122   4.177   3.358  13.943  0.7965  0.3896  0.1623
18236TIP3    H176123   4.094   3.309  13.941  0.9664  0.0045  1.4350
18236TIP3    H276124   4.185   3.395  13.855 -0.3145 -0.2526 -0.2363
18237TIP3   OH276125   0.142   1.014   4.783  1.1112  0.1485  0.2407
18237TIP3    H176126   0.209   0.955   4.817 -1.0275 -2.8335 -0.3584
18237TIP3    H276127   0.135   0.991   4.690 -0.2387  0.8976  0.1401
18238TIP3   OH276128   3.185   3.995  14.438 -0.4372  0.2620  0.3611
18238TIP3    H176129   3.190   4.004  14.342  1.6313  1.3802  0.5229
18238TIP3    H276130   3.092   3.996  14.457 -1.0423 -2.1842 -1.8094
18239TIP3   OH276131   4.205   1.539  11.743  0.1685  0.4980 -0.1291
18239TIP3    H176132   4.148   1.487  11.686 -0.2202  0.3824  0.3567
18239TIP3    H276133   4.168   1.627  11.739 -0.1094  0.4031  0.2595
18240TIP3   OH276134   2.255   1.423  16.164 -0.3730 -0.7005  0.0804
18240TIP3    H176135   2.163   1.414  16.190 -0.1090 -0.0155  1.3712
18240TIP3    H276136   2.303   1.410  16.246  0.5184  1.7680  0.0174
18241TIP3   OH276137   3.429   5.990   5.311  0.2273 -0.0932 -0.0406
18241TIP3    H176138   3.470   5.913   5.271  0.1734 -1.3878  2.2011
18241TIP3    H276139   3.351   6.005   5.258 -1.0274 -3.0723  0.7440
18242TIP3   OH276140   3.178   2.466  12.836  0.4208 -0.7488 -0.5807
18242TIP3    H176141   3.213   2.507  12.915 -0.6144 -0.1910 -0.3855
18242TIP3    H276142   3.142   2.383  12.866 -0.5827 -0.2343 -0.3215
18243TIP3   OH276143   2.265   1.457   1.531  0.4169 -0.5922  0.3210
18243TIP3    H176144   2.273   1.383   1.592  1.2179  0.1972  1.2080
18243TIP3    H276145   2.355   1.478   1.506  0.1544 -0.3072 -0.4232
18244TIP3   OH276146   0.861   2.038  13.812  0.3403 -0.0682  0.1050
18244TIP3    H176147   0.923   2.018  13.742 -1.9055  0.9583 -2.3576
18244TIP3    H276148   0.804   2.105  13.775 -3.3437 -2.1603  1.4439
18245TIP3   OH276149   6.583   1.002  17.008  0.4878 -0.3529 -0.2146
18245TIP3    H176150   6.624   0.974  17.089  1.2705 -3.9030 -1.6230
18245TIP3    H276151   6.489   1.004  17.027  0.7705  0.6880  1.1787
18246TIP3   OH276152   6.013   6.660   1.631 -0.0768  0.9166  0.0295
18246TIP3    H176153   6.018   6.715   1.709  0.6083  0.2174  0.4898
18246TIP3    H276154   6.085   6.597   1.641 -1.3236 -0.5848 -0.0928
18247TIP3   OH276155   2.160   6.728  14.300 -0.7385 -0.3528 -0.3953
18247TIP3    H176156   2.151   6.819  14.272 -2.1572 -0.3691 -0.0655
18247TIP3    H276157   2.095   6.681  14.247 -1.7808 -0.7602  1.1683
18248TIP3   OH276158   0.384   3.775  12.807  0.5438  0.0739 -0.3310
18248TIP3    H176159   0.413   3.776  12.716 -2.3918  1.0825 -1.3969
18248TIP3    H276160   0.291   3.751  12.801  0.0938  0.8903  2.3309
18249TIP3   OH276161   3.125   1.392  11.564 -0.2236 -0.6387 -0.0277
18249TIP3    H176162   3.216   1.390  11.594 -0.7950 -1.6279  1.8619
18249TIP3    H276163   3.129   1.367  11.472  1.4005 -0.7159  0.0291
18250TIP3   OH276164   5.499   4.495  13.235 -0.4193  0.1987 -0.3465
18250TIP3    H176165   5.463   4.506  13.322  0.3977 -2.1495  0.3526
18250TIP3    H276166   5.446   4.552  13.179 -3.3646 -1.0048  1.0655
18251TIP3   OH276167   2.582   0.692  11.134  0.2144 -0.7645  0.2674
18251TIP3    H176168   2.665   0.683  11.180 -1.1168  0.6705  3.2616
18251TIP3    H276169   2.554   0.602  11.118  0.2170 -1.4891  3.5958
18252TIP3   OH276170   1.065   1.030  12.995  0.8038  0.0939  0.7531
18252TIP3    H176171   1.078   1.014  12.901 -1.1392  2.0573  0.0757
18252TIP3    H276172   1.073   1.124  13.005 -4.2433  0.7058  1.4794
18253TIP3   OH276173   1.935   1.932   4.420  0.2981 -0.2603 -0.0323
18253TIP3    H176174   1.862   1.992   4.433 -0.0581 -0.5588 -0.6296
18253TIP3    H276175   2.009   1.973   4.467 -0.3052 -0.0769  0.7771
18254TIP3   OH276176   2.697   2.433  13.211 -0.5565 -0.3223  0.3307
18254TIP3    H176177   2.713   2.461  13.121 -1.6400 -0.4749  0.0758
18254TIP3    H276178   2.603   2.417  13.215 -0.4289 -0.9359  1.3212
18255TIP3   OH276179   3.199   2.555   0.324  0.1244 -0.0330  0.1313
18255TIP3    H176180   3.265   2.623   0.331  2.7741 -2.0688 -2.5105
18255TIP3    H276181   3.159   2.551   0.411  2.7326  2.0465  1.5621
18256TIP3   OH276182   6.690   5.889   0.291  0.3967  0.2096 -0.3674
18256TIP3    H176183   6.622   5.833   0.327 -0.1355  2.6773  2.8444
18256TIP3    H276184   6.667   5.898   0.198 -3.5007  0.6471  0.4705
18257TIP3   OH276185   6.717   0.879  15.337  0.3394  0.1176 -0.2381
18257TIP3    H176186   6.791   0.849  15.284  0.5858 -0.5898  0.4837
18257TIP3    H276187   6.738   0.971  15.357  0.0789  0.4954 -1.6111
18258TIP3   OH276188   1.030   5.061   5.302 -0.1313  0.6480  0.0261
18258TIP3    H176189   1.087   5.087   5.229 -0.4152  2.2539  0.3374
18258TIP3    H276190   1.072   5.098   5.380 -1.8579  2.3817  0.1995
18259TIP3   OH276191   5.394   3.514  11.928  0.1474  0.0395 -0.3970
18259TIP3    H176192   5.431   3.441  11.878 -1.5223 -0.2141 -1.3282
18259TIP3    H276193   5.361   3.574  11.861 -1.9124 -0.1763  0.3553
18260TIP3   OH276194   2.083   2.399  14.954 -0.2912  0.0012  0.5145
18260TIP3    H176195   2.163   2.448  14.975 -0.0407 -0.8838  1.7179
18260TIP3    H276196   2.098   2.312  14.991 -1.6302 -0.3157  0.3496
18261TIP3   OH276197   6.704   4.799   4.740 -0.3027  0.0473 -0.5772
18261TIP3    H176198   6.739   4.727   4.792  1.1987 -0.8102 -2.6741
18261TIP3    H276199   6.777   4.861   4.733 -0.8085  0.6209 -0.8450
18262TIP3   OH276200   2.192   3.094   2.270 -0.2534  0.1243 -0.0991
18262TIP3    H176201   2.159   3.134   2.190  0.0977  0.4664 -0.0783
18262TIP3    H276202   2.288   3.095   2.260 -0.2166 -0.0623  0.2108
18263TIP3   OH276203   2.847   4.415   4.792  0.2243  0.2162  0.4926
18263TIP3    H176204   2.938   4.439   4.773  0.2894  0.4491  1.0915
18263TIP3    H276205   2.823   4.354   4.721  0.3046  1.4433 -0.6306
18264TIP3   OH276206   0.807   6.437   2.186 -0.3264 -0.1767 -0.0676
18264TIP3    H176207   0.806   6.409   2.094 -0.6451  0.7690 -0.3593
18264TIP3    H276208   0.874   6.505   2.190 -1.0241  0.5025  0.1828
18265TIP3   OH276209   6.386   4.473  17.133 -0.3076 -0.3389  0.1284
18265TIP3    H176210   6.299   4.460  17.172  0.1958 -2.5698  0.6662
18265TIP3    H276211   6.385   4.417  17.055  0.2522  0.5908 -0.5616
18266TIP3   OH276212   1.566   5.870   2.924  0.1475 -0.0106  0.1579
18266TIP3    H176213   1.473   5.858   2.941  0.3562 -0.9789  0.6603
18266TIP3    H276214   1.569   5.936   2.854 -0.9769 -0.9950 -0.8745
18267TIP3   OH276215   1.868   4.257   2.775 -0.3358 -0.4087 -0.1723
18267TIP3    H176216   1.826   4.243   2.860  0.7688 -0.7579  0.3444
18267TIP3    H276217   1.896   4.348   2.776 -1.0362 -0.1836 -0.5058
18268TIP3   OH276218   3.130   0.130   5.251  0.2030 -0.4399 -0.2862
18268TIP3    H176219   3.223   0.144   5.269  0.5174  0.9616 -2.5367
18268TIP3    H276220   3.085   0.164   5.328  1.5161  0.1320  0.2661
18269TIP3   OH276221   3.143   2.274  15.291 -0.4619  0.4298 -0.1316
18269TIP3    H176222   3.194   2.285  15.371 -1.4601  0.6513  0.4821
18269TIP3    H276223   3.199   2.311  15.222  0.4164  0.2049  0.4505
18270TIP3   OH276224   2.055   5.032   4.361  0.3903 -0.2744  0.0844
18270TIP3    H176225   2.144   5.065   4.376  0.4453  0.1894 -1.0821
18270TIP3    H276226   1.999   5.109   4.370  0.0877 -0.5911  0.9413
18271TIP3   OH276227   1.754   2.732  15.409  0.1401  0.5481 -0.3305
18271TIP3    H176228   1.702   2.806  15.442 -0.0000  1.1292 -1.7928
18271TIP3    H276229   1.819   2.772  15.351  0.9960 -0.3548 -0.0275
18272TIP3   OH276230   2.072   2.184  16.793 -0.3643  1.0040  0.2844
18272TIP3    H176231   2.033   2.110  16.746  0.9484  0.4346  0.0334
18272TIP3    H276232   2.033   2.182  16.880 -0.0035 -0.2837  0.4282
18273TIP3   OH276233   5.394   4.110   0.076 -0.0503 -0.0885 -0.1865
18273TIP3    H176234   5.457   4.067   0.019  1.1742  0.3498  0.7886
18273TIP3    H276235   5.446   4.138   0.152 -1.5403 -0.2460  0.9245
18274TIP3   OH276236   4.705   0.708  13.169  0.3622  0.3048  0.2154
18274TIP3    H176237   4.649   0.634  13.192 -1.3842  1.4801  0.0384
18274TIP3    H276238   4.746   0.684  13.086  0.1400 -0.6195  0.3695
18275TIP3   OH276239   2.922   1.490   4.494 -0.0659  0.6503  0.1438
18275TIP3    H176240   2.903   1.534   4.577 -3.4573  0.1738 -0.2545
18275TIP3    H276241   2.889   1.550   4.427 -0.4211 -0.4119 -0.6555
18276TIP3   OH276242   3.971   0.326   6.597 -0.0829  0.1223 -0.1330
18276TIP3    H176243   3.884   0.351   6.566 -0.4902 -1.2630 -0.1639
18276TIP3    H276244   4.028   0.399   6.571 -1.2609  1.1466  0.0887
18277TIP3   OH276245   5.154   4.563   4.477  0.0457 -0.1715  0.1413
18277TIP3    H176246   5.245   4.558   4.448  0.4913  1.3150  1.1521
18277TIP3    H276247   5.108   4.497   4.425  1.3536  0.2640 -1.6586
18278TIP3   OH276248   1.982   2.454   5.556  0.8330  0.3734 -0.1444
18278TIP3    H176249   2.041   2.529   5.557  2.2925 -0.7405 -0.1759
18278TIP3    H276250   1.994   2.413   5.642 -0.1388  0.2975 -0.0308
18279TIP3   OH276251   2.487   2.668   0.800 -0.0407  0.4595 -0.8758
18279TIP3    H176252   2.478   2.701   0.711  1.0981  2.1258 -0.4236
18279TIP3    H276253   2.475   2.574   0.792  0.0699  0.5704 -2.7923
18280TIP3   OH276254   5.362   0.096  15.226 -0.3715 -0.3801 -1.0075
18280TIP3    H176255   5.276   0.117  15.190 -0.9294 -0.6288  0.1456
18280TIP3    H276256   5.344   0.039  15.300  0.8201 -0.7840 -1.0074
18281TIP3   OH276257   1.477   0.552  17.109  0.1180  0.4989  0.4269
18281TIP3    H176258   1.415   0.594  17.050 -0.0768  1.2261  1.1206
18281TIP3    H276259   1.552   0.530  17.054 -1.0637 -1.1415 -0.5906
18282TIP3   OH276260   3.869   4.007  15.456 -0.0233 -0.6245 -0.1892
18282TIP3    H176261   3.835   3.966  15.376  1.1949 -0.1144 -0.9862
18282TIP3    H276262   3.953   3.965  15.471  1.3726  1.6302 -1.1499
18283TIP3   OH276263   1.931   4.921  16.536  0.2290 -0.3452 -0.3584
18283TIP3    H176264   1.877   4.849  16.567 -0.6646 -0.3829 -1.8707
18283TIP3    H276265   1.869   4.980  16.493  0.7316  1.9599  1.8190
18284TIP3   OH276266   2.509   4.014   1.406 -0.0779  0.0439  0.2238
18284TIP3    H176267   2.422   3.978   1.392 -1.0422  2.8628 -2.0028
18284TIP3    H276268   2.554   4.002   1.322  1.7713 -1.4050  1.3488
18285TIP3   OH276269   5.948   1.730  17.218  0.3337  0.0586 -0.3488
18285TIP3    H176270   5.857   1.752  17.200  0.1392 -0.7183 -0.3480
18285TIP3    H276271   5.974   1.673  17.145  1.0485  0.8717 -0.7441
18286TIP3   OH276272   1.422   2.423  11.883  0.5199  0.3210 -0.4250
18286TIP3    H176273   1.513   2.441  11.857  0.3638 -2.2808 -3.4165
18286TIP3    H276274   1.370   2.446  11.806 -1.4544  1.8810  1.2794
18287TIP3   OH276275   4.935   2.272   6.644 -0.5750 -0.3966 -0.2353
18287TIP3    H176276   4.941   2.331   6.569 -0.2209  0.5426  0.5112
18287TIP3    H276277   4.856   2.221   6.628  0.8553 -2.0906 -2.5683
18288TIP3   OH276278   5.911   3.582  12.738 -0.4405 -0.0634  0.1687
18288TIP3    H176279   5.916   3.613  12.647 -0.3241  0.2002  0.2658
18288TIP3    H276280   5.823   3.545  12.745 -0.5669  0.2124  0.0430
18289TIP3   OH276281   0.433   4.476   5.551 -0.0762 -0.3481  0.4398
18289TIP3    H176282   0.411   4.566   5.526  0.5739 -0.2070  0.3497
18289TIP3    H276283   0.388   4.462   5.634 -1.2247 -0.3810 -0.1643
18290TIP3   OH276284   3.630   6.719   1.949  0.3932  0.9269 -0.1521
18290TIP3    H176285   3.722   6.734   1.973  0.2691  0.3966  0.6727
18290TIP3    H276286   3.583   6.718   2.032 -0.2644  0.4944 -0.5226
18291TIP3   OH276287   1.369   4.070   5.246 -0.4732 -0.4759 -0.2630
18291TIP3    H176288   1.328   4.078   5.160 -0.1227  0.5283 -0.3593
18291TIP3    H276289   1.460   4.097   5.231 -0.8975  1.8019  0.7920
18292TIP3   OH276290   1.358   3.899  12.692  0.4180  0.5755 -0.5469
18292TIP3    H176291   1.372   3.914  12.599  0.8049  1.9552 -0.2916
18292TIP3    H276292   1.323   3.982  12.725 -0.9963 -0.2990  0.3071
18293TIP3   OH276293   5.801   6.539   5.170 -0.1558 -0.0886 -0.1517
18293TIP3    H176294   5.850   6.613   5.206  0.0606  0.0078 -0.6374
18293TIP3    H276295   5.730   6.580   5.120  0.4109 -0.1818 -1.0596
18294TIP3   OH276296   5.308   5.986  12.130  0.2570  0.5585  0.4829
18294TIP3    H176297   5.310   6.058  12.067 -2.2296  2.8505  2.7832
18294TIP3    H276298   5.237   5.929  12.100  0.9870  0.0414 -0.3062
18295TIP3   OH276299   0.505   4.109  15.902  0.2083  0.1740 -0.0834
18295TIP3    H176300   0.428   4.150  15.862 -2.4960 -1.3400  3.1619
18295TIP3    H276301   0.525   4.164  15.978  1.8635  0.0488 -0.3893
18296TIP3   OH276302   3.821   1.849   1.838 -0.1380 -0.5094  0.2406
18296TIP3    H176303   3.741   1.831   1.790 -0.6740 -2.0419  1.6044
18296TIP3    H276304   3.871   1.909   1.782 -0.6589 -2.2690 -2.2248
18297TIP3   OH276305   0.547   5.658   5.192 -0.1373  0.3445 -0.3885
18297TIP3    H176306   0.635   5.645   5.226  0.3283  1.0000 -1.3099
18297TIP3    H276307   0.497   5.584   5.226 -0.2568  1.9286  3.4082
18298TIP3   OH276308   4.404   0.048   5.266  0.0392  0.4255 -0.3992
18298TIP3    H176309   4.457  -0.031   5.273 -0.8797 -0.1078  1.0517
18298TIP3    H276310   4.317   0.021   5.295 -0.7733  1.5413 -1.6642
18299TIP3   OH276311   4.014   1.661  12.672  0.4592 -0.0022 -0.0844
18299TIP3    H176312   3.951   1.686  12.604  0.4420  1.7310  0.4974
18299TIP3    H276313   4.097   1.700  12.644  0.9605 -1.0626 -0.1362
18300TIP3   OH276314   1.586   4.819   2.649  0.1331  0.5199  0.5123
18300TIP3    H176315   1.630   4.897   2.616  0.2972 -0.0600 -0.6802
18300TIP3    H276316   1.579   4.834   2.744  2.7003  0.7320  0.7453
18301TIP3   OH276317   2.533   0.683   5.827  0.7346  0.0779 -0.0213
18301TIP3    H176318   2.595   0.750   5.856  1.8394  0.0659 -2.1860
18301TIP3    H276319   2.448   0.727   5.826  1.0527  0.7318  0.8371
18302TIP3   OH276320   5.040   4.109  12.818 -0.0410 -0.1813  0.4724
18302TIP3    H176321   5.029   4.156  12.901  0.6607 -0.3353  0.6554
18302TIP3    H276322   5.073   4.023  12.844  1.1969  0.1268 -0.0291
18303TIP3   OH276323   0.191   2.390  12.036  0.1130  0.7667 -0.5956
18303TIP3    H176324   0.144   2.473  12.029 -0.7352  0.4252  0.7062
18303TIP3    H276325   0.210   2.381  12.129 -1.4781 -1.3525 -0.3975
18304TIP3   OH276326   0.562   1.089  11.951  0.1838 -0.0119  0.0532
18304TIP3    H176327   0.518   1.143  12.017  0.5617  0.9358 -0.4354
18304TIP3    H276328   0.583   1.008  11.996  0.3800  0.5882  1.0844
18305TIP3   OH276329   2.971   0.625  11.778  0.0331  0.0997 -0.4982
18305TIP3    H176330   3.013   0.710  11.793 -2.0256  0.8934  1.3090
18305TIP3    H276331   3.011   0.568  11.844 -0.0244  0.2267 -0.3508
18306TIP3   OH276332   1.905   0.988  13.811  0.2461  0.2066  0.1801
18306TIP3    H176333   1.930   0.924  13.877 -0.4044 -0.8232 -0.5494
18306TIP3    H276334   1.825   1.029  13.845  2.1181  2.6858  1.9688
18307TIP3   OH276335   4.642   2.350   0.404  0.2025 -0.2637  0.0852
18307TIP3    H176336   4.677   2.346   0.315 -0.4056  1.5818 -0.2728
18307TIP3    H276337   4.718   2.372   0.459  0.3840 -0.4201 -0.0983
18308TIP3   OH276338   1.646   1.732  12.908 -0.8536  0.1050 -0.7435
18308TIP3    H176339   1.689   1.670  12.849  0.2444 -0.3961  0.5219
18308TIP3    H276340   1.575   1.682  12.948 -0.5604 -0.0615 -0.4251
18309TIP3   OH276341   6.301   5.807   5.870  0.4514 -0.1000  0.3359
18309TIP3    H176342   6.348   5.851   5.942 -0.5552 -0.4566  1.2374
18309TIP3    H276343   6.213   5.792   5.905 -0.3738  0.6116 -1.3406
18310TIP3   OH276344   4.654   2.992   1.935 -0.1714  0.0166  0.7167
18310TIP3    H176345   4.646   3.079   1.896  1.5915  0.6213  1.5799
18310TIP3    H276346   4.573   2.948   1.913 -2.1409  2.6612  2.1449
18311TIP3   OH276347   1.774   4.490   5.367  0.2884 -0.4341 -0.2364
18311TIP3    H176348   1.715   4.450   5.430  1.0242 -1.6005 -0.2455
18311TIP3    H276349   1.719   4.547   5.314 -0.6314 -0.7169  0.4001
18312TIP3   OH276350   0.166   4.561   0.500 -0.2308 -0.7953  0.0191
18312TIP3    H176351   0.259   4.569   0.479 -0.0593  0.5318  1.1496
18312TIP3    H276352   0.141   4.648   0.532 -2.0260 -0.9242 -0.8674
18313TIP3   OH276353   2.145   1.778   0.870 -0.3874 -0.0988  0.2173
18313TIP3    H176354   2.091   1.800   0.794  0.3029 -0.7468 -0.4833
18313TIP3    H276355   2.232   1.812   0.849 -0.3320  0.2701  0.9985
18314TIP3   OH276356   0.481   6.191   3.259 -0.6854  0.1441 -0.4938
18314TIP3    H176357   0.483   6.231   3.345  0.8407  0.2739 -0.5559
18314TIP3    H276358   0.388   6.175   3.241 -0.9348 -1.5512  1.9289
18315TIP3   OH276359   4.997   1.307  15.947  0.2357  0.2785  0.5475
18315TIP3    H176360   5.000   1.305  15.851 -1.6430  0.2333  0.4608
18315TIP3    H276361   5.030   1.221  15.974 -2.2535 -0.9910 -0.2130
18316TIP3   OH276362   4.443   0.493   0.614  0.6153  0.4302  0.4819
18316TIP3    H176363   4.499   0.568   0.597 -0.1757  1.2296  1.2529
18316TIP3    H276364   4.354   0.525   0.599  0.3687 -1.1266 -1.8578
18317TIP3   OH276365   5.565   3.343  15.717  0.1682  0.2289  0.2309
18317TIP3    H176366   5.532   3.425  15.679  1.4616  0.7799  0.2502
18317TIP3    H276367   5.538   3.275  15.656 -0.8129  0.6789  0.1515
18318TIP3   OH276368   0.519   1.932  16.336 -0.2819  0.7555 -0.3532
18318TIP3    H176369   0.581   1.870  16.298  1.0087  2.0849 -0.4941
18318TIP3    H276370   0.541   1.934  16.430 -1.4629 -0.2556 -0.0301
18319TIP3   OH276371   6.174   3.738   5.042  0.0850  0.1834  0.0470
18319TIP3    H176372   6.215   3.749   4.956 -0.2973  0.8971 -0.0495
18319TIP3    H276373   6.081   3.752   5.026 -0.3152 -1.9814  0.1522
18320TIP3   OH276374   4.597   5.243   0.636  0.0872  0.1668 -0.7734
18320TIP3    H176375   4.678   5.198   0.613 -0.2454 -0.3630 -0.9093
18320TIP3    H276376   4.546   5.178   0.684  0.3168  0.9135  0.5497
18321TIP3   OH276377   3.938   5.349   6.339 -0.1297  0.1564 -0.4455
18321TIP3    H176378   3.992   5.393   6.274  1.0932 -1.7971 -0.8220
18321TIP3    H276379   3.848   5.361   6.307  0.4107 -0.3565 -2.2633
18322TIP3   OH276380   1.628   5.674  15.379 -0.1712 -0.4365  0.0528
18322TIP3    H176381   1.597   5.719  15.301  0.6532 -0.2141 -0.1594
18322TIP3    H276382   1.637   5.582  15.351 -0.9649 -0.5664  0.2175
18323TIP3   OH276383   5.121   0.628  13.063 -0.3368  0.1641  0.6962
18323TIP3    H176384   5.130   0.701  13.002  0.3421  0.3856  1.0506
18323TIP3    H276385   5.050   0.654  13.121 -0.6987  0.1417  0.2659
18324TIP3   OH276386   3.273   2.648  16.913 -0.3724 -0.4772  0.1287
18324TIP3    H176387   3.325   2.574  16.884  1.1660  0.3274  0.7590
18324TIP3    H276388   3.313   2.675  16.996 -1.5446  0.4180  0.4306
18325TIP3   OH276389   1.639   6.478  13.454 -0.4109 -0.0017  0.4822
18325TIP3    H176390   1.712   6.430  13.415 -0.8234  0.3249 -0.7530
18325TIP3    H276391   1.676   6.521  13.531  0.3216 -1.0590  0.7369
18326TIP3   OH276392   6.664   5.846   1.138 -0.4370 -0.6258  0.1850
18326TIP3    H176393   6.725   5.883   1.202 -1.2994  0.8861  0.1831
18326TIP3    H276394   6.667   5.906   1.064 -2.1285 -0.3539  0.3019
18327TIP3   OH276395   3.381   0.142   3.151 -0.1811 -0.5237 -0.1706
18327TIP3    H176396   3.320   0.079   3.113  0.7240 -0.8614 -1.1157
18327TIP3    H276397   3.412   0.099   3.231  2.8544 -2.8734 -2.3443
18328TIP3   OH276398   1.505   0.558  16.704 -0.9897 -0.1346  0.2193
18328TIP3    H176399   1.490   0.468  16.675 -1.3366 -0.1793  0.5279
18328TIP3    H276400   1.518   0.608  16.624  3.7541 -1.1923  0.0498
18329TIP3   OH276401   5.792   2.021  17.079  0.2003 -0.8174  0.3560
18329TIP3    H176402   5.802   2.113  17.058  0.6187 -0.6260  1.3168
18329TIP3    H276403   5.809   2.016  17.173  0.0645 -1.8556  0.3406
18330TIP3   OH276404   3.881   0.805  13.040 -0.7354 -0.2717  0.1054
18330TIP3    H176405   3.828   0.858  13.099 -1.2332  1.5305 -1.8723
18330TIP3    H276406   3.942   0.867  13.000 -0.3810 -1.4487 -1.2388
18331TIP3   OH276407   5.694   3.904   0.347  0.0210 -0.1136  0.1751
18331TIP3    H176408   5.668   3.844   0.278 -0.6339 -2.9662  2.6978
18331TIP3    H276409   5.789   3.892   0.355 -0.0459 -0.4997  0.3930
18332TIP3   OH276410   3.363   1.738  11.054 -0.1103 -0.1584 -0.2585
18332TIP3    H176411   3.355   1.818  11.003  1.7854 -0.1508 -0.6309
18332TIP3    H276412   3.417   1.763  11.130 -0.1341 -0.9086  0.0142
18333TIP3   OH276413   5.479   2.428  16.299 -0.2554 -0.2310  0.2429
18333TIP3    H176414   5.492   2.405  16.207  2.3260 -0.0490  0.4844
18333TIP3    H276415   5.392   2.394  16.320 -0.2966 -1.6184 -1.8532
18334TIP3   OH276416   4.174   0.044   2.857  0.2542  0.3875  0.1741
18334TIP3    H176417   4.150   0.128   2.818 -0.6143 -0.0494 -0.2623
18334TIP3    H276418   4.091  -0.004   2.864  0.8373 -0.7294 -0.3015
18335TIP3   OH276419   4.285   4.853   3.792  0.7548  0.4344 -0.3565
18335TIP3    H176420   4.256   4.944   3.804 -1.9827 -0.2497 -1.1451
18335TIP3    H276421   4.273   4.812   3.878 -3.3070 -0.4411 -1.1601
18336TIP3   OH276422   5.249   3.353   4.963 -0.1654 -0.5791  0.1774
18336TIP3    H176423   5.199   3.343   4.882  0.7242 -1.9820 -0.2460
18336TIP3    H276424   5.234   3.271   5.011  1.6625 -1.0457  0.0349
18337TIP3   OH276425   4.707   6.714   5.798 -0.4350  0.6114 -0.2246
18337TIP3    H176426   4.783   6.764   5.828 -0.4872  1.1736 -1.0050
18337TIP3    H276427   4.641   6.727   5.867 -0.9293  2.7605 -1.0109
18338TIP3   OH276428   4.284   5.528   1.866  0.3158  0.8386  0.2451
18338TIP3    H176429   4.340   5.453   1.886  0.4081  1.4920  2.7677
18338TIP3    H276430   4.339   5.604   1.880 -0.9153  1.4771  1.9365
18339TIP3   OH276431   2.778   5.196   1.290  0.5722  0.4131  0.7987
18339TIP3    H176432   2.691   5.220   1.257  1.5218  2.1608 -0.6218
18339TIP3    H276433   2.818   5.279   1.315  2.7363 -0.0063 -0.9540
18340TIP3   OH276434   0.452   2.145   3.176 -0.4486 -0.3060 -0.5009
18340TIP3    H176435   0.458   2.068   3.119  0.5755 -0.7288  0.1568
18340TIP3    H276436   0.416   2.213   3.119 -0.6210 -1.0503 -1.3129
18341TIP3   OH276437   2.742   2.609  15.213 -0.7664 -0.1005  0.0537
18341TIP3    H176438   2.811   2.652  15.162 -0.1468  0.3325  1.2135
18341TIP3    H276439   2.709   2.540  15.156 -0.6947  0.9138 -1.2617
18342TIP3   OH276440   6.667   3.284   2.457  0.1385  0.1590 -0.4189
18342TIP3    H176441   6.730   3.239   2.514 -2.3793  0.2023  2.7223
18342TIP3    H276442   6.620   3.213   2.414 -1.2885 -0.2193  1.6028
18343TIP3   OH276443   4.760   3.938  15.026  0.0535 -0.1417 -0.5734
18343TIP3    H176444   4.721   3.871  15.082 -0.3595 -0.7962 -1.6085
18343TIP3    H276445   4.852   3.941  15.053  0.0074 -0.9074 -0.2937
18344TIP3   OH276446   1.535   4.443  12.641 -0.4291  0.2227  0.2754
18344TIP3    H176447   1.569   4.528  12.666 -1.2269  0.6788 -0.1583
18344TIP3    H276448   1.563   4.431  12.550 -0.1258 -0.0815  0.4058
18345TIP3   OH276449   4.895   4.126   2.981  0.0034 -0.1406 -0.9745
18345TIP3    H176450   4.988   4.116   3.001  0.2795  0.9366 -1.6377
18345TIP3    H276451   4.893   4.176   2.900 -1.1467  1.4831 -0.0214
18346TIP3   OH276452   5.220   5.341   4.060 -0.3000  0.3131 -0.2764
18346TIP3    H176453   5.201   5.394   4.138 -1.7199 -1.5299  0.7065
18346TIP3    H276454   5.134   5.327   4.019  0.1524 -0.5003 -0.9798
18347TIP3   OH276455   3.680   2.682   3.332  0.1417  0.2597 -0.5242
18347TIP3    H176456   3.657   2.590   3.340 -0.9533  0.4411 -1.2306
18347TIP3    H276457   3.711   2.692   3.243  1.3131  0.3766 -0.1156
18348TIP3   OH276458   3.611   2.904   5.880  0.7882 -0.3822 -0.3503
18348TIP3    H176459   3.557   2.925   5.804 -2.6166 -1.7174  1.4410
18348TIP3    H276460   3.635   2.989   5.917  0.9008  0.2613 -1.8297
18349TIP3   OH276461   3.268   2.823  12.063 -0.6655 -0.3389 -0.4369
18349TIP3    H176462   3.181   2.783  12.069  0.2713 -2.5378 -0.5675
18349TIP3    H276463   3.320   2.761  12.013  0.6308  1.6450 -1.6870
18350TIP3   OH276464   2.263   5.892  14.023  0.0849  0.2083 -0.4160
18350TIP3    H176465   2.317   5.967  14.049  0.8913 -0.8124  0.9770
18350TIP3    H276466   2.281   5.881  13.930 -0.1441  1.7945 -0.6903
18351TIP3   OH276467   2.118   1.158  10.924  0.5505 -0.6655  0.0210
18351TIP3    H176468   2.039   1.204  10.895  0.8184 -1.0157 -1.2986
18351TIP3    H276469   2.095   1.065  10.917  1.6308 -0.8169 -2.0500
18352TIP3   OH276470   4.965   4.899  15.397  0.1095 -0.3160  0.1716
18352TIP3    H176471   5.035   4.960  15.372 -0.2093 -0.6063 -1.5297
18352TIP3    H276472   4.887   4.931  15.350 -0.6132 -0.7106  1.0679
18353TIP3   OH276473   1.103   5.711   1.589 -0.5417 -0.5952  0.4389
18353TIP3    H176474   1.180   5.662   1.559  0.0232  0.5189  0.0305
18353TIP3    H276475   1.135   5.801   1.600 -1.3278 -0.4932  2.1019
18354TIP3   OH276476   0.372   4.044  17.163 -0.7852 -0.1883 -0.3228
18354TIP3    H176477   0.432   3.995  17.106  0.1071 -2.6396  2.4597
18354TIP3    H276478   0.317   3.976  17.202 -1.5603  1.3910  1.4467
18355TIP3   OH276479   2.263   4.391   5.008  0.1377 -0.3231  0.2289
18355TIP3    H176480   2.326   4.341   5.060 -0.4584 -1.6322 -0.2563
18355TIP3    H276481   2.184   4.337   5.006  0.2247 -0.5039 -2.2657
18356TIP3   OH276482   1.216   3.111  15.738  0.2793  0.1883  0.0308
18356TIP3    H176483   1.302   3.081  15.767 -0.7472 -2.8064  0.3888
18356TIP3    H276484   1.205   3.196  15.780  2.7548  0.3464  0.5240
18357TIP3   OH276485   6.099   5.386   6.439  0.2580  0.1504 -0.1361
18357TIP3    H176486   6.189   5.380   6.469  0.2047  0.4368  0.0810
18357TIP3    H276487   6.066   5.296   6.442  0.8493 -0.1220 -1.2006
18358TIP3   OH276488   2.930   3.550   5.368 -0.0128 -0.2173 -0.7337
18358TIP3    H176489   2.836   3.538   5.357 -0.5293  1.4462  1.3182
18358TIP3    H276490   2.966   3.543   5.280 -2.2326  0.5695 -1.7525
18359TIP3   OH276491   6.483   4.177  12.764 -0.6669 -0.0977 -0.4043
18359TIP3    H176492   6.498   4.256  12.816 -1.2471  1.3890 -2.3379
18359TIP3    H276493   6.541   4.111  12.802 -0.1045  1.2815  1.2475
18360TIP3   OH276494   3.159   2.397  14.809 -0.2897 -0.0786  0.1968
18360TIP3    H176495   3.102   2.322  14.823 -0.7595  0.3973  0.9226
18360TIP3    H276496   3.202   2.381  14.725  0.1600 -1.5064  0.6767
18361TIP3   OH276497   1.120   2.634  12.625 -0.2709 -0.4116 -0.4137
18361TIP3    H176498   1.073   2.708  12.588 -1.4778 -1.2620 -0.6253
18361TIP3    H276499   1.098   2.635  12.718  1.2203  0.5785 -0.0348
18362TIP3   OH276500   3.367   5.273   3.260 -0.4126 -0.0042 -0.2547
18362TIP3    H176501   3.434   5.218   3.300  0.2915  1.1163  0.1716
18362TIP3    H276502   3.381   5.264   3.166 -0.7195 -1.0202 -0.2168
18363TIP3   OH276503   5.967   5.362   2.222  0.5355 -0.2659  0.2127
18363TIP3    H176504   6.023   5.393   2.151  0.0367  0.7011  0.2201
18363TIP3    H276505   5.904   5.304   2.180 -0.6235  1.3568 -0.4208
18364TIP3   OH276506   5.061   3.508  11.851 -0.2306 -0.5196 -0.3256
18364TIP3    H176507   5.021   3.593  11.867  0.9069 -0.2526  1.3546
18364TIP3    H276508   5.140   3.528  11.800  0.4883 -0.4407  0.7868
18365TIP3   OH276509   6.072   5.705   0.944  0.1935  0.1766 -0.1680
18365TIP3    H176510   6.088   5.641   0.875  2.5415  0.6917 -0.1852
18365TIP3    H276511   6.159   5.741   0.964 -0.8555  2.4248  0.7316
18366TIP3   OH276512   3.890   3.234   5.089 -0.1675 -0.3203 -0.3447
18366TIP3    H176513   3.862   3.229   4.998  0.9908  0.1727 -0.7521
18366TIP3    H276514   3.852   3.316   5.121  0.7074  0.3115 -0.8714
18367TIP3   OH276515   3.028   1.425  14.616 -0.0742 -0.2767 -0.4496
18367TIP3    H176516   3.002   1.445  14.526  1.2786  0.5606 -0.6832
18367TIP3    H276517   3.105   1.480  14.631  0.1717 -0.9755  0.9703
18368TIP3   OH276518   2.522   6.259  16.184  0.1227 -0.2526 -0.0227
18368TIP3    H176519   2.573   6.183  16.156  0.6938 -0.2296  0.9161
18368TIP3    H276520   2.457   6.271  16.115 -0.1056 -1.7187 -0.0996
18369TIP3   OH276521   0.446   3.088   4.975  0.7096 -0.1797  0.2483
18369TIP3    H176522   0.366   3.126   4.940  0.8392  2.8890  2.8487
18369TIP3    H276523   0.517   3.133   4.929  0.8678  0.9391  1.5248
18370TIP3   OH276524   3.284   4.049  12.666  0.5837 -0.0288  0.0079
18370TIP3    H176525   3.224   4.122  12.652  0.0840 -0.3433  0.4888
18370TIP3    H276526   3.368   4.091  12.684  0.1062  0.4601  1.2061
18371TIP3   OH276527   6.714   0.889  12.414  0.5491 -0.3865  1.1637
18371TIP3    H176528   6.754   0.974  12.431  0.3429 -0.4926  2.3094
18371TIP3    H276529   6.786   0.833  12.387  0.4024  0.6062 -1.5478
18372TIP3   OH276530   4.252   5.734   2.254 -0.3374 -0.3453 -0.1682
18372TIP3    H176531   4.169   5.707   2.294 -1.0253  1.0507 -0.5837
18372TIP3    H276532   4.229   5.759   2.165  0.7890 -1.2316 -0.7300
18373TIP3   OH276533   4.245   6.422   0.943  0.2251 -0.4619 -0.2254
18373TIP3    H176534   4.219   6.450   1.031  0.1935  1.0412 -0.6855
18373TIP3    H276535   4.323   6.474   0.924 -0.2164 -0.2037 -1.3746
18374TIP3   OH276536   0.682   5.421   2.466  0.0875  0.0441  0.1809
18374TIP3    H176537   0.711   5.466   2.387  0.4678 -1.2111 -0.4237
18374TIP3    H276538   0.593   5.453   2.480 -0.6382 -0.9660 -1.7680
18375TIP3   OH276539   4.235   0.117  14.965 -0.0565  0.6604 -0.1999
18375TIP3    H176540   4.323   0.137  14.998  0.3494 -1.2900  0.0063
18375TIP3    H276541   4.206   0.043  15.018 -0.5021 -0.7921 -2.3458
18376TIP3   OH276542   4.337   4.103  11.354  0.2559  0.5553 -0.1889
18376TIP3    H176543   4.314   4.082  11.263 -0.7048  0.3057  0.0911
18376TIP3    H276544   4.432   4.106  11.355  0.3784 -1.4027 -0.8020
18377TIP3   OH276545   2.507   6.520  11.694  0.3355  0.0666  0.2705
18377TIP3    H176546   2.555   6.533  11.776  1.2567  1.0322 -0.4097
18377TIP3    H276547   2.425   6.567  11.707  0.2007 -0.3132  0.8634
18378TIP3   OH276548   2.240   4.409  11.119  0.1021 -0.3902  0.0669
18378TIP3    H176549   2.214   4.496  11.090  0.0276 -0.6982 -0.8073
18378TIP3    H276550   2.198   4.349  11.057  0.2056 -1.0471  0.6171
18379TIP3   OH276551   4.352   6.520  12.567 -0.7424  0.1706  0.1318
18379TIP3    H176552   4.273   6.553  12.524 -0.4376  0.1264 -0.4873
18379TIP3    H276553   4.339   6.426  12.575 -0.1479 -0.0689 -1.3413
18380TIP3   OH276554   6.736   2.947  12.136 -0.1626  0.7450 -0.4433
18380TIP3    H176555   6.700   2.946  12.047  1.0778 -1.2245 -0.9841
18380TIP3    H276556   6.689   2.877  12.181  2.1204 -1.1837 -0.8703
18381TIP3   OH276557   0.019   0.908  16.352  0.4523 -0.2788 -0.0438
18381TIP3    H176558  -0.025   0.870  16.276  0.4752 -1.5262  0.5460
18381TIP3    H276559  -0.026   0.991  16.366 -1.0327 -1.0374 -0.1081
18382TIP3   OH276560   2.218   0.006  12.714 -0.5375 -0.0865  0.3896
18382TIP3    H176561   2.259   0.089  12.694  1.7062 -0.5430  2.6294
18382TIP3    H276562   2.142   0.029  12.768 -0.2703  0.5062  0.5164
18383TIP3   OH276563   6.592   5.543   2.121  0.5934 -0.1992 -0.6145
18383TIP3    H176564   6.553   5.621   2.163  2.0912 -0.6875  1.8813
18383TIP3    H276565   6.517   5.486   2.104 -0.1806  0.3617  0.7284
18384TIP3   OH276566   5.521   3.404   4.738  0.1796 -0.4606  0.0924
18384TIP3    H176567   5.458   3.461   4.694  1.2823 -0.1181 -1.1130
18384TIP3    H276568   5.545   3.451   4.817 -1.0491 -0.5984  0.5735
18385TIP3   OH276569   1.884   6.143  16.440 -0.6123  0.1006  0.0708
18385TIP3    H176570   1.975   6.158  16.464 -1.2215  0.6936  2.2939
18385TIP3    H276571   1.847   6.230  16.429 -0.8113 -0.1428 -1.3698
18386TIP3   OH276572   2.249   5.680   0.156 -0.1844  0.3125 -0.3029
18386TIP3    H176573   2.232   5.611   0.093  0.1355 -0.5436  0.5340
18386TIP3    H276574   2.339   5.707   0.140 -0.0400 -0.0410 -0.0810
18387TIP3   OH276575   5.782   1.904   0.773  0.5329 -0.3874  0.1733
18387TIP3    H176576   5.709   1.871   0.721  0.4110  1.3727 -0.8553
18387TIP3    H276577   5.758   1.995   0.793  2.7373  0.5044 -0.8400
18388TIP3   OH276578   4.875   1.294  15.087 -0.2132  0.5952  0.3811
18388TIP3    H176579   4.796   1.344  15.107  0.4253  1.5134  0.6752
18388TIP3    H276580   4.883   1.231  15.159 -2.8205 -2.3249 -1.5733
18389TIP3   OH276581   0.967   4.097   5.286 -0.3266 -0.1596  0.0319
18389TIP3    H176582   1.021   4.030   5.245 -0.5012  0.2464 -0.8928
18389TIP3    H276583   0.933   4.149   5.212 -1.0748  0.2680  0.6600
18390TIP3   OH276584   2.819   3.210  15.728 -0.5277  0.0707  0.4424
18390TIP3    H176585   2.894   3.187  15.673 -0.1349  1.0170  0.5693
18390TIP3    H276586   2.818   3.143  15.796  1.6072  1.2587  1.7836
18391TIP3   OH276587   4.305   2.505  16.161  0.0792  0.1891  0.2289
18391TIP3    H176588   4.351   2.547  16.088  0.9096 -0.2623  0.4826
18391TIP3    H276589   4.320   2.411  16.149  0.2204  0.1091  0.9696
18392TIP3   OH276590   5.444   3.925  15.310  0.1510 -0.0992  0.2033
18392TIP3    H176591   5.476   3.839  15.280  0.2425 -0.5711  1.5889
18392TIP3    H276592   5.492   3.941  15.392 -1.8155  0.0055  1.3860
18393TIP3   OH276593   1.505   4.220   3.363 -0.0121  0.3587 -0.8499
18393TIP3    H176594   1.416   4.238   3.392 -0.5322 -0.4545 -1.8984
18393TIP3    H276595   1.535   4.302   3.323 -0.4453  0.4916 -0.9034
18394TIP3   OH276596   1.524   5.066  17.045 -0.6438 -0.1552 -0.2482
18394TIP3    H176597   1.465   5.007  17.092  0.1160 -0.3859  0.4325
18394TIP3    H276598   1.494   5.153  17.069 -0.1849 -0.2688  0.7874
18395TIP3   OH276599   1.921   6.271  15.597  0.0340 -0.6549 -0.0049
18395TIP3    H176600   1.933   6.221  15.678  0.6786 -0.4947  0.0048
18395TIP3    H276601   2.006   6.265  15.553 -0.2350 -0.5247 -0.5479
18396TIP3   OH276602   2.564   3.554  11.209 -0.0269  0.1433 -0.4344
18396TIP3    H176603   2.475   3.563  11.241 -0.4424 -0.8740 -1.2695
18396TIP3    H276604   2.569   3.466  11.173  1.1427  0.3902 -0.9462
18397TIP3   OH276605   2.307   1.295   5.537  0.2657 -0.2587 -0.0382
18397TIP3    H176606   2.320   1.343   5.619  0.0372 -1.2778  0.6044
18397TIP3    H276607   2.224   1.327   5.502  1.4763  1.9515 -1.1436
18398TIP3   OH276608   2.132   4.414  11.519  0.3737 -0.1170  0.1702
18398TIP3    H176609   2.108   4.415  11.612 -2.4233 -1.2796 -0.4250
18398TIP3    H276610   2.201   4.479  11.511 -0.9206  1.7345  2.6689
18399TIP3   OH276611   3.343   1.189   1.174  0.5316  0.1114 -0.4402
18399TIP3    H176612   3.379   1.250   1.109  2.6590  1.1019  1.4911
18399TIP3    H276613   3.334   1.242   1.253 -1.6274 -1.1338  0.2161
18400TIP3   OH276614   5.649   5.962  16.533  0.0948 -0.1111  0.3150
18400TIP3    H176615   5.591   6.022  16.485  0.2577  0.5131  0.8728
18400TIP3    H276616   5.631   5.981  16.626 -0.2194 -1.2995  0.5090
18401TIP3   OH276617   6.567   1.500   5.428 -0.1720 -0.0349 -0.2131
18401TIP3    H176618   6.589   1.463   5.514 -0.8408 -1.6530 -0.7006
18401TIP3    H276619   6.651   1.513   5.385  0.1271  0.1024  0.4011
18402TIP3   OH276620   1.662   4.078  15.826 -0.3040 -0.3196 -0.1637
18402TIP3    H176621   1.571   4.091  15.799  0.3574 -0.9557 -3.0389
18402TIP3    H276622   1.658   4.004  15.887 -1.7740  0.2755  0.5324
18403TIP3   OH276623   4.652   2.551  14.620  0.4453 -0.6203 -0.2768
18403TIP3    H176624   4.558   2.539  14.605  0.2237 -0.8396  1.1560
18403TIP3    H276625   4.659   2.633  14.669  1.1938  0.4298 -2.0439
18404TIP3   OH276626   2.050   6.285  13.790  0.3210 -0.1015  0.5638
18404TIP3    H176627   2.039   6.267  13.696 -0.5920 -0.4591  0.7236
18404TIP3    H276628   2.054   6.380  13.796  1.8932 -0.1065  0.0236
18405TIP3   OH276629   4.240   3.353  15.287 -0.5094 -0.0685 -0.1068
18405TIP3    H176630   4.205   3.325  15.203 -0.0023  3.5088 -1.6889
18405TIP3    H276631   4.331   3.326  15.286 -0.5564 -0.1992 -0.6385
18406TIP3   OH276632   2.203   5.533   6.089 -0.0083  0.1407  0.0558
18406TIP3    H176633   2.136   5.466   6.100  0.2274  0.0368  0.9054
18406TIP3    H276634   2.286   5.485   6.092  0.1397  0.3960  0.0637
18407TIP3   OH276635   1.600   5.730  11.875 -0.4564  0.0787 -0.6999
18407TIP3    H176636   1.603   5.640  11.843 -0.9546  0.8397 -3.1701
18407TIP3    H276637   1.507   5.754  11.869 -0.4880  0.4451  0.9558
18408TIP3   OH276638   3.865   5.675   3.290 -0.2321 -0.1421 -0.4274
18408TIP3    H176639   3.954   5.641   3.278 -1.0602 -2.4031 -0.7390
18408TIP3    H276640   3.877   5.766   3.316  2.2500 -0.9437  1.6460
18409TIP3   OH276641   3.064   6.565  14.302  0.0632  1.0415  0.0105
18409TIP3    H176642   3.010   6.618  14.361 -1.1019 -2.0449  1.9867
18409TIP3    H276643   3.019   6.569  14.218 -1.8574  0.6271  0.9631
18410TIP3   OH276644   5.375   3.711   2.910 -0.5808 -0.3035 -0.1817
18410TIP3    H176645   5.415   3.744   2.990 -0.8274  0.2310 -0.2764
18410TIP3    H276646   5.285   3.743   2.913 -0.4296  0.2241 -0.9539
18411TIP3   OH276647   0.956   0.672  13.535 -0.3288  0.8353  0.4805
18411TIP3    H176648   0.992   0.725  13.606  1.5988 -0.3241  0.4270
18411TIP3    H276649   0.886   0.726  13.498  1.0624  3.0360  0.8989
18412TIP3   OH276650   3.455   6.528   1.071  0.2751  0.0043  0.4204
18412TIP3    H176651   3.494   6.588   1.134  0.3377  2.8311 -2.0424
18412TIP3    H276652   3.362   6.552   1.070 -0.1168 -1.4313  0.8680
18413TIP3   OH276653   1.138   2.613   6.306  0.2247  0.2129  0.0292
18413TIP3    H176654   1.225   2.617   6.347  0.9885 -0.3901 -1.4805
18413TIP3    H276655   1.086   2.561   6.367  0.9242  0.5421  0.9345
18414TIP3   OH276656   2.913   3.894  16.750 -0.7652 -0.0090 -0.3920
18414TIP3    H176657   2.900   3.820  16.808 -0.8709  0.2422 -0.0972
18414TIP3    H276658   2.886   3.862  16.664  0.1665 -0.6424 -0.4644
18415TIP3   OH276659   2.915   3.489  12.553 -0.1706  0.1715 -0.4538
18415TIP3    H176660   2.890   3.580  12.566  1.5404  0.9090 -1.8473
18415TIP3    H276661   2.921   3.479  12.458  3.6016 -0.1257 -0.3566
18416TIP3   OH276662   3.037   5.702   5.957 -0.1007  0.0048 -0.0310
18416TIP3    H176663   2.978   5.700   6.032 -1.4335  0.5650 -1.0161
18416TIP3    H276664   3.066   5.793   5.952  0.6977 -0.2253  0.3254
18417TIP3   OH276665   2.546   5.828   1.123 -0.0657  0.0525 -0.1053
18417TIP3    H176666   2.599   5.749   1.114  0.9719  0.6882  0.3156
18417TIP3    H276667   2.457   5.795   1.135  0.3957 -1.0639  0.4347
18418TIP3   OH276668   2.281   0.861  10.911  0.9649  0.1383  0.0821
18418TIP3    H176669   2.187   0.880  10.921  1.1617  0.9854  0.4305
18418TIP3    H276670   2.286   0.812  10.829  0.2107  0.0740  0.0619
18419TIP3   OH276671   1.868   0.675   5.101 -0.1787  0.2186 -0.3810
18419TIP3    H176672   1.877   0.739   5.030  0.0468  1.0890  0.4257
18419TIP3    H276673   1.958   0.649   5.122 -0.2367  0.0833 -0.2980
18420TIP3   OH276674   6.491   6.043   2.598 -0.1234 -1.1508 -0.3177
18420TIP3    H176675   6.540   6.112   2.642 -3.6404  1.6093 -0.3528
18420TIP3    H276676   6.503   5.966   2.654  1.8445  0.1060  1.1341
18421TIP3   OH276677   0.409   6.004   5.299 -0.3292  0.9103 -0.9201
18421TIP3    H176678   0.482   5.965   5.347  0.0988  0.7997 -1.6494
18421TIP3    H276679   0.363   5.929   5.261 -0.6425  1.0007 -0.7286
18422TIP3   OH276680   4.562   5.040  12.693  0.1078 -0.2341  0.4616
18422TIP3    H176681   4.657   5.049  12.689  0.1936 -1.3905 -0.7268
18422TIP3    H276682   4.532   5.066  12.607 -0.7277  0.7343  1.0318
18423TIP3   OH276683   6.420   5.388   3.045  0.1168 -0.3084  0.6135
18423TIP3    H176684   6.461   5.318   3.096 -1.4358 -1.0454  0.8992
18423TIP3    H276685   6.432   5.467   3.099  0.1159 -0.7278  1.2317
18424TIP3   OH276686   2.636   5.917  13.254 -0.4881 -0.0714  0.0040
18424TIP3    H176687   2.721   5.946  13.221 -0.3160 -0.6435 -0.0632
18424TIP3    H276688   2.589   5.887  13.177 -0.2523 -0.9954  0.2120
18425TIP3   OH276689   1.008   1.632   5.343 -0.2883  0.3638 -0.2787
18425TIP3    H176690   0.944   1.684   5.391  1.6692  1.5822  1.1680
18425TIP3    H276691   0.976   1.542   5.350 -2.1312  0.9757 -0.1688
18426TIP3   OH276692   6.719   3.957   1.646 -0.6644  0.1676  0.1195
18426TIP3    H176693   6.722   3.942   1.551 -1.3091 -3.0375  0.4913
18426TIP3    H276694   6.798   3.916   1.680 -1.4094 -0.4610  1.1370
18427TIP3   OH276695   5.873   4.779  12.319  0.5926 -0.5093 -1.2180
18427TIP3    H176696   5.846   4.739  12.401  2.1630  1.8522  0.6109
18427TIP3    H276697   5.849   4.871  12.328  3.7247  0.5095 -1.9080
18428TIP3   OH276698   5.484   3.038   0.629  0.0621  0.1741 -0.1209
18428TIP3    H176699   5.447   2.950   0.636 -3.0891  1.3684 -0.0801
18428TIP3    H276700   5.484   3.072   0.718  0.8574  0.3865 -0.1906
18429TIP3   OH276701   3.311   2.981   4.951 -0.0591 -0.0681 -0.7296
18429TIP3    H176702   3.280   2.990   5.041 -1.2698 -0.0395 -1.1292
18429TIP3    H276703   3.345   2.892   4.947  0.3928  0.0710 -0.1354
18430TIP3   OH276704   5.734   5.267  13.708  0.2809  0.3314  0.2192
18430TIP3    H176705   5.791   5.252  13.632 -0.1057  3.2160 -0.7659
18430TIP3    H276706   5.648   5.237  13.680  0.3440  0.4568 -0.1135
18431TIP3   OH276707   4.746   2.058   6.608 -0.1970  0.2579  0.4574
18431TIP3    H176708   4.662   2.095   6.634  0.0005  1.8166 -0.9461
18431TIP3    H276709   4.728   2.011   6.527  0.2841  0.7791  0.0327
18432TIP3   OH276710   3.656   1.361   1.330 -0.2515  0.2518 -0.0696
18432TIP3    H176711   3.706   1.402   1.400  0.7329 -1.9787  0.6240
18432TIP3    H276712   3.578   1.326   1.373 -0.4843  0.3400 -0.4116
18433TIP3   OH276713   5.128   4.847  12.139  0.3214 -0.2703  0.3566
18433TIP3    H176714   5.043   4.851  12.182 -0.9879  1.2266 -2.1300
18433TIP3    H276715   5.113   4.790  12.063  1.1530  1.0723 -0.8456
18434TIP3   OH276716   0.647   1.784  13.223  0.0295  0.2980 -0.3718
18434TIP3    H176717   0.552   1.786  13.215  0.0130 -0.0161 -0.2679
18434TIP3    H276718   0.679   1.781  13.133 -0.0524  0.5712 -0.4126
18435TIP3   OH276719   0.767   2.171   1.269  0.0946 -0.2678  0.1712
18435TIP3    H176720   0.793   2.206   1.184  0.4495  0.3772  0.5322
18435TIP3    H276721   0.773   2.076   1.259  1.7392 -0.1671 -0.0344
18436TIP3   OH276722   3.440   5.381  11.487 -0.1471  0.6246  0.0317
18436TIP3    H176723   3.504   5.321  11.448  0.5162  0.6634  1.0196
18436TIP3    H276724   3.435   5.454  11.425  0.2572  0.3054 -0.3891
18437TIP3   OH276725   0.659   6.748  17.181 -0.4647 -0.3300 -0.2073
18437TIP3    H176726   0.574   6.766  17.142 -0.2147  1.5588 -0.0061
18437TIP3    H276727   0.639   6.707  17.265 -1.1703 -0.2874 -0.3495
18438TIP3   OH276728   3.070   5.005   3.261 -0.1381  0.4283  0.2867
18438TIP3    H176729   3.152   4.966   3.230 -0.7154 -1.1567  0.6854
18438TIP3    H276730   3.098   5.067   3.329  0.7460  0.0364  0.2992
18439TIP3   OH276731   6.082   6.209   2.692 -0.0941 -0.1496 -0.2207
18439TIP3    H176732   6.165   6.171   2.662 -0.0764 -0.4815  0.2418
18439TIP3    H276733   6.015   6.160   2.644 -0.0452 -0.3192 -0.1175
18440TIP3   OH276734   5.421   2.056  13.288  0.1592 -0.2716  0.1318
18440TIP3    H176735   5.404   2.015  13.373 -0.2935 -1.3695 -0.4738
18440TIP3    H276736   5.385   2.144  13.296 -1.0662 -0.8027  0.6447
18441TIP3   OH276737   1.332   4.380   5.846 -0.3732 -0.7736 -0.6459
18441TIP3    H176738   1.338   4.290   5.878  0.0749 -0.0430  1.5434
18441TIP3    H276739   1.423   4.405   5.830 -0.3027 -0.1623  0.5681
18442TIP3   OH276740   6.153   1.524   5.305 -0.4136  0.8740 -0.1053
18442TIP3    H176741   6.142   1.595   5.242  0.4089  0.6944 -0.4678
18442TIP3    H276742   6.246   1.500   5.299  0.1205  1.9435  2.3055
18443TIP3   OH276743   1.326   3.421   5.128 -0.5742 -0.3256 -0.4448
18443TIP3    H176744   1.408   3.463   5.156 -0.4620  0.0726 -1.3283
18443TIP3    H276745   1.275   3.412   5.208 -0.5630  1.4254 -0.1973
18444TIP3   OH276746   4.883   1.740  12.197 -0.2682  0.2955  0.0537
18444TIP3    H176747   4.868   1.655  12.155 -1.9976  0.9936 -0.8360
18444TIP3    H276748   4.797   1.768  12.227  0.4859  1.1364  1.5793
18445TIP3   OH276749   4.603   5.024   3.948 -0.1371 -0.2868  0.1315
18445TIP3    H176750   4.597   4.932   3.974 -0.3335  0.5167  3.4474
18445TIP3    H276751   4.519   5.043   3.907  0.3751 -1.8115 -1.8143
18446TIP3   OH276752   6.460   3.155  13.469 -0.3429  0.1608  0.2746
18446TIP3    H176753   6.441   3.067  13.436  0.0395 -1.7722  4.5043
18446TIP3    H276754   6.376   3.201  13.465 -1.4827 -1.7101  1.2936
18447TIP3   OH276755   3.019   1.487   0.167 -0.0553 -0.6429 -0.3848
18447TIP3    H176756   3.013   1.574   0.207  3.7463 -0.0695 -0.7112
18447TIP3    H276757   3.078   1.499   0.093 -1.2735 -3.1049 -1.8530
18448TIP3   OH276758   4.081   3.798  14.772  0.0575  0.6260  0.7051
18448TIP3    H176759   4.040   3.855  14.707  2.3385  1.9996  0.3475
18448TIP3    H276760   4.049   3.711  14.750 -1.1139  1.3637 -0.7409
18449TIP3   OH276761   1.376   4.497  11.819 -0.5155  0.6203 -0.0220
18449TIP3    H176762   1.439   4.557  11.779 -0.1224  0.2639  0.0610
18449TIP3    H276763   1.361   4.532  11.907  2.4879 -1.3483  1.4365
18450TIP3   OH276764   2.041   3.482   1.482 -0.5727 -0.5477 -0.0667
18450TIP3    H176765   1.973   3.484   1.414 -1.8260 -1.1021  1.1240
18450TIP3    H276766   2.018   3.553   1.541  0.3566 -0.2467 -0.0453
18451TIP3   OH276767   3.345   5.500  16.110  1.2177 -0.3158  0.2394
18451TIP3    H176768   3.342   5.461  16.197  0.7730  1.1162  0.9041
18451TIP3    H276769   3.282   5.571  16.113  3.6449  2.0351 -0.0884
18452TIP3   OH276770   4.945   1.865   1.720 -0.4587 -0.3066 -0.0295
18452TIP3    H176771   5.019   1.925   1.719  0.5855 -1.5202  0.7655
18452TIP3    H276772   4.875   1.912   1.675 -0.1060  1.9921  1.6176
18453TIP3   OH276773   5.268   2.639  17.074  0.1929 -0.5943  0.3005
18453TIP3    H176774   5.304   2.668  16.991  1.6905  2.5102  1.8672
18453TIP3    H276775   5.187   2.689  17.084  1.7065  1.7341  2.0637
18454TIP3   OH276776   2.193   2.609  12.454 -0.2220  0.2355  0.0980
18454TIP3    H176777   2.137   2.669  12.504 -2.2480 -0.8466 -0.7595
18454TIP3    H276778   2.138   2.533  12.437  2.0153 -1.5571  0.4221
18455TIP3   OH276779   6.479   1.805  16.537  0.1025  0.3210  0.5606
18455TIP3    H176780   6.468   1.728  16.594  1.0104  1.1302  1.8792
18455TIP3    H276781   6.449   1.879  16.590  0.1553  1.0128 -0.3471
18456TIP3   OH276782   6.732   4.633  15.816 -0.0921 -0.3445 -0.2244
18456TIP3    H176783   6.704   4.685  15.891  1.5479  0.4246 -0.1087
18456TIP3    H276784   6.730   4.694  15.742 -0.7615 -0.8442 -0.6310
18457TIP3   OH276785   6.756   1.120   0.591  0.1727  0.3752 -0.5492
18457TIP3    H176786   6.720   1.168   0.517 -0.4717 -0.9449 -1.1066
18457TIP3    H276787   6.705   1.040   0.597  1.2050 -0.2616  0.3756
18458TIP3   OH276788   1.587   3.679   2.408  0.3456  0.0803 -0.0013
18458TIP3    H176789   1.682   3.669   2.400  0.4042  1.6304 -1.8125
18458TIP3    H276790   1.573   3.773   2.419 -0.9608 -0.2085  1.0681
18459TIP3   OH276791   0.062   0.672   6.168  0.3519  0.0153  0.5332
18459TIP3    H176792  -0.008   0.624   6.124 -0.0839  1.0298  0.0759
18459TIP3    H276793   0.095   0.611   6.234 -1.5563 -0.1926  1.3656
18460TIP3   OH276794   4.141   6.170   2.221 -0.2235 -0.3313  0.4396
18460TIP3    H176795   4.185   6.091   2.252 -0.1520 -0.6541 -0.4690
18460TIP3    H276796   4.189   6.242   2.262  1.6887 -0.6234 -1.1230
18461TIP3   OH276797   1.235   2.658  15.746  0.0330 -0.3924  0.1482
18461TIP3    H176798   1.148   2.620  15.733 -0.3473  0.8021 -0.9821
18461TIP3    H276799   1.255   2.704  15.664  1.7653 -0.6791  0.3581
18462TIP3   OH276800   4.016   6.406  16.468 -0.0746  0.1706 -0.1319
18462TIP3    H176801   3.991   6.443  16.553  1.7256 -0.4331  0.7047
18462TIP3    H276802   4.111   6.417  16.465  0.0080 -0.7829 -1.6218
18463TIP3   OH276803   0.901   0.599   2.673  0.1105 -0.3823  0.6977
18463TIP3    H176804   0.849   0.642   2.605  0.1801 -1.5900 -0.1391
18463TIP3    H276805   0.845   0.528   2.705  0.4932 -0.4771  1.1632
18464TIP3   OH276806   6.136   1.540  13.381  0.1561  0.7458 -0.0772
18464TIP3    H176807   6.210   1.595  13.355  1.2767 -1.6639 -2.4269
18464TIP3    H276808   6.173   1.481  13.447 -0.3142  1.0204  0.4362
18465TIP3   OH276809   4.528   2.555  11.884  0.5597 -0.5086 -0.0996
18465TIP3    H176810   4.462   2.604  11.933  1.1176  1.1701 -0.9580
18465TIP3    H276811   4.477   2.505  11.819  0.0858  0.6377 -0.6405
18466TIP3   OH276812   1.221   4.613  14.206  0.0460 -0.3940 -0.8112
18466TIP3    H176813   1.156   4.543  14.217  1.1819 -1.4196 -0.3977
18466TIP3    H276814   1.272   4.610  14.287 -1.1912  2.3641  0.1847
18467TIP3   OH276815   3.737   3.577  16.343 -0.2134 -0.1727 -0.5307
18467TIP3    H176816   3.797   3.651  16.349 -0.3626 -0.0549 -0.4841
18467TIP3    H276817   3.791   3.504  16.313  0.8471 -1.0546  3.0677
18468TIP3   OH276818   6.035   4.791  14.003 -0.2833 -0.0985  0.0372
18468TIP3    H176819   5.961   4.812  13.946  0.8669 -0.3504 -1.6223
18468TIP3    H276820   6.012   4.707  14.042 -0.6115 -0.5016 -0.9793
18469TIP3   OH276821   1.913   1.390   4.249  0.3393  0.2121 -0.2399
18469TIP3    H176822   1.983   1.349   4.300 -0.7907 -1.4236  0.0599
18469TIP3    H276823   1.919   1.350   4.163  0.5670  1.0188 -0.6054
18470TIP3   OH276824   5.029   3.358  16.894 -0.0803 -0.3993 -0.5383
18470TIP3    H176825   5.023   3.454  16.888  0.5137 -0.3528 -0.4435
18470TIP3    H276826   5.072   3.332  16.812  1.1032 -0.4454  0.0753
18471TIP3   OH276827   6.616   5.479  13.795  0.1480 -0.3334 -0.0481
18471TIP3    H176828   6.628   5.538  13.870 -0.4714 -0.6952  0.3417
18471TIP3    H276829   6.558   5.526  13.736  0.5597 -0.0876 -0.2611
18472TIP3   OH276830   3.985   5.065  14.489  0.1707  0.2608  0.1551
18472TIP3    H176831   3.891   5.062  14.471  0.6384 -0.4439 -2.5550
18472TIP3    H276832   4.020   4.985  14.451  1.8685  0.3697  1.3458
18473TIP3   OH276833   0.543   2.594  13.879 -0.0234  0.5640  0.6387
18473TIP3    H176834   0.512   2.518  13.829  0.2343  0.1210  1.1407
18473TIP3    H276835   0.583   2.651  13.814  2.1520 -0.9427  0.5710
18474TIP3   OH276836   0.597   3.541   4.653  0.0542 -0.4398 -0.1688
18474TIP3    H176837   0.650   3.479   4.603  0.3644 -0.1400 -0.2163
18474TIP3    H276838   0.603   3.622   4.604  0.1648 -0.2086  0.2224
18475TIP3   OH276839   3.020   6.427  12.901 -0.0245  0.2854  0.2437
18475TIP3    H176840   2.996   6.516  12.926  0.4786  0.4360  0.2176
18475TIP3    H276841   3.037   6.433  12.807  1.5260  0.5287  0.5067
18476TIP3   OH276842   3.170   0.980   3.162  0.9219 -0.3888 -0.3433
18476TIP3    H176843   3.261   0.950   3.151  0.9448 -0.3631 -0.2249
18476TIP3    H276844   3.123   0.941   3.088  0.6351 -1.9576  0.6370
18477TIP3   OH276845   6.306   5.320  17.035 -0.1221  0.1676 -0.1986
18477TIP3    H176846   6.392   5.298  17.070  0.0825  1.2012 -0.0232
18477TIP3    H276847   6.251   5.333  17.113  0.3782  2.6500 -0.1829
18478TIP3   OH276848   1.843   1.400   2.413 -0.2191  0.1885 -0.1530
18478TIP3    H176849   1.817   1.432   2.500  1.1920  1.9227 -0.3133
18478TIP3    H276850   1.938   1.389   2.419  0.0911  1.5419 -1.8060
18479TIP3   OH276851   0.552   6.360  11.745 -0.8020 -0.4304  0.4106
18479TIP3    H176852   0.466   6.400  11.738 -0.3200  0.6407  0.2928
18479TIP3    H276853   0.587   6.393  11.828  0.5522  1.4236 -0.7998
18480TIP3   OH276854   0.814   0.113  12.950 -0.8109 -0.1373 -0.4582
18480TIP3    H176855   0.835   0.051  12.881 -0.5983 -0.3637 -0.1960
18480TIP3    H276856   0.900   0.144  12.980 -0.8742 -0.4834  0.0974
18481TIP3   OH276857   3.534   4.847  11.920  0.3836  0.0579 -0.0950
18481TIP3    H176858   3.440   4.856  11.905  0.4716  2.1100  0.2858
18481TIP3    H276859   3.542   4.769  11.975 -1.1904  0.3893  0.6512
18482TIP3   OH276860   0.264   4.485  13.339  0.0796  0.0691  0.1888
18482TIP3    H176861   0.259   4.577  13.363  0.9873  0.4096 -0.8258
18482TIP3    H276862   0.355   4.460  13.358  0.4757  0.0211 -1.6273
18483TIP3   OH276863   3.922   4.364   2.616  0.0785 -0.4035  0.1133
18483TIP3    H176864   3.872   4.335   2.539 -2.3164  1.2388  0.9144
18483TIP3    H276865   3.901   4.300   2.684  1.0763 -1.0752 -0.1936
18484TIP3   OH276866   0.904   1.755   2.890 -0.3409 -0.3591  0.0671
18484TIP3    H176867   0.939   1.808   2.818  1.1817  0.2349  1.1806
18484TIP3    H276868   0.834   1.703   2.850 -0.6624  1.1634 -1.4569
18485TIP3   OH276869   0.252   3.501   5.004 -0.2514 -0.4921 -0.0408
18485TIP3    H176870   0.342   3.471   5.007 -0.2834 -0.8592 -1.6550
18485TIP3    H276871   0.210   3.446   4.938 -1.5966 -0.1742  0.5067
18486TIP3   OH276872   4.356   0.012  11.453  0.4462 -0.1828 -0.5271
18486TIP3    H176873   4.369   0.089  11.510 -2.7948  0.6466 -0.7208
18486TIP3    H276874   4.365   0.047  11.364 -1.5346  0.1676 -0.6307
18487TIP3   OH276875   5.010   5.380  16.102 -0.6031  0.1877 -0.1778
18487TIP3    H176876   4.946   5.395  16.171 -1.0207 -1.3647 -0.1814
18487TIP3    H276877   4.970   5.415  16.023  0.1381  2.5448  0.4187
18488TIP3   OH276878   4.036   3.766   0.840 -0.7911 -0.8706 -0.5919
18488TIP3    H176879   3.944   3.766   0.811 -0.9475  0.4963 -0.1766
18488TIP3    H276880   4.063   3.858   0.833  0.4585 -1.2073 -0.4072
18489TIP3   OH276881   1.393   3.377  13.481  0.2720  0.1973 -0.1403
18489TIP3    H176882   1.482   3.358  13.511  1.5366  1.4236 -2.7462
18489TIP3    H276883   1.344   3.297  13.499  2.2883 -1.0813 -0.0175
18490TIP3   OH276884   4.001   3.023  11.577 -0.1013  0.2878  0.0365
18490TIP3    H176885   3.917   3.032  11.622  0.1884  0.1208  0.6244
18490TIP3    H276886   3.993   3.079  11.499  0.0556  2.1738  1.2959
18491TIP3   OH276887   4.259   4.076   4.356  0.3275  0.3497 -0.4499
18491TIP3    H176888   4.188   4.138   4.339 -0.6622 -0.9868 -1.4364
18491TIP3    H276889   4.292   4.100   4.443  0.0702  2.3001 -0.8413
18492TIP3   OH276890   6.110   6.535   2.357 -0.0724  0.1777 -0.4178
18492TIP3    H176891   6.188   6.512   2.307 -0.7137  0.6528 -1.6938
18492TIP3    H276892   6.062   6.595   2.300 -0.7157  0.9481  0.9034
18493TIP3   OH276893   2.589   0.466   1.890  0.0702 -0.0289 -0.7852
18493TIP3    H176894   2.538   0.395   1.852  1.3240 -1.1975 -0.3584
18493TIP3    H276895   2.533   0.503   1.958  0.6825 -3.0612  1.5784
18494TIP3   OH276896   2.156   5.437  15.210 -0.7134 -0.6279 -0.0013
18494TIP3    H176897   2.216   5.509  15.231 -0.8901 -0.4194 -0.1991
18494TIP3    H276898   2.175   5.370  15.275 -0.7771 -0.2652  0.4002
18495TIP3   OH276899   5.106   2.032   3.767 -0.0526 -0.0631  0.0006
18495TIP3    H176900   5.108   1.978   3.687 -0.2306  0.1556 -0.1512
18495TIP3    H276901   5.117   2.122   3.736 -0.8488  0.0995  0.1500
18496TIP3   OH276902   5.045   0.863  11.367  0.4934 -0.6908 -0.6505
18496TIP3    H176903   4.985   0.858  11.442 -0.4705  0.2680 -1.3292
18496TIP3    H276904   5.121   0.811  11.394  0.8559  0.8692  1.6481
18497TIP3   OH276905   2.444   0.777  14.074 -0.0689 -0.2309  0.1596
18497TIP3    H176906   2.470   0.814  13.989 -1.9234 -0.6759 -0.6722
18497TIP3    H276907   2.493   0.695  14.080  2.1309  1.0536  0.8335
18498TIP3   OH276908   0.097   4.105   2.921  0.0294  0.1816  0.3279
18498TIP3    H176909   0.019   4.055   2.944  0.5667  0.4747  3.0554
18498TIP3    H276910   0.156   4.041   2.881  0.1313 -1.0953  2.4032
18499TIP3   OH276911   5.988   1.261  13.046  0.1341  0.2098 -0.1595
18499TIP3    H176912   5.962   1.304  13.127  1.6627 -2.5409  1.9632
18499TIP3    H276913   5.907   1.226  13.010 -0.6297  1.8698 -0.1443
18500TIP3   OH276914   5.857   1.631  14.288 -0.1596 -0.4830 -0.1020
18500TIP3    H176915   5.951   1.615  14.281 -0.3668 -1.5595 -0.5195
18500TIP3    H276916   5.818   1.544  14.295 -0.9318 -0.0158  2.8062
18501TIP3   OH276917   4.730   5.555   3.255  0.3667 -0.2753  0.6412
18501TIP3    H176918   4.663   5.623   3.247  1.0374  0.1526 -3.0348
18501TIP3    H276919   4.813   5.602   3.251  0.8440 -1.1371 -0.2197
18502TIP3   OH276920   5.223   5.010   5.602 -0.0320  0.3763 -0.4166
18502TIP3    H176921   5.144   4.961   5.623 -0.7074  1.7978  0.5025
18502TIP3    H276922   5.268   5.021   5.686  0.8425  0.1156 -0.8325
18503TIP3   OH276923   1.140   2.476  17.101  0.0752 -0.2394 -0.9193
18503TIP3    H176924   1.209   2.411  17.081 -0.6994 -0.9054 -1.4924
18503TIP3    H276925   1.159   2.503  17.191 -0.0590 -1.8909 -0.3562
18504TIP3   OH276926   5.560   6.762   1.841  0.4383  0.5977 -0.1107
18504TIP3    H176927   5.594   6.735   1.926 -1.8137 -0.1075  0.6486
18504TIP3    H276928   5.565   6.858   1.843 -2.7781  0.9183  2.4231
18505TIP3   OH276929   0.702   0.371  16.492 -0.7688 -0.1140  0.0195
18505TIP3    H176930   0.763   0.341  16.559  0.5512 -0.9223 -1.4826
18505TIP3    H276931   0.638   0.301  16.484  0.5478 -1.2285 -1.3135
18506TIP3   OH276932   5.794   3.939   5.947  0.3364  0.2740 -0.1535
18506TIP3    H176933   5.802   3.846   5.968 -0.9561  0.1692 -0.0312
18506TIP3    H276934   5.877   3.977   5.976  0.4825 -0.6662  0.7462
18507TIP3   OH276935   5.101   2.251   0.735  0.0946  0.4800 -0.1739
18507TIP3    H176936   5.165   2.277   0.802 -0.7148 -0.7146  1.1095
18507TIP3    H276937   5.016   2.267   0.776 -0.4152 -0.7278 -0.7247
18508TIP3   OH276938   5.449   5.166  14.133 -0.0830  0.0014  0.8406
18508TIP3    H176939   5.402   5.085  14.153  0.1734 -0.4491 -0.2737
18508TIP3    H276940   5.514   5.174  14.202  0.8526 -1.5355  0.1888
18509TIP3   OH276941   1.722   3.763  10.753  0.0841  0.5867 -0.3483
18509TIP3    H176942   1.677   3.791  10.833  0.6244 -0.0552  0.1909
18509TIP3    H276943   1.674   3.686  10.724 -0.2250  0.9255 -0.7618
18510TIP3   OH276944   6.020   5.000   1.017  0.0749  0.1092  0.5893
18510TIP3    H176945   5.965   4.995   0.939 -0.6692 -0.7956  1.1546
18510TIP3    H276946   5.997   5.084   1.058  0.5401  0.6328 -0.1936
18511TIP3   OH276947   6.036   3.277   3.732  0.1874 -0.2394  0.3467
18511TIP3    H176948   6.062   3.369   3.719 -0.6971 -0.0651 -0.2670
18511TIP3    H276949   6.065   3.232   3.653  1.5971 -0.7429  1.0991
18512TIP3   OH276950   4.981   4.267   1.683 -0.5780 -0.3361  0.1128
18512TIP3    H176951   5.040   4.233   1.750 -1.4696 -0.9844  0.6004
18512TIP3    H276952   4.997   4.213   1.607 -0.4642 -0.4361  0.2073
18513TIP3   OH276953   1.472   3.933  15.238 -0.2979 -0.3937 -0.1041
18513TIP3    H176954   1.494   3.841  15.234 -0.2852 -0.3829 -0.2780
18513TIP3    H276955   1.380   3.937  15.211 -0.2562 -0.3379 -0.2341
18514TIP3   OH276956   0.158   6.353  10.572  0.1652  0.4644 -0.7565
18514TIP3    H176957   0.102   6.281  10.600 -0.5329 -0.2288 -3.6665
18514TIP3    H276958   0.110   6.432  10.599 -1.1891 -0.1404 -1.3150
18515TIP3   OH276959   1.063   3.300   1.192  0.2102  0.3309 -0.1337
18515TIP3    H176960   1.059   3.337   1.280  2.9894  0.3325  0.0706
18515TIP3    H276961   1.028   3.211   1.202  1.1884  0.0577  1.1591
18516TIP3   OH276962   2.472   2.243   3.361 -0.0278  0.0361 -0.3590
18516TIP3    H176963   2.530   2.171   3.388 -1.2003 -0.3242  1.4155
18516TIP3    H276964   2.517   2.322   3.391 -0.5270 -0.2604  1.2740
18517TIP3   OH276965   2.288   5.020  14.247  0.1005 -0.1304  0.3048
18517TIP3    H176966   2.360   4.959  14.261 -0.4923 -1.0550 -0.5803
18517TIP3    H276967   2.306   5.060  14.162  1.7175  2.7056  1.8431
18518TIP3   OH276968   2.922   3.411  16.597  0.2253  0.7047  0.0445
18518TIP3    H176969   2.964   3.488  16.559 -1.5086  1.8025  0.2239
18518TIP3    H276970   2.983   3.339  16.580  0.3255  1.4146 -3.3461
18519TIP3   OH276971   1.482   1.425   3.548  0.5080 -0.7133  0.3021
18519TIP3    H176972   1.425   1.453   3.620  0.9107 -1.5125  0.9491
18519TIP3    H276973   1.452   1.336   3.528 -1.0642  0.2189 -2.0214
18520TIP3   OH276974   4.110   6.162  15.453  0.1948  0.4048 -0.5202
18520TIP3    H176975   4.029   6.175  15.502  2.0356  2.1407  2.2938
18520TIP3    H276976   4.123   6.244  15.405  0.5956  0.3770 -0.4647
18521TIP3   OH276977   1.857   3.577   2.616 -0.4621 -0.5402 -0.1562
18521TIP3    H176978   1.804   3.628   2.676  1.0563  0.5628  0.3225
18521TIP3    H276979   1.860   3.629   2.536 -2.1875 -1.8341 -1.1265
18522TIP3   OH276980   0.729   0.852  14.130 -0.4345 -0.0178 -0.1278
18522TIP3    H176981   0.749   0.899  14.049 -0.1906 -1.0042 -0.6560
18522TIP3    H276982   0.806   0.865  14.185 -0.6844  0.8236  0.0368
18523TIP3   OH276983   3.836   3.479   1.627  0.1971 -0.0575 -0.3472
18523TIP3    H176984   3.826   3.413   1.558  0.4366 -0.0512 -0.3870
18523TIP3    H276985   3.914   3.527   1.603  0.4561 -0.2530  0.0955
18524TIP3   OH276986   0.918   0.716   6.405 -0.1223 -0.1553 -0.0084
18524TIP3    H176987   0.861   0.774   6.354  0.6887  2.1902  1.5634
18524TIP3    H276988   0.997   0.709   6.353 -0.2408  0.1660 -0.2390
18525TIP3   OH276989   4.703   2.033   6.048  0.4415  0.1000 -0.6415
18525TIP3    H176990   4.685   1.982   5.969 -0.5492  0.1064 -0.4268
18525TIP3    H276991   4.625   2.089   6.059  1.2945  1.3332 -0.6152
18526TIP3   OH276992   2.892   1.494   2.293  0.2910  0.6055  0.4711
18526TIP3    H176993   2.966   1.532   2.246  1.4720 -1.2042  0.7674
18526TIP3    H276994   2.924   1.483   2.383 -1.1228  1.8113  1.1745
18527TIP3   OH276995   2.096   6.541  16.556 -0.0319 -0.1199  0.2325
18527TIP3    H176996   2.124   6.560  16.466 -1.3508 -0.7788 -0.3416
18527TIP3    H276997   2.002   6.559  16.556 -0.2506 -1.1521  1.1835
18528TIP3   OH276998   6.178   1.891  13.076  0.1793  0.1449  0.2073
18528TIP3    H176999   6.206   1.958  13.139  1.2479  1.2663 -1.3904
18528TIP3    H277000   6.254   1.878  13.019 -0.8878 -0.5135 -1.1308
18529TIP3   OH277001   0.246   6.108  14.589  0.5162 -0.7334 -0.0645
18529TIP3    H177002   0.178   6.054  14.549  2.1515 -0.9430 -2.7478
18529TIP3    H277003   0.314   6.045  14.615  1.5138 -0.2160 -1.3128
18530TIP3   OH277004   5.245   1.688   1.605 -0.3501  0.8089  0.3324
18530TIP3    H177005   5.233   1.707   1.698  2.7552 -0.2319  1.0833
18530TIP3    H277006   5.324   1.634   1.602  1.3959  3.1693 -3.1245
18531TIP3   OH277007   2.073   5.397  12.176 -0.0290  0.0581  0.2317
18531TIP3    H177008   2.067   5.321  12.117  0.9637  1.6678 -2.0638
18531TIP3    H277009   2.167   5.410  12.188  0.0054  2.6767 -1.9455
18532TIP3   OH277010   2.250   5.430   2.935 -0.3570  0.2829 -0.3584
18532TIP3    H177011   2.167   5.448   2.979 -0.6539  2.0567 -1.5193
18532TIP3    H277012   2.227   5.369   2.865 -0.6909  0.7651 -0.6732
18533TIP3   OH277013   4.192   5.618  15.498  0.3280  0.2145  0.4047
18533TIP3    H177014   4.192   5.528  15.530 -1.5388  0.4765  1.2383
18533TIP3    H277015   4.233   5.669  15.568 -0.1197  0.2339  0.6547
18534TIP3   OH277016   5.693   6.560  13.657 -0.8468  0.0837 -0.5608
18534TIP3    H177017   5.783   6.562  13.692 -1.3940  0.0643  0.9355
18534TIP3    H277018   5.699   6.603  13.572  0.1497  2.3184  0.5555
18535TIP3   OH277019   0.269   6.082   5.795 -0.3622 -0.4276 -0.1713
18535TIP3    H177020   0.248   6.122   5.711  2.0538 -0.5711 -0.9433
18535TIP3    H277021   0.188   6.085   5.845 -2.1580 -1.1395 -2.8067
18536TIP3   OH277022   3.121   6.420   5.056 -0.3128 -0.6973 -0.4815
18536TIP3    H177023   3.063   6.471   4.999  0.8238  0.8320 -0.3542
18536TIP3    H277024   3.185   6.484   5.088  1.2528 -2.2447 -0.3638
18537TIP3   OH277025   6.704   1.160  15.402  0.0336 -0.1094 -0.3830
18537TIP3    H177026   6.782   1.215  15.394 -0.7761  0.8342 -2.3149
18537TIP3    H277027   6.649   1.185  15.328 -0.8576 -2.7795 -0.7256
18538TIP3   OH277028   2.074   5.234  16.352  0.2645  0.4531 -0.1895
18538TIP3    H177029   2.010   5.303  16.371  1.1795  1.7160 -1.4911
18538TIP3    H277030   2.146   5.250  16.413  0.0507 -0.0031  0.1952
18539TIP3   OH277031   4.484   3.738   0.536  0.2887 -0.2032 -0.5042
18539TIP3    H177032   4.422   3.666   0.528  0.5917 -0.4808 -0.3483
18539TIP3    H277033   4.458   3.800   0.467 -0.5306 -0.0338 -0.0554
18540TIP3   OH277034   4.714   0.341   5.547 -0.5819 -0.0733  0.3355
18540TIP3    H177035   4.680   0.326   5.635 -0.5473  0.7176  0.4915
18540TIP3    H277036   4.698   0.259   5.501 -1.5403 -0.1403  0.7698
18541TIP3   OH277037   4.098   4.290   3.640  0.1260  0.0095 -0.1617
18541TIP3    H177038   4.051   4.372   3.644  0.7839  0.3469  2.1591
18541TIP3    H277039   4.164   4.303   3.571 -0.6636  0.8954 -0.7697
18542TIP3   OH277040   4.144   1.565   1.106 -0.2272 -0.3133  0.2492
18542TIP3    H177041   4.058   1.592   1.075 -0.0788 -0.0838  0.0236
18542TIP3    H277042   4.155   1.476   1.073  0.4902  0.4027 -1.5704
18543TIP3   OH277043   6.355   3.305  10.388 -0.3589 -0.3019  0.6035
18543TIP3    H177044   6.283   3.294  10.450 -0.3836 -0.5164  0.5373
18543TIP3    H277045   6.399   3.385  10.416 -0.4410 -0.3354  0.8293
18544TIP3   OH277046   5.918   3.745   5.345  0.5062 -0.0157 -0.1510
18544TIP3    H177047   5.918   3.824   5.291 -1.7820  0.6468  0.6940
18544TIP3    H277048   5.978   3.765   5.417 -0.1959  1.0708  0.1608
18545TIP3   OH277049   0.328   4.295   6.298  0.4026 -0.1459  0.2292
18545TIP3    H177050   0.331   4.286   6.393 -1.6313 -0.7267  0.2930
18545TIP3    H277051   0.329   4.206   6.265 -3.2958 -0.2688  0.0172
18546TIP3   OH277052   2.282   4.106   3.816 -0.0436 -0.0951 -0.3864
18546TIP3    H177053   2.370   4.145   3.816 -0.2344  0.4578  1.5303
18546TIP3    H277054   2.283   4.044   3.743  1.0797  1.7164 -2.0063
18547TIP3   OH277055   2.224   3.482   5.339 -0.5228 -0.0310  0.6023
18547TIP3    H177056   2.261   3.459   5.424  0.5897  0.6054  0.3087
18547TIP3    H277057   2.159   3.413   5.322  1.3156 -1.8479  0.6332
18548TIP3   OH277058   0.393   2.377   3.743  0.3135 -0.0735  0.4347
18548TIP3    H177059   0.356   2.293   3.770  1.1848 -0.5310  0.2515
18548TIP3    H277060   0.487   2.362   3.741  0.4737  0.8882  0.3038
18549TIP3   OH277061   2.617   3.625  14.299 -0.2966  0.0933  0.0681
18549TIP3    H177062   2.560   3.614  14.224 -2.1462  0.2828  1.3715
18549TIP3    H277063   2.604   3.545  14.351 -1.0862  1.0702  1.4446
18550TIP3   OH277064   4.527   6.300   0.857 -0.1399  0.2661  0.0364
18550TIP3    H177065   4.518   6.394   0.875  2.2778  0.1805  2.1804
18550TIP3    H277066   4.539   6.260   0.944  0.1416 -1.8731 -0.9308
18551TIP3   OH277067   2.020   4.392   5.263 -0.4822  0.3670  0.1003
18551TIP3    H177068   1.937   4.430   5.291 -0.6201 -0.8908  1.5536
18551TIP3    H277069   2.061   4.361   5.344  1.1407  0.4132 -0.6480
18552TIP3   OH277070   3.444   0.208  14.966  0.2783 -0.2466 -0.9609
18552TIP3    H177071   3.474   0.287  15.011  1.8447 -1.1400 -0.3615
18552TIP3    H277072   3.402   0.156  15.035 -0.6484 -0.0060 -1.3302
18553TIP3   OH277073   2.431   0.579  12.196  0.2368  0.2327  0.5174
18553TIP3    H177074   2.362   0.567  12.131  2.2533 -0.3042 -1.6614
18553TIP3    H277075   2.398   0.646  12.255 -1.5973  0.9411 -1.2123
18554TIP3   OH277076   1.824   6.283   5.358 -0.2447  0.0012 -0.4725
18554TIP3    H177077   1.843   6.189   5.350  0.8966  0.1952 -0.2759
18554TIP3    H277078   1.793   6.309   5.272  1.1568 -0.2089 -1.0614
18555TIP3   OH277079   1.621   3.893   3.782 -0.3800 -0.0162 -0.4351
18555TIP3    H177080   1.541   3.933   3.816 -0.5725 -0.3218 -0.5189
18555TIP3    H277081   1.629   3.926   3.693  0.9816  2.0412  0.3839
18556TIP3   OH277082   1.926   5.479  15.058 -0.4512  0.5380  0.3313
18556TIP3    H177083   1.919   5.452  14.966 -2.7667  1.8053  0.0420
18556TIP3    H277084   2.001   5.430  15.092 -2.3908 -3.8662 -0.9006
18557TIP3   OH277085   1.629   5.480  11.699  0.6950 -0.7834 -0.2745
18557TIP3    H177086   1.572   5.422  11.647  0.9384 -1.2664 -0.0120
18557TIP3    H277087   1.707   5.428  11.715  0.4871 -0.7591  0.8606
18558TIP3   OH277088   4.726   1.478   0.338  0.1202  0.3466  0.4504
18558TIP3    H177089   4.636   1.484   0.304  0.3551 -1.1484 -0.5200
18558TIP3    H277090   4.761   1.399   0.298  1.5229  0.3107  1.6900
18559TIP3   OH277091   6.667   1.134   4.257  0.2157 -0.2462  0.2582
18559TIP3    H177092   6.597   1.198   4.252  1.3477  0.9402 -1.7524
18559TIP3    H277093   6.623   1.050   4.271 -1.5513  0.5122 -0.5561
18560TIP3   OH277094   4.675   2.793  14.735 -0.2713 -0.0989 -0.1218
18560TIP3    H177095   4.642   2.882  14.726 -1.4402 -0.5710 -0.6724
18560TIP3    H277096   4.636   2.761  14.816 -0.1015 -0.2168 -0.0856
18561TIP3   OH277097   1.749   2.574   5.447 -0.2234 -0.6131 -0.0631
18561TIP3    H177098   1.750   2.660   5.488 -1.7532 -1.9242  3.0582
18561TIP3    H277099   1.823   2.527   5.488 -1.5108 -1.8138  1.0026
18562TIP3   OH277100   3.720   4.051  12.060 -0.6684 -0.4002 -0.6443
18562TIP3    H177101   3.736   4.145  12.075  0.5535 -0.5102 -1.1853
18562TIP3    H277102   3.653   4.029  12.124 -0.1304  0.5870  0.3049
18563TIP3   OH277103   4.382   1.627   2.595  0.2104 -0.1648 -0.4856
18563TIP3    H177104   4.402   1.719   2.610  1.4947 -0.3947 -0.6829
18563TIP3    H277105   4.295   1.615   2.634  0.8561  0.6548  1.3235
18564TIP3   OH277106   3.953   5.639  14.802 -0.1971  0.0683 -0.1367
18564TIP3    H177107   3.993   5.719  14.834 -3.3514  1.0655  1.7744
18564TIP3    H277108   3.897   5.667  14.729  0.7263 -0.9062 -1.2724
18565TIP3   OH277109   4.145   1.408  16.139  0.3129 -0.1806 -0.5400
18565TIP3    H177110   4.141   1.314  16.125  1.9669 -0.3199 -0.2551
18565TIP3    H277111   4.193   1.418  16.221  0.1955  0.9201 -0.5877
18566TIP3   OH277112   2.853   1.971  13.798  0.1461 -0.4023  0.0688
18566TIP3    H177113   2.880   1.968  13.890 -0.3078 -1.3720  0.1818
18566TIP3    H277114   2.761   1.995  13.801  0.3069  0.2713 -0.1824
18567TIP3   OH277115   1.095   4.101   0.554  0.0875  0.4653  0.0232
18567TIP3    H177116   1.052   4.186   0.545  2.5220  1.6661 -1.1585
18567TIP3    H277117   1.023   4.038   0.548 -1.4546  2.2662 -3.0804
18568TIP3   OH277118   1.347   1.441   1.622 -0.4820 -0.2475 -0.2380
18568TIP3    H177119   1.301   1.368   1.582 -0.4574 -0.0009 -0.7299
18568TIP3    H277120   1.398   1.479   1.551  0.8443 -0.7913  0.3866
18569TIP3   OH277121   6.484   3.317   4.479 -0.2050  0.5010  0.3226
18569TIP3    H177122   6.528   3.242   4.438 -0.0130  0.7286  0.1151
18569TIP3    H277123   6.474   3.291   4.571 -0.2037  0.1895  0.2351
18570TIP3   OH277124   4.143   2.394   0.460  0.2158 -0.1709  0.0098
18570TIP3    H177125   4.203   2.366   0.391  2.0298 -0.3371  1.5794
18570TIP3    H277126   4.140   2.490   0.452 -0.7377 -0.2885 -1.1852
18571TIP3   OH277127   6.670   2.805  15.666 -0.4030 -0.2010  0.6176
18571TIP3    H177128   6.707   2.892  15.680  1.6137 -0.9379  0.2319
18571TIP3    H277129   6.639   2.777  15.752 -0.7326  0.7226  0.8117
18572TIP3   OH277130   0.451   3.021   3.216 -0.1895  0.5036  0.0129
18572TIP3    H177131   0.464   3.022   3.121 -0.9956 -1.6084 -0.1856
18572TIP3    H277132   0.396   2.943   3.231 -0.2377  0.9098  2.1910
18573TIP3   OH277133   2.669   2.494  11.630 -0.5640 -0.5568  0.2483
18573TIP3    H177134   2.722   2.461  11.558 -0.3452  1.8394 -0.8170
18573TIP3    H277135   2.586   2.447  11.623 -0.9699  0.3650 -2.3721
18574TIP3   OH277136   5.108   1.166  11.569  0.9381  0.2004  0.2489
18574TIP3    H177137   5.148   1.203  11.490 -0.5178 -1.0560 -1.1373
18574TIP3    H277138   5.087   1.076  11.545  0.1613 -0.1078  1.9778
18575TIP3   OH277139   2.654   4.089   5.883 -0.1795  0.1045  0.0902
18575TIP3    H177140   2.586   4.022   5.870  0.6993 -0.5435 -1.3347
18575TIP3    H277141   2.657   4.137   5.800 -0.2044  1.4067  0.8019
18576TIP3   OH277142   6.612   4.233   3.066 -0.2147  0.4053  0.1073
18576TIP3    H177143   6.545   4.166   3.054 -2.0108  1.8931  1.2107
18576TIP3    H277144   6.670   4.197   3.132 -1.7529  0.3184  1.4653
18577TIP3   OH277145   3.356   4.387   5.143 -0.2353 -1.1431 -0.7453
18577TIP3    H177146   3.369   4.450   5.213 -0.1145 -2.0332  0.0511
18577TIP3    H277147   3.442   4.380   5.100 -0.2755 -0.7004 -0.9007
18578TIP3   OH277148   4.984   2.625   5.733  0.5254 -0.4935 -0.0727
18578TIP3    H177149   5.071   2.649   5.703  1.1423 -0.9040  1.2783
18578TIP3    H277150   4.979   2.660   5.822 -0.7783 -0.2890 -0.1979
18579TIP3   OH277151   5.418   2.979   4.204  0.2307 -0.1030  0.3734
18579TIP3    H177152   5.494   2.922   4.215  0.0969 -0.4199 -0.2867
18579TIP3    H277153   5.456   3.066   4.193  0.4478 -0.0913  1.1301
18580TIP3   OH277154   6.424   6.279   6.029 -0.3221  0.5895 -0.1063
18580TIP3    H177155   6.354   6.320   6.079 -1.4042  2.5473 -2.9359
18580TIP3    H277156   6.379   6.223   5.966  0.8624 -0.3184 -0.1852
18581TIP3   OH277157   0.113   4.458  16.087  0.0854  0.0204  0.1536
18581TIP3    H177158   0.049   4.408  16.037  0.0993  0.0565  0.1001
18581TIP3    H277159   0.159   4.392  16.140  1.8181 -0.3858 -1.7610
18582TIP3   OH277160   2.212   2.711  15.627 -0.3364  0.6496  0.0152
18582TIP3    H177161   2.215   2.706  15.722  1.4820  0.8018  0.0064
18582TIP3    H277162   2.133   2.663  15.602  0.1206 -0.9584  1.5043
18583TIP3   OH277163   2.854   2.384   0.333  0.2038  0.0164  0.2643
18583TIP3    H177164   2.859   2.459   0.392  0.1216  0.2913 -0.0744
18583TIP3    H277165   2.919   2.322   0.367 -0.9049 -0.4917  1.5573
18584TIP3   OH277166   1.536   3.365   2.832 -0.3068 -0.4274 -0.5954
18584TIP3    H177167   1.613   3.354   2.776 -0.0800 -0.2455 -0.3235
18584TIP3    H277168   1.547   3.452   2.872  1.7680 -2.0857  3.0052
18585TIP3   OH277169   1.278   0.299   4.452  0.5162  0.3664 -0.3426
18585TIP3    H177170   1.199   0.259   4.416 -0.7381  1.8975  0.5630
18585TIP3    H277171   1.255   0.319   4.543  2.2441  0.1129  0.1837
18586TIP3   OH277172   2.180   2.244   6.928 -0.2797  0.3164  1.0381
18586TIP3    H177173   2.205   2.191   6.852  0.1677 -1.3284  2.2725
18586TIP3    H277174   2.137   2.320   6.891  0.2837 -0.2426 -0.8822
18587TIP3   OH277175   3.223   3.043   1.104  0.4493  0.1241 -0.3935
18587TIP3    H177176   3.189   3.133   1.109  1.8216  0.8027 -2.0613
18587TIP3    H277177   3.157   2.990   1.148 -1.3659  1.7178 -1.0232
18588TIP3   OH277178   6.153   1.343  16.581  0.7749  0.0878  0.4694
18588TIP3    H177179   6.071   1.378  16.546  0.5556  0.8717  1.6950
18588TIP3    H277180   6.140   1.341  16.676  2.3770  0.7984  0.7456
18589TIP3   OH277181   1.086   1.559  10.564 -0.2730  0.0645 -0.0568
18589TIP3    H177182   1.027   1.601  10.501  0.9492 -1.6215 -2.5258
18589TIP3    H277183   1.034   1.550  10.644 -2.8814 -0.0308 -1.6379
18590TIP3   OH277184   5.210   4.973  14.135 -0.1026  0.2998 -0.2021
18590TIP3    H177185   5.175   4.906  14.076  1.6502  1.2267 -2.4050
18590TIP3    H277186   5.197   5.056  14.089  0.6691  1.1423  1.0336
18591TIP3   OH277187   3.293   1.272   0.595 -0.0844  0.0857 -0.4307
18591TIP3    H177188   3.246   1.274   0.512 -0.2470  1.6391 -0.3391
18591TIP3    H277189   3.278   1.184   0.629 -2.7808  0.4426 -0.4985
18592TIP3   OH277190   0.165   1.546   1.248  0.6026 -0.1573 -0.0761
18592TIP3    H177191   0.170   1.641   1.257  0.4074 -0.2369  1.0041
18592TIP3    H277192   0.096   1.532   1.182  0.1280  0.4421  0.2816
18593TIP3   OH277193   4.128   0.325   1.331 -0.0438  0.2709 -0.1957
18593TIP3    H177194   4.108   0.418   1.343 -2.7510 -0.2169 -0.2968
18593TIP3    H277195   4.169   0.319   1.245 -0.7515  1.2809 -0.6166
18594TIP3   OH277196   0.048   1.308  11.571 -0.3584 -0.3144 -0.0995
18594TIP3    H177197   0.097   1.231  11.600  1.1702  0.0708 -1.4893
18594TIP3    H277198  -0.030   1.309  11.625  1.2808 -0.8269  2.4415
18595TIP3   OH277199   4.640   3.233   3.191  0.7932  0.7682  0.4444
18595TIP3    H177200   4.579   3.278   3.134 -0.8807  2.1996  3.1292
18595TIP3    H277201   4.723   3.278   3.178 -0.0676  2.4903  0.6551
18596TIP3   OH277202   5.356   2.821  10.907  0.0295  0.0026  0.1620
18596TIP3    H177203   5.302   2.881  10.958 -0.6351  0.1564 -0.6875
18596TIP3    H277204   5.293   2.768  10.858  0.6189 -1.0356  0.4972
18597TIP3   OH277205   1.530   3.323  13.199  0.3798  0.2442 -0.9195
18597TIP3    H177206   1.546   3.409  13.238 -0.2214 -0.4457  0.9395
18597TIP3    H277207   1.567   3.261  13.262 -1.4229 -0.9654 -0.9991
18598TIP3   OH277208   3.134   0.578   1.987 -0.1488 -0.4733  0.4242
18598TIP3    H177209   3.147   0.502   1.930 -1.3881  0.4351 -1.1904
18598TIP3    H277210   3.163   0.652   1.934 -1.3179  0.4071  0.9672
18599TIP3   OH277211   4.564   1.878  16.273 -0.0882  0.2095 -0.3012
18599TIP3    H177212   4.634   1.844  16.217 -1.1353 -3.1960  0.2138
18599TIP3    H277213   4.544   1.964  16.237  2.5886  0.2401 -2.0298
18600TIP3   OH277214   1.548   3.681  12.920 -0.0453 -0.1443  0.5223
18600TIP3    H177215   1.460   3.666  12.954 -0.1259 -0.9388 -0.0130
18600TIP3    H277216   1.570   3.769  12.949  0.2137 -1.0471  3.3573
18601TIP3   OH277217   4.061   5.733  16.298 -0.3407 -0.4427 -0.2033
18601TIP3    H177218   4.013   5.752  16.218 -1.4136 -1.7501  0.1070
18601TIP3    H277219   3.995   5.701  16.359  0.5155  0.1788  1.1029
18602TIP3   OH277220   6.358   1.745   5.614 -0.4005 -0.4607  0.5664
18602TIP3    H177221   6.320   1.757   5.527 -0.2222  0.2746  0.5864
18602TIP3    H277222   6.287   1.763   5.675 -0.7419 -1.7367  0.5814
18603TIP3   OH277223   3.544   4.252   4.102  0.3454  0.2276  0.4519
18603TIP3    H177224   3.624   4.221   4.144  0.2703 -0.6723 -0.0259
18603TIP3    H277225   3.565   4.340   4.072  0.9543  0.2351  0.8739
18604TIP3   OH277226   2.206   3.729  13.132  0.8240  0.6590 -0.0672
18604TIP3    H177227   2.117   3.728  13.097  0.2582  0.3882  1.3110
18604TIP3    H277228   2.251   3.657  13.087 -0.0923 -0.1455  0.2728
18605TIP3   OH277229   2.217   1.571  14.153 -0.0206  1.0736  0.2871
18605TIP3    H177230   2.261   1.654  14.171 -0.1215  1.6173 -1.7785
18605TIP3    H277231   2.289   1.509  14.139  0.0679  0.5585  2.6068
18606TIP3   OH277232   3.538   4.201  12.985 -0.2658  0.1307 -0.2146
18606TIP3    H177233   3.577   4.239  13.064  0.8452 -0.4915 -0.4445
18606TIP3    H277234   3.518   4.111  13.010  0.8812 -0.3234 -0.8903
18607TIP3   OH277235   4.953   0.470  16.377  0.1359 -0.2523  0.2171
18607TIP3    H177236   4.886   0.488  16.312 -1.6537  0.0269  2.0535
18607TIP3    H277237   4.989   0.556  16.399  0.6147 -0.3289 -0.2359
18608TIP3   OH277238   6.133   3.663  14.281 -0.6070 -0.1976  0.2401
18608TIP3    H177239   6.046   3.648  14.319 -1.2023  0.7770 -0.6683
18608TIP3    H277240   6.115   3.685  14.189  0.6112 -0.0775  0.0182
18609TIP3   OH277241   6.094   1.549  13.747  0.0705 -0.1721  0.6778
18609TIP3    H177242   6.119   1.641  13.750 -0.6994  0.0204  2.2790
18609TIP3    H277243   6.163   1.507  13.694 -0.8065  1.6352 -2.1121
18610TIP3   OH277244   0.194   6.075  15.065 -0.3889  0.0787 -0.2733
18610TIP3    H177245   0.113   6.042  15.104  2.1636 -5.9112  1.1735
18610TIP3    H277246   0.197   6.035  14.978  0.9907  0.0585 -0.2420
18611TIP3   OH277247   4.667   4.464  15.499  0.1625 -0.1373  0.7780
18611TIP3    H177248   4.669   4.557  15.476  0.3571 -0.6026 -1.2468
18611TIP3    H277249   4.573   4.443  15.504  0.1163  0.1714  1.3353
18612TIP3   OH277250   6.122   0.078  16.500 -0.4368  0.3161  0.5341
18612TIP3    H177251   6.099   0.004  16.556  0.3694 -0.5208 -0.2074
18612TIP3    H277252   6.044   0.134  16.501 -0.6209  0.0873  2.0846
18613TIP3   OH277253   2.868   3.670  12.787  0.1621  0.7316 -0.0443
18613TIP3    H177254   2.844   3.613  12.861  0.8573 -1.5071 -1.4218
18613TIP3    H277255   2.792   3.727  12.775 -0.9085 -0.4010  0.9911
18614TIP3   OH277256   3.293   4.269   5.779  0.3056  0.1046  0.1837
18614TIP3    H177257   3.251   4.309   5.856  1.3010  0.4859  0.5386
18614TIP3    H277258   3.231   4.285   5.708 -1.0894 -1.0790  1.0594
18615TIP3   OH277259   0.796   3.338  14.931  0.5170  0.0269 -0.1854
18615TIP3    H177260   0.713   3.326  14.886  0.0620  2.2517 -0.0438
18615TIP3    H277261   0.850   3.265  14.901 -1.5981 -1.7757  0.1154
18616TIP3   OH277262   5.304   2.829   2.877  0.6255 -0.1228 -0.0961
18616TIP3    H177263   5.294   2.911   2.925  0.5863 -0.6351  0.7803
18616TIP3    H277264   5.245   2.838   2.802 -0.8476 -0.0987  1.0171
18617TIP3   OH277265   5.870   1.661  13.560  0.2714 -0.1144  0.2417
18617TIP3    H177266   5.959   1.697  13.557  0.2731  0.0494  1.6654
18617TIP3    H277267   5.814   1.734  13.533  0.4453  0.3123  1.0163
18618TIP3   OH277268   2.224   5.353  12.881 -0.1643 -0.1726  0.1291
18618TIP3    H177269   2.252   5.426  12.826 -1.1593  0.6480  0.6836
18618TIP3    H277270   2.249   5.378  12.970 -1.4576 -0.0090  0.4634
18619TIP3   OH277271   3.576   4.500  13.725  0.3939  0.1869  0.5148
18619TIP3    H177272   3.580   4.529  13.816  1.1182  1.2007  0.1809
18619TIP3    H277273   3.491   4.458  13.717  0.6562 -0.6772  1.8673
18620TIP3   OH277274   2.066   3.329   4.839 -0.4164  0.3676 -0.1151
18620TIP3    H177275   1.977   3.329   4.874 -0.8834 -0.4546 -1.2293
18620TIP3    H277276   2.079   3.417   4.805 -0.7930  0.5004  0.0781
18621TIP3   OH277277   2.486   2.112   1.623  0.2243 -0.1243  0.2714
18621TIP3    H177278   2.552   2.080   1.685 -0.2493  0.4788  1.0870
18621TIP3    H277279   2.524   2.193   1.588  0.5827 -0.5692 -0.3995
18622TIP3   OH277280   1.113   1.496  13.118  0.5509 -0.0497  0.6335
18622TIP3    H177281   1.066   1.440  13.180 -0.3378 -1.5946 -1.3266
18622TIP3    H277282   1.205   1.484  13.141  0.2430 -0.5949  1.6445
18623TIP3   OH277283   1.102   0.967  16.221  0.7301 -0.4720 -0.0251
18623TIP3    H177284   1.186   0.991  16.261  1.3818  0.4690 -1.8362
18623TIP3    H277285   1.116   0.880  16.185  0.5664 -0.7744  0.6391
18624TIP3   OH277286   0.516   5.145   4.157 -0.0632 -0.6357  0.2364
18624TIP3    H177287   0.562   5.086   4.217 -1.6197 -0.2174  1.9063
18624TIP3    H277288   0.432   5.102   4.140 -0.5140  0.2809  0.0812
18625TIP3   OH277289   3.432   6.698   5.916 -0.4742 -0.2846  0.5640
18625TIP3    H177290   3.392   6.611   5.924 -2.0393  0.3026 -0.2609
18625TIP3    H277291   3.362   6.752   5.880  1.2636  0.6937 -1.5599
18626TIP3   OH277292   4.097   3.440   6.167  0.0501 -0.4605  0.6407
18626TIP3    H177293   4.030   3.399   6.221 -0.1284 -1.0665 -0.0207
18626TIP3    H277294   4.179   3.401   6.196 -0.2567 -2.6413 -1.0899
18627TIP3   OH277295   5.052   5.518  16.476 -0.2131  0.2671  0.3092
18627TIP3    H177296   5.086   5.474  16.553 -0.2515 -0.3777 -0.0394
18627TIP3    H277297   4.967   5.477  16.460 -0.5610  0.9354  0.3775
18628TIP3   OH277298   3.129   3.338  12.013 -0.0407 -0.0619  0.8134
18628TIP3    H177299   3.142   3.248  11.983  2.1975  0.7201 -0.9181
18628TIP3    H277300   3.078   3.380  11.944  2.3427  0.9286 -0.4666
18629TIP3   OH277301   2.651   4.713  11.859 -0.1222  0.0960  0.5607
18629TIP3    H177302   2.673   4.646  11.924 -0.6806  0.8900  1.5949
18629TIP3    H277303   2.736   4.747  11.831  0.1322  0.6520  1.8839
18630TIP3   OH277304   2.445   3.627  14.074 -0.0351 -0.3868  0.1139
18630TIP3    H177305   2.361   3.649  14.114 -0.4919 -1.8300  0.0247
18630TIP3    H277306   2.423   3.560  14.008  1.0828 -0.2190 -0.4486
18631TIP3   OH277307   3.820   4.607  12.365  0.0833 -0.8801  0.3492
18631TIP3    H177308   3.803   4.701  12.370  0.1934 -0.8589  0.3169
18631TIP3    H277309   3.915   4.600  12.361  0.0571 -0.9725 -0.1491
18632TIP3   OH277310   2.076   4.470  15.416  0.4006  0.2576  0.1347
18632TIP3    H177311   2.034   4.526  15.351  2.3374 -0.0899 -1.4885
18632TIP3    H277312   2.035   4.385  15.404  0.3375  0.3369 -0.2262
18633TIP3   OH277313   4.881   4.233   2.719 -0.0507  0.5314  0.4873
18633TIP3    H177314   4.869   4.154   2.667  0.5129  0.7557  0.0074
18633TIP3    H277315   4.821   4.297   2.681  0.5858  0.7895 -0.0895
18634TIP3   OH277316   6.789   4.335   0.517 -0.4855 -0.2683  0.2351
18634TIP3    H177317   6.838   4.417   0.524  0.4993 -0.7555 -0.6121
18634TIP3    H277318   6.707   4.360   0.475 -0.3718  0.3525  0.3756
18635TIP3   OH277319   6.495   2.106  10.586 -0.1751 -0.0521  0.1597
18635TIP3    H177320   6.536   2.020  10.583  1.5248  0.6174  1.7949
18635TIP3    H277321   6.521   2.149  10.505  1.0062 -0.2686  0.4010
18636TIP3   OH277322   5.890   2.131  15.281 -0.4642  0.6177 -0.4933
18636TIP3    H177323   5.951   2.179  15.225  1.1456 -0.6695  0.0439
18636TIP3    H277324   5.942   2.108  15.358 -1.5362 -0.8298 -0.1580
18637TIP3   OH277325   4.325   6.014  14.658  0.1487  0.0633  0.1321
18637TIP3    H177326   4.251   5.953  14.651  0.3033 -0.1696  0.5159
18637TIP3    H277327   4.394   5.963  14.700  0.7276  0.1041 -0.7596
18638TIP3   OH277328   6.374   2.398   5.393 -0.0116  0.2947  0.0450
18638TIP3    H177329   6.291   2.447   5.393 -0.7570 -0.8681  1.5228
18638TIP3    H277330   6.349   2.309   5.369  0.5865 -0.3527  1.6931
18639TIP3   OH277331   2.212   1.295   3.489 -0.0396  0.0270 -0.2719
18639TIP3    H177332   2.125   1.269   3.519  0.2146 -0.0841  0.3779
18639TIP3    H277333   2.260   1.317   3.569 -0.3343  2.8915 -0.7569
18640TIP3   OH277334   5.341   2.065   5.082 -0.1790 -0.4144 -0.2922
18640TIP3    H177335   5.397   1.989   5.098  0.6444  0.0046 -1.0608
18640TIP3    H277336   5.363   2.092   4.993 -0.5259  0.6650 -0.0655
18641TIP3   OH277337   3.113   1.591   4.011  0.0550 -0.0179 -0.4195
18641TIP3    H177338   3.201   1.626   4.000  1.0595 -0.7545  3.6161
18641TIP3    H277339   3.125   1.496   4.011 -0.6447 -0.1234  0.5809
18642TIP3   OH277340   5.961   4.377   2.276  0.8784 -0.0454 -0.5508
18642TIP3    H177341   6.012   4.315   2.329  0.5840  0.0128 -0.1892
18642TIP3    H277342   6.020   4.404   2.206  0.8392 -1.1522 -1.0364
18643TIP3   OH277343   4.467   0.685   3.364 -0.2199  0.1285  0.0089
18643TIP3    H177344   4.525   0.758   3.340 -0.4266  0.3299  0.1197
18643TIP3    H277345   4.527   0.611   3.379 -0.1088 -0.0992 -1.4370
18644TIP3   OH277346   2.406   2.097  16.919  0.1993  0.3238 -0.2432
18644TIP3    H177347   2.438   2.039  16.850 -2.6231  0.1151 -1.4750
18644TIP3    H277348   2.330   2.053  16.955  1.0892  0.8405  2.5201
18645TIP3   OH277349   4.918   4.725   1.510 -0.2757 -0.3807 -0.5623
18645TIP3    H177350   4.985   4.791   1.495 -0.4322  0.4402  1.8019
18645TIP3    H277351   4.967   4.644   1.525  0.0686 -0.2561 -1.0114
18646TIP3   OH277352   0.733   2.870  16.739  0.1108  0.2191 -0.2463
18646TIP3    H177353   0.828   2.869  16.733  0.1310 -1.2813  0.0044
18646TIP3    H277354   0.709   2.961  16.721  1.5981  0.6793 -0.0340
18647TIP3   OH277355   0.932   0.717   2.911 -0.2707 -0.2832  0.3370
18647TIP3    H177356   0.936   0.663   2.832 -0.9439 -0.6899  0.5674
18647TIP3    H277357   0.944   0.654   2.983 -1.3766 -0.1893  0.6227
18648TIP3   OH277358   4.022   0.026  15.591 -0.1698 -0.2226  0.6047
18648TIP3    H177359   3.937   0.006  15.631  0.2557 -0.9195  1.2103
18648TIP3    H277360   4.054  -0.059  15.560  0.0996  0.1107 -0.0450
18649TIP3   OH277361   3.433   2.676  13.390  0.0324 -0.2185 -0.6607
18649TIP3    H177362   3.414   2.764  13.423 -0.8898 -0.6170 -0.0944
18649TIP3    H277363   3.517   2.685  13.345 -1.2942  1.5843 -3.0500
18650TIP3   OH277364   5.652   6.422  14.747  0.2214  0.0170  0.5277
18650TIP3    H177365   5.682   6.511  14.765  1.3897 -0.2760  0.1143
18650TIP3    H277366   5.676   6.372  14.825  0.6746 -0.1804  0.2690
18651TIP3   OH277367   1.798   4.850   4.046 -0.3300 -0.0974 -0.3800
18651TIP3    H177368   1.706   4.877   4.048 -0.2601  0.1122  0.3158
18651TIP3    H277369   1.803   4.781   4.113  0.7445  2.3146  2.2100
18652TIP3   OH277370   2.066   2.788  14.020 -0.2884  0.5449  0.2937
18652TIP3    H177371   2.118   2.708  14.028  0.3423  0.8889 -0.2642
18652TIP3    H277372   1.976   2.760  14.038  0.1045 -0.0260  1.4539
18653TIP3   OH277373   0.365   3.730  17.179  0.2232  0.5194 -0.2001
18653TIP3    H177374   0.407   3.712  17.263 -0.7585  1.2819  0.4800
18653TIP3    H277375   0.340   3.644  17.145  1.7410  0.0993 -0.3323
18654TIP3   OH277376   2.182   0.952  15.635  0.0656  0.0010  0.0811
18654TIP3    H177377   2.104   0.981  15.589  0.7838  1.9626  0.0113
18654TIP3    H277378   2.187   0.858  15.618 -2.4688 -0.2556  0.4203
18655TIP3   OH277379   2.202   1.766   4.923 -0.4716 -0.6060 -0.1824
18655TIP3    H177380   2.238   1.680   4.902 -1.5218 -0.6690 -1.9528
18655TIP3    H277381   2.109   1.750   4.938 -0.4683  0.0731  0.6924
18656TIP3   OH277382   4.596   5.406   2.627  0.5654 -0.4969 -0.6728
18656TIP3    H177383   4.647   5.392   2.548  0.5357 -2.9785 -0.3293
18656TIP3    H277384   4.638   5.480   2.670  1.3485  0.0999 -2.3735
18657TIP3   OH277385   5.660   0.975   4.450  0.5590  0.4724 -0.0731
18657TIP3    H177386   5.575   1.018   4.443  0.1366 -0.2434  0.5808
18657TIP3    H277387   5.655   0.900   4.391  0.1737 -0.4404  1.0677
18658TIP3   OH277388   4.859   4.309  17.242 -0.0984  0.0673 -0.2010
18658TIP3    H177389   4.875   4.355  17.325 -2.2732 -2.5371  1.8529
18658TIP3    H277390   4.946   4.290  17.207  0.9038  3.8839 -0.2388
18659TIP3   OH277391   4.610   1.169  14.933 -0.8923  0.1065  0.1699
18659TIP3    H177392   4.554   1.222  14.876 -2.1409 -1.0327  0.2842
18659TIP3    H277393   4.651   1.233  14.992 -1.6918  1.0345 -0.2344
18660TIP3   OH277394   0.107   5.664  11.008 -0.6153 -0.3712 -0.3250
18660TIP3    H177395   0.072   5.578  10.986 -2.0091  0.0394  0.1401
18660TIP3    H277396   0.031   5.723  11.001  0.2694  0.7869 -0.4799
18661TIP3   OH277397   5.592   6.673   0.600 -0.1742  0.3981 -0.3014
18661TIP3    H177398   5.652   6.624   0.543 -1.3893 -1.6512  0.0594
18661TIP3    H277399   5.514   6.617   0.606 -0.3880  0.8889  2.7861
18662TIP3   OH277400   2.012   1.804   0.605  0.1117  0.5032 -0.1330
18662TIP3    H177401   1.930   1.799   0.653  0.0250  1.0797 -0.2015
18662TIP3    H277402   1.987   1.790   0.513  0.2034 -0.0983 -0.0645
18663TIP3   OH277403   6.522   0.400  16.971 -0.4626  1.2090 -0.3310
18663TIP3    H177404   6.440   0.428  16.929 -0.3221  0.0437 -1.4412
18663TIP3    H277405   6.555   0.330  16.914  1.3476  1.7113  0.0522
18664TIP3   OH277406   6.022   4.081   5.533  0.4500 -0.1714  0.4036
18664TIP3    H177407   6.111   4.116   5.537 -0.1588  1.4099  0.8166
18664TIP3    H277408   6.003   4.076   5.440  0.6783  0.2491  0.3318
18665TIP3   OH277409   2.298   5.632   0.608 -0.3062  0.7267  0.6931
18665TIP3    H177410   2.208   5.606   0.586 -0.2048  0.3510  0.7091
18665TIP3    H277411   2.352   5.561   0.574 -0.0518  0.7344  1.0710
18666TIP3   OH277412   2.913   5.192  13.225  0.2118  0.0078  0.3834
18666TIP3    H177413   2.988   5.251  13.239 -0.7405  0.9812  1.5854
18666TIP3    H277414   2.852   5.244  13.171 -0.9273  0.4282  2.0103
18667TIP3   OH277415   0.665   1.969  14.457  0.4605 -0.2513 -0.2060
18667TIP3    H177416   0.722   2.008  14.390 -2.0961 -1.5230 -3.4323
18667TIP3    H277417   0.581   2.014  14.446 -0.2329 -0.9347  1.8358
18668TIP3   OH277418   2.206   5.550  11.200 -0.1504  0.8653 -0.3234
18668TIP3    H177419   2.234   5.476  11.252 -0.8785 -1.2686 -2.7251
18668TIP3    H277420   2.119   5.572  11.234  0.4237  1.2340  0.9583
18669TIP3   OH277421   6.006   3.405   4.721 -0.0720 -0.0774  0.0695
18669TIP3    H177422   6.006   3.341   4.649  0.8645  0.9480 -0.8769
18669TIP3    H277423   6.065   3.368   4.786  1.4248  0.3492 -0.9927
18670TIP3   OH277424   4.682   1.257   2.636  0.1463 -0.7883  0.1740
18670TIP3    H177425   4.713   1.291   2.720 -2.3498  1.0011  0.4961
18670TIP3    H277426   4.734   1.303   2.570  0.1649 -0.0385  0.7078
18671TIP3   OH277427   2.276   3.282  16.470 -0.3167 -0.0720 -0.1775
18671TIP3    H177428   2.191   3.281  16.514 -1.4160 -2.0903 -2.1322
18671TIP3    H277429   2.320   3.202  16.501 -0.7228 -1.0202 -1.8942
18672TIP3   OH277430   2.270   4.583   4.343  0.0165  0.1322 -0.3369
18672TIP3    H177431   2.263   4.626   4.428  0.3657 -0.6865  0.1121
18672TIP3    H277432   2.311   4.499   4.361  0.1019 -0.0536 -1.3183
18673TIP3   OH277433   3.045   0.846   1.432 -0.3476  0.0720 -0.8952
18673TIP3    H177434   2.952   0.860   1.444 -0.2287 -0.6456  1.3361
18673TIP3    H277435   3.051   0.774   1.369 -1.4970 -2.6558  1.8751
18674TIP3   OH277436   3.366   0.517  17.158  0.3401 -0.0749  0.0620
18674TIP3    H177437   3.376   0.423  17.145  0.1053 -0.1562  0.4625
18674TIP3    H277438   3.404   0.556  17.080  0.2521 -0.5103 -0.2015
18675TIP3   OH277439   0.435   4.003  11.659 -0.2010 -0.1453 -1.1500
18675TIP3    H177440   0.415   4.096  11.673  1.4110  0.4437 -2.3962
18675TIP3    H277441   0.528   4.002  11.634  0.5985 -2.3692  1.3919
18676TIP3   OH277442   3.312   3.692  15.040 -0.7619  0.1464  0.0552
18676TIP3    H177443   3.341   3.783  15.040 -0.1770  0.0078 -1.8574
18676TIP3    H277444   3.242   3.689  14.975 -1.7525 -0.5226  1.1077
18677TIP3   OH277445   3.671   2.979  15.899 -0.7825 -1.0711  0.4475
18677TIP3    H177446   3.655   2.896  15.855  1.4754 -1.5408  0.4134
18677TIP3    H277447   3.601   2.986  15.964 -1.5829 -2.4932 -0.2260
18678TIP3   OH277448   1.171   1.481  14.944  0.0444 -0.0022 -0.0626
18678TIP3    H177449   1.254   1.496  14.989 -1.3958  1.9659  2.1592
18678TIP3    H277450   1.106   1.474  15.014 -1.9507  0.5162 -1.7437
18679TIP3   OH277451   4.716   0.668  16.986  0.8265  0.3527 -0.1469
18679TIP3    H177452   4.704   0.575  16.964  1.4263 -0.7544  3.4693
18679TIP3    H277453   4.636   0.710  16.954  0.1566 -1.5338 -1.1557
18680TIP3   OH277454   5.322   6.553   6.545  0.0336 -0.5101  0.9033
18680TIP3    H177455   5.311   6.540   6.640  1.4983  0.9247  1.3200
18680TIP3    H277456   5.404   6.602   6.537 -0.0303 -0.6614 -1.1273
18681TIP3   OH277457   4.151   3.029   5.796  0.1006  0.4295  0.2008
18681TIP3    H177458   4.161   3.048   5.703 -0.9327 -0.6963 -0.1603
18681TIP3    H277459   4.217   3.084   5.839  0.2806  1.2958 -1.1463
18682TIP3   OH277460   5.456   3.679   2.372 -0.0343  0.6259 -0.1379
18682TIP3    H177461   5.390   3.746   2.381 -1.5967 -0.8740  0.0434
18682TIP3    H277462   5.534   3.715   2.416 -1.2760  1.6702  1.2889
18683TIP3   OH277463   1.421   5.301  17.127  0.0197 -0.2647 -0.1628
18683TIP3    H177464   1.388   5.282  17.216  2.7835 -0.1279  0.9894
18683TIP3    H277465   1.442   5.394  17.129  0.5838 -0.3750 -0.8096
18684TIP3   OH277466   3.000   5.158   1.735 -0.4686  0.0770  0.0343
18684TIP3    H177467   3.015   5.125   1.647  0.6401 -0.0289  0.2452
18684TIP3    H277468   3.081   5.139   1.782 -0.4349  1.5288  0.6388
18685TIP3   OH277469   1.663   1.833  10.591  0.2040  0.1462  0.3228
18685TIP3    H177470   1.737   1.790  10.548  0.5490  0.6236  0.4334
18685TIP3    H277471   1.589   1.775  10.575  0.4430  0.0558 -0.4550
18686TIP3   OH277472   4.885   0.436   0.328  0.1255  0.5686 -0.0879
18686TIP3    H177473   4.887   0.512   0.269  3.1531  1.0372  0.4156
18686TIP3    H277474   4.915   0.471   0.412  1.6676 -1.1351  0.1392
18687TIP3   OH277475   2.017   6.659   1.186  0.3374  0.4967 -0.2349
18687TIP3    H177476   2.044   6.611   1.264  1.2836  1.6293  0.1686
18687TIP3    H277477   2.049   6.606   1.113 -0.0413 -0.2761  0.1480
18688TIP3   OH277478   4.597   5.133  11.004 -0.1496  0.2578  0.8275
18688TIP3    H177479   4.675   5.090  11.039 -0.2668 -0.8802 -0.2398
18688TIP3    H277480   4.524   5.090  11.049 -0.1961  1.0015  1.4852
18689TIP3   OH277481   3.077   6.492  11.949 -0.7323  0.3240  0.0739
18689TIP3    H177482   3.156   6.538  11.980 -1.7139  1.5685  0.8199
18689TIP3    H277483   3.004   6.539  11.989 -1.8923 -0.6117 -0.8491
18690TIP3   OH277484   0.004   6.566  14.754  0.1786 -0.5635  0.4967
18690TIP3    H177485  -0.037   6.523  14.828  1.0574 -1.4777  0.4778
18690TIP3    H277486   0.094   6.584  14.784  1.1941 -2.7606 -0.9719
18691TIP3   OH277487   5.308   2.005  13.034 -0.0551 -0.0222  0.3773
18691TIP3    H177488   5.375   1.975  12.973 -0.4599 -0.7578  0.2933
18691TIP3    H277489   5.358   2.039  13.109  0.4350  0.6349 -0.2280
18692TIP3   OH277490   5.496   5.557   3.398 -0.3672  0.1110 -0.9442
18692TIP3    H177491   5.575   5.545   3.344  0.6213  0.9838  0.2376
18692TIP3    H277492   5.522   5.622   3.464 -1.9480  0.0710 -0.2323
18693TIP3   OH277493   0.974   2.583  14.113 -0.2157 -0.2427 -0.3658
18693TIP3    H177494   0.885   2.556  14.093  0.2928 -1.4631 -1.0892
18693TIP3    H277495   1.012   2.608  14.029  0.2074  0.0021 -0.1091
18694TIP3   OH277496   3.826   2.740  14.293  0.1440 -0.8489 -0.0562
18694TIP3    H177497   3.854   2.757  14.203  0.5666 -0.5694  0.1260
18694TIP3    H277498   3.878   2.801  14.346 -1.0124 -0.1027  0.2618
18695TIP3   OH277499   4.445   6.257   2.786  0.0339 -0.1441 -0.0237
18695TIP3    H177500   4.455   6.240   2.879 -0.6160  1.3605  0.3451
18695TIP3    H277501   4.387   6.188   2.755  1.8797 -1.9075  0.2077
18696TIP3   OH277502   4.070   0.166  12.922 -0.0210  0.2724  0.2173
18696TIP3    H177503   3.999   0.152  12.860 -0.0915 -0.5664  0.4732
18696TIP3    H277504   4.081   0.081  12.965  2.5359 -0.2452 -1.2539
18697TIP3   OH277505   4.716   1.415  11.357 -0.0781 -0.5527 -0.5175
18697TIP3    H177506   4.736   1.414  11.264 -1.8501  0.8170 -0.9642
18697TIP3    H277507   4.621   1.415  11.362 -0.0560 -2.1702  1.3651
18698TIP3   OH277508   5.180   6.625   3.410 -0.2145 -0.8137  0.8365
18698TIP3    H177509   5.097   6.673   3.409 -0.5467 -1.3856 -0.4204
18698TIP3    H277510   5.221   6.644   3.326  0.3252 -1.5761  0.9120
18699TIP3   OH277511   5.658   2.667  14.359  0.0991 -0.0908 -0.8334
18699TIP3    H177512   5.616   2.750  14.334  0.7037 -0.3215 -2.8124
18699TIP3    H277513   5.596   2.600  14.329  0.5117 -0.3761 -1.0473
18700TIP3   OH277514   0.758   0.861   1.883  0.5839 -0.3451  0.0413
18700TIP3    H177515   0.812   0.794   1.841 -0.7601 -0.2933 -1.8911
18700TIP3    H277516   0.748   0.930   1.818 -1.7745 -0.3598  0.2694
18701TIP3   OH277517   2.068   2.572   0.833  0.0593  0.0446  0.0152
18701TIP3    H177518   2.128   2.554   0.905 -1.2452 -0.1043  1.1099
18701TIP3    H277519   2.020   2.650   0.861 -0.4015  0.0348 -0.7332
18702TIP3   OH277520   6.558   2.569  11.947 -0.0147  0.3953 -0.4198
18702TIP3    H177521   6.637   2.519  11.927  0.4589  0.8611  0.2386
18702TIP3    H277522   6.509   2.513  12.008 -0.9788 -0.5851 -2.0150
18703TIP3   OH277523   1.160   1.279   2.498  0.1836  0.7277  0.2041
18703TIP3    H177524   1.190   1.220   2.429 -0.5430 -0.3541  0.7719
18703TIP3    H277525   1.212   1.255   2.575  0.3398  1.2787  0.2729
18704TIP3   OH277526   2.121   3.278   5.634 -0.2853  0.0832  0.6977
18704TIP3    H177527   2.166   3.244   5.711  1.2867  0.4771 -0.0161
18704TIP3    H277528   2.079   3.358   5.665 -0.8733 -0.5011  1.4705
18705TIP3   OH277529   5.470   1.002  14.070  0.1199 -0.2161 -0.3677
18705TIP3    H177530   5.429   1.011  13.984 -1.1221 -1.5375  0.0502
18705TIP3    H277531   5.409   1.044  14.131  0.4783 -0.2199  0.0006
18706TIP3   OH277532   4.386   4.533  15.125 -0.0487  0.1702  0.4414
18706TIP3    H177533   4.354   4.567  15.042  0.3210 -1.5845 -0.4567
18706TIP3    H277534   4.336   4.582  15.191 -2.5382 -0.4702 -0.8449
18707TIP3   OH277535   6.582   6.600  12.001 -0.3485 -0.2898 -0.2503
18707TIP3    H177536   6.529   6.679  12.009  1.0749  0.5992  0.9306
18707TIP3    H277537   6.559   6.548  12.078 -0.7392 -0.7019 -0.6379
18708TIP3   OH277538   0.254   1.034   4.487 -0.6992 -0.1444 -0.1507
18708TIP3    H177539   0.297   0.979   4.422 -1.2866  0.0740 -0.7354
18708TIP3    H277540   0.242   1.119   4.443 -1.1584 -0.0148  0.2197
18709TIP3   OH277541   4.862   5.810  13.958 -0.4407  0.1770  0.7098
18709TIP3    H177542   4.893   5.865  14.030 -0.1808 -0.2181  0.9039
18709TIP3    H277543   4.935   5.807  13.896 -1.0844  1.4871 -0.1513
18710TIP3   OH277544   6.265   1.924   6.502  0.1884 -0.0634  0.1151
18710TIP3    H177545   6.347   1.971   6.517 -0.0872  0.1773  0.8804
18710TIP3    H277546   6.264   1.856   6.569 -0.5065  0.2964  0.4750
18711TIP3   OH277547   3.715   5.671  11.919 -0.2572  0.0906  0.3404
18711TIP3    H177548   3.700   5.756  11.879  2.3592  0.1619 -0.6744
18711TIP3    H277549   3.743   5.690  12.008 -2.0003  0.1262  0.9160
18712TIP3   OH277550   5.754   3.703  13.936 -0.0416 -0.4933  0.1130
18712TIP3    H177551   5.765   3.636  13.868  0.0803  0.5597 -0.9467
18712TIP3    H277552   5.732   3.654  14.015 -0.4400 -1.7423 -0.7386
18713TIP3   OH277553   4.488   6.614   0.909 -0.0062 -0.3328  0.0240
18713TIP3    H177554   4.452   6.695   0.875  0.5672  0.0064  0.2084
18713TIP3    H277555   4.536   6.640   0.988 -0.5928 -0.9824  0.6062
18714TIP3   OH277556   0.275   6.028   2.572 -0.2186 -0.1311  0.0451
18714TIP3    H177557   0.367   6.029   2.600 -0.2214  1.7845  0.0711
18714TIP3    H277558   0.237   5.954   2.621  0.4015  1.4182  3.1533
18715TIP3   OH277559   1.957   2.134  11.853 -0.7646  0.1675 -0.0386
18715TIP3    H177560   1.980   2.052  11.895 -1.8577 -0.0888  0.0968
18715TIP3    H277561   1.882   2.113  11.797  1.2354  0.2572 -2.9965
18716TIP3   OH277562   3.890   6.420   3.898 -0.2472  0.3800 -0.5014
18716TIP3    H177563   3.836   6.466   3.963 -0.1626  1.6377 -1.2906
18716TIP3    H277564   3.946   6.362   3.950 -0.8661  0.6287  0.4754
18717TIP3   OH277565   5.020   5.982  13.238  0.0275 -0.2715  0.7350
18717TIP3    H177566   4.948   5.963  13.298  0.8659  0.7166  2.1139
18717TIP3    H277567   5.086   6.023  13.293  0.7812  0.8187 -0.9234
18718TIP3   OH277568   0.215   1.284   5.201 -0.0038  0.5212 -0.5646
18718TIP3    H177569   0.179   1.284   5.112 -1.4225  0.3371 -0.0102
18718TIP3    H277570   0.223   1.191   5.223  1.9868  0.5141 -1.1036
18719TIP3   OH277571   2.991   1.833  15.399  0.3396 -0.1296 -0.1969
18719TIP3    H177572   3.067   1.821  15.342  0.2762  0.7102 -0.4648
18719TIP3    H277573   2.945   1.909  15.363 -0.5579 -0.5450  0.0418
18720TIP3   OH277574   5.150   6.204   4.200 -0.3138  0.4946 -0.0069
18720TIP3    H177575   5.123   6.283   4.153  0.3913  0.9280  0.3034
18720TIP3    H277576   5.234   6.181   4.162 -0.7858 -0.4597 -0.5028
18721TIP3   OH277577   4.065   5.221  16.540 -0.3230 -0.2001 -0.1393
18721TIP3    H177578   4.062   5.178  16.625  1.2918  1.8283  1.0373
18721TIP3    H277579   4.002   5.292  16.546  1.2165  1.2149  0.2019
18722TIP3   OH277580   1.150   2.328  11.039 -0.1196  0.1027 -0.1284
18722TIP3    H177581   1.073   2.303  10.989 -0.3603  0.6086 -0.0216
18722TIP3    H277582   1.217   2.264  11.014 -0.1183  0.5722 -1.3981
18723TIP3   OH277583   6.358   2.938  13.109 -0.0700 -0.1324 -0.2978
18723TIP3    H177584   6.396   2.857  13.074  1.5626  0.5445 -0.1862
18723TIP3    H277585   6.391   3.006  13.051 -0.1887  0.6157  0.5060
18724TIP3   OH277586   5.739   2.031  16.689  0.1975  0.3651  0.7593
18724TIP3    H177587   5.784   2.088  16.752 -0.4264 -0.3653  1.9181
18724TIP3    H277588   5.657   2.075  16.671  0.1620  0.3394  0.8533
18725TIP3   OH277589   4.989   6.060  11.551  0.2955 -0.2047  0.5185
18725TIP3    H177590   5.070   6.041  11.504  0.2042  0.6419 -0.0147
18725TIP3    H277591   4.930   6.092  11.483 -0.1421  0.1785  1.0742
18726TIP3   OH277592   6.131   4.095  14.874  0.2219 -0.0136 -0.6068
18726TIP3    H177593   6.082   4.085  14.793 -1.2163 -1.9609  0.4403
18726TIP3    H277594   6.086   4.165  14.921 -0.3111 -0.4068 -0.5282
18727TIP3   OH277595   6.184   2.970   3.202 -0.3373 -0.2480 -0.4187
18727TIP3    H177596   6.277   2.949   3.213 -0.3440 -0.6401 -1.1253
18727TIP3    H277597   6.141   2.885   3.196 -0.7759 -0.0679  0.1558
18728TIP3   OH277598   0.780   3.016   3.723 -0.4082 -0.1256 -0.2275
18728TIP3    H177599   0.813   3.069   3.651 -1.3776  2.5104  1.1557
18728TIP3    H277600   0.686   3.009   3.706 -0.1742 -2.5569 -1.0055
18729TIP3   OH277601   4.417   1.562   5.482 -0.3393 -0.6489  0.2334
18729TIP3    H177602   4.331   1.597   5.505 -0.9689 -2.6691  1.1917
18729TIP3    H277603   4.401   1.509   5.404  0.3742  0.2104 -0.5254
18730TIP3   OH277604   1.188   0.056  15.431  0.5140 -0.2586  0.2234
18730TIP3    H177605   1.269   0.100  15.457 -0.4402  1.2954  0.7147
18730TIP3    H277606   1.138   0.048  15.512 -0.0444 -0.7387 -0.1632
18731TIP3   OH277607   6.384   2.179  14.523 -0.4338 -0.0912 -0.0656
18731TIP3    H177608   6.398   2.146  14.434  0.2029  2.6807 -1.0970
18731TIP3    H277609   6.447   2.130  14.577  0.5199 -0.4755 -1.4708
18732TIP3   OH277610   6.678   2.851   5.344  0.7394 -0.3498 -0.1579
18732TIP3    H177611   6.724   2.922   5.300 -0.6852  0.2449 -0.7281
18732TIP3    H277612   6.714   2.851   5.433  0.8829  0.9624 -0.1991
18733TIP3   OH277613   3.520   2.108  13.649 -0.7067  0.0895  0.5475
18733TIP3    H177614   3.593   2.054  13.681 -0.1643  0.9073  0.7064
18733TIP3    H277615   3.470   2.048  13.593  0.7055 -0.1944 -0.4734
18734TIP3   OH277616   0.367   0.757  16.188 -0.1510 -0.2136  0.6567
18734TIP3    H177617   0.454   0.781  16.219 -0.3080 -0.4162  1.2652
18734TIP3    H277618   0.312   0.760  16.266 -0.2387 -2.3099  0.7275
18735TIP3   OH277619   6.485   2.180  16.453 -0.2908 -0.4369  0.2052
18735TIP3    H177620   6.502   2.239  16.527 -2.2093 -1.4676  1.5344
18735TIP3    H277621   6.556   2.115  16.458 -1.3371 -1.5281  2.3091
18736TIP3   OH277622   0.798   0.517   3.065 -0.3620 -0.1591 -0.6114
18736TIP3    H177623   0.837   0.430   3.061 -2.2881 -1.1378  0.7679
18736TIP3    H277624   0.863   0.571   3.111  0.7940 -0.8593 -1.3804
18737TIP3   OH277625   5.221   5.489  16.269  0.1530 -0.4628 -0.4849
18737TIP3    H177626   5.154   5.463  16.206  0.2037 -0.3403 -0.5898
18737TIP3    H277627   5.173   5.506  16.350 -0.2873  2.0688 -1.1955
18738TIP3   OH277628   3.410   1.384  13.535 -0.5087 -0.0418 -0.0079
18738TIP3    H177629   3.455   1.307  13.569 -1.4170 -1.7468 -2.3701
18738TIP3    H277630   3.338   1.400  13.597  0.1181 -0.6354  0.8866
18739TIP3   OH277631   4.460   5.046   0.784 -0.4064 -0.0826 -0.3090
18739TIP3    H177632   4.525   5.029   0.852 -1.2991 -1.0616  0.3274
18739TIP3    H277633   4.384   4.995   0.810 -1.6077  1.3762 -0.8027
18740TIP3   OH277634   4.651   2.789   2.144  0.0194 -0.3764  0.0816
18740TIP3    H177635   4.697   2.853   2.198 -1.2050 -0.7491  1.6373
18740TIP3    H277636   4.627   2.838   2.065 -1.1916  1.2661  1.3798
18741TIP3   OH277637   5.146   4.724  16.105  0.9521 -0.0953  0.8821
18741TIP3    H177638   5.111   4.766  16.026  1.2827  0.0741  0.8254
18741TIP3    H277639   5.070   4.715  16.162 -0.3610 -4.1925 -1.0827
18742TIP3   OH277640   0.255   3.578   5.952 -0.8933  0.7565 -0.0085
18742TIP3    H177641   0.218   3.594   6.039  0.1531 -1.7417  0.9813
18742TIP3    H277642   0.179   3.578   5.894 -1.9607 -0.0117  1.3183
18743TIP3   OH277643   5.594   5.182  16.390 -0.5845  0.0367 -0.4369
18743TIP3    H177644   5.569   5.209  16.301  0.2413 -0.8370 -0.9576
18743TIP3    H277645   5.686   5.155  16.381  0.2712  2.1339  1.1750
18744TIP3   OH277646   4.330   0.408   1.147  0.1418  0.2212  0.5557
18744TIP3    H177647   4.411   0.377   1.186  0.4567 -3.6545 -2.5197
18744TIP3    H277648   4.356   0.445   1.063 -1.0819  0.9951  0.4922
18745TIP3   OH277649   2.220   4.934  13.740  0.1077  0.2356 -0.5884
18745TIP3    H177650   2.140   4.972  13.705 -0.2330 -0.6909 -0.8400
18745TIP3    H277651   2.211   4.840  13.725  0.9558  0.0520 -0.0379
18746TIP3   OH277652   3.245   4.344  13.280  0.1294 -0.0494  0.1293
18746TIP3    H177653   3.242   4.328  13.186  0.4768 -0.3077  0.1591
18746TIP3    H277654   3.156   4.325  13.311  0.5799 -2.2687  0.2086
18747TIP3   OH277655   1.811   2.259  15.008  0.3117 -0.1668  0.4143
18747TIP3    H177656   1.824   2.312  15.086  2.8331 -0.5422  0.3365
18747TIP3    H277657   1.863   2.180  15.024  2.0019  0.3107 -2.1093
18748TIP3   OH277658   4.752   1.553  14.936  0.1250  0.1334  0.2688
18748TIP3    H177659   4.691   1.543  15.010 -1.0307 -1.3184 -0.8272
18748TIP3    H277660   4.807   1.628  14.961 -1.0606  0.4964  2.0110
18749TIP3   OH277661   1.701   5.478   5.625 -0.5451 -0.2394 -0.7547
18749TIP3    H177662   1.697   5.398   5.573 -2.0173  0.4579 -1.7941
18749TIP3    H277663   1.710   5.548   5.561  0.4936  0.4704  0.1247
18750TIP3   OH277664   3.651   2.158   0.026  0.3976  0.2287 -0.6685
18750TIP3    H177665   3.646   2.251   0.045  0.9927  0.1552 -0.1564
18750TIP3    H277666   3.584   2.144  -0.042 -1.3988  0.5849  0.9279
18751TIP3   OH277667   5.468   5.550   1.583 -0.2300  0.0651  0.0415
18751TIP3    H177668   5.480   5.585   1.671 -1.3482 -2.1929  1.1473
18751TIP3    H277669   5.374   5.553   1.568 -0.2563 -1.4617 -0.2331
18752TIP3   OH277670   1.249   5.372   1.815 -0.3715 -0.2011 -0.3755
18752TIP3    H177671   1.220   5.283   1.794 -2.5230  1.0975 -3.9797
18752TIP3    H277672   1.168   5.418   1.840  0.2812  1.2371 -0.7970
18753TIP3   OH277673   4.194   6.667  12.121  0.3059  0.3894  0.0772
18753TIP3    H177674   4.126   6.601  12.106 -1.3808  1.9143  0.6505
18753TIP3    H277675   4.179   6.697  12.210  0.7820  1.8049 -0.2910
18754TIP3   OH277676   4.204   5.935  16.811  0.3845 -0.0279  0.5011
18754TIP3    H177677   4.290   5.958  16.776 -0.0220 -0.8368 -1.1632
18754TIP3    H277678   4.197   5.841  16.796 -1.4739  0.2988 -1.1558
18755TIP3   OH277679   6.462   5.017   4.747 -0.5874  0.0301 -0.1583
18755TIP3    H177680   6.497   4.933   4.779  0.0191 -0.2312 -1.4444
18755TIP3    H277681   6.461   5.007   4.652 -1.5568  1.0912 -0.2733
18756TIP3   OH277682   0.044   1.161  12.434 -0.9842  0.1782 -0.0070
18756TIP3    H177683   0.138   1.174  12.444 -0.9042  0.6579 -1.2387
18756TIP3    H277684   0.008   1.182  12.520 -0.3371  3.5191 -0.4039
18757TIP3   OH277685   0.304   5.337  13.306 -0.6605 -0.0009 -0.9620
18757TIP3    H177686   0.307   5.304  13.217  0.8541  2.7445 -2.0722
18757TIP3    H277687   0.348   5.271  13.359  0.6519 -0.5752 -2.7081
18758TIP3   OH277688   5.377   5.449   3.734  0.4802 -0.2947  0.1146
18758TIP3    H177689   5.335   5.497   3.806 -0.0367 -0.2723 -0.1953
18758TIP3    H277690   5.313   5.383   3.709  1.1215 -1.0374  0.4207
18759TIP3   OH277691   1.225   0.914  11.442  0.0882  0.7152  0.6470
18759TIP3    H177692   1.157   0.957  11.390  0.8382  0.5765 -0.4906
18759TIP3    H277693   1.235   0.970  11.519 -1.4344  0.6340  0.9496
18760TIP3   OH277694   5.516   3.736   1.214  0.0158 -0.0150 -0.1561
18760TIP3    H177695   5.532   3.774   1.300  0.8516  0.9060 -0.7088
18760TIP3    H277696   5.564   3.653   1.215 -1.3658 -0.8625  0.8448
18761TIP3   OH277697   2.889   3.783  14.740  0.3343 -0.6295  0.4952
18761TIP3    H177698   2.813   3.807  14.793  0.4045  1.0072 -0.0854
18761TIP3    H277699   2.964   3.817  14.789  0.4974 -0.2631  0.0053
18762TIP3   OH277700   4.603   0.724   2.608 -0.9487 -0.6418  0.4324
18762TIP3    H177701   4.669   0.733   2.677 -0.1045 -0.0838 -0.4143
18762TIP3    H277702   4.595   0.812   2.571 -2.7351 -0.5375  0.9928
18763TIP3   OH277703   1.206   4.899  11.144  0.0724  0.5713  0.4210
18763TIP3    H177704   1.248   4.929  11.064  0.1226 -0.9237 -0.1380
18763TIP3    H277705   1.255   4.821  11.170 -2.8695 -1.8887 -0.8266
18764TIP3   OH277706   6.566   4.104  14.746 -0.4235 -0.2775  0.5855
18764TIP3    H177707   6.491   4.163  14.752  0.3291  0.6027  1.7236
18764TIP3    H277708   6.612   4.115  14.829  0.3406 -1.6688  0.3731
18765TIP3   OH277709   2.767   0.457  13.794  0.1026 -0.1895 -0.0369
18765TIP3    H177710   2.731   0.545  13.790 -1.4038 -0.8074 -1.5726
18765TIP3    H277711   2.733   0.413  13.716 -0.9889 -2.7931  1.7381
18766TIP3   OH277712   1.897   0.366   5.601 -0.1000  0.2559 -1.3045
18766TIP3    H177713   1.885   0.431   5.670  1.6173 -0.8873  0.1630
18766TIP3    H277714   1.869   0.284   5.640  1.3406 -0.4949 -1.7648
18767TIP3   OH277715   5.047   0.039  11.847 -0.1465 -0.0316  0.1449
18767TIP3    H177716   4.960   0.077  11.856 -0.1553 -0.1034  0.3846
18767TIP3    H277717   5.089   0.058  11.932 -0.1144 -0.4704  0.2264
18768TIP3   OH277718   2.906   2.264  12.845  0.4116  0.2769  0.4423
18768TIP3    H177719   2.957   2.183  12.837 -0.1056 -0.0902  0.8273
18768TIP3    H277720   2.916   2.288  12.937 -0.9376 -0.3539  0.7745
18769TIP3   OH277721   5.078   5.867   3.663  0.4180  0.8195 -0.4724
18769TIP3    H177722   5.069   5.940   3.725 -2.8353  0.2094 -0.0136
18769TIP3    H277723   5.068   5.789   3.716  0.8050  0.1598 -1.3461
18770TIP3   OH277724   0.265   1.290  11.129  0.1645  0.1805  0.7291
18770TIP3    H177725   0.290   1.246  11.048  0.9980  0.0343  1.0530
18770TIP3    H277726   0.202   1.231  11.170  0.3927 -0.1607  0.5965
18771TIP3   OH277727   5.217   0.430  11.560  0.4086 -0.5556 -0.8086
18771TIP3    H177728   5.272   0.439  11.637 -0.6470 -0.4772 -0.0333
18771TIP3    H277729   5.232   0.341  11.529  2.2858  0.0156 -1.6884
18772TIP3   OH277730   3.723   2.567   0.090  0.1247  0.4140  0.0418
18772TIP3    H177731   3.805   2.617   0.096 -0.0735  0.6021  1.9209
18772TIP3    H277732   3.665   2.610   0.153 -1.4916  0.3698 -1.3501
18773TIP3   OH277733   0.037   6.460  11.284 -0.2997  0.0650  0.0909
18773TIP3    H177734   0.074   6.538  11.243  0.2983 -0.3515 -0.1684
18773TIP3    H277735  -0.011   6.416  11.214 -0.4908  0.1056  0.1946
18774TIP3   OH277736   2.029   0.898   2.160 -0.9753 -0.5414 -0.3686
18774TIP3    H177737   1.988   0.984   2.172  0.1989 -0.1978  1.6418
18774TIP3    H277738   2.116   0.918   2.124 -1.1113 -1.0017 -0.9822
18775TIP3   OH277739   4.590   2.798   3.826 -0.9095 -0.0103  0.1805
18775TIP3    H177740   4.618   2.843   3.747 -2.6125 -0.7299 -0.8897
18775TIP3    H277741   4.637   2.715   3.824 -3.3939 -1.5131 -1.9738
18776TIP3   OH277742   2.354   0.358  15.941 -0.2330  0.8512 -0.5507
18776TIP3    H177743   2.413   0.293  15.904  0.2788  0.3883  0.9826
18776TIP3    H277744   2.398   0.389  16.020 -2.3339 -0.1209  1.1309
18777TIP3   OH277745   2.788   1.981   1.519  0.0648  0.2147  0.6897
18777TIP3    H177746   2.831   2.044   1.463 -1.2988  0.7093  0.1668
18777TIP3    H277747   2.719   1.943   1.465 -0.0726 -0.6711  1.4510
18778TIP3   OH277748   3.594   1.800  16.994 -0.3947  0.0723 -0.2840
18778TIP3    H177749   3.636   1.863  16.935 -0.3381 -0.4327 -0.7839
18778TIP3    H277750   3.531   1.853  17.044 -0.9759  0.3688 -1.3114
18779TIP3   OH277751   5.484   1.572   4.278 -0.2050  0.3230  0.3434
18779TIP3    H177752   5.427   1.499   4.255  1.3642 -0.6134 -0.8399
18779TIP3    H277753   5.510   1.610   4.194  1.2190  0.4429  0.8019
18780TIP3   OH277754   1.171   4.716   4.760 -0.1780  0.3852 -0.1534
18780TIP3    H177755   1.251   4.754   4.725  0.1066 -0.3763 -0.3593
18780TIP3    H277756   1.177   4.730   4.855 -0.1715  1.0048 -0.2414
18781TIP3   OH277757   3.928   1.800   2.884  0.2265  0.2431  0.0605
18781TIP3    H177758   4.014   1.820   2.920  0.2155 -0.9864  0.8366
18781TIP3    H277759   3.868   1.807   2.959 -0.5977  2.3159 -0.7084
18782TIP3   OH277760   1.602   5.655   3.854 -0.2220 -0.4849 -0.5256
18782TIP3    H177761   1.600   5.569   3.812 -0.5567 -0.3751 -0.7451
18782TIP3    H277762   1.515   5.665   3.892 -0.0357 -0.4315 -0.1149
18783TIP3   OH277763   1.454   5.017  14.423 -0.1292  0.5635  0.4935
18783TIP3    H177764   1.404   5.095  14.403  0.0840  0.1821 -1.7057
18783TIP3    H277765   1.391   4.946  14.420  0.2296  0.2693 -0.8304
18784TIP3   OH277766   6.298   6.115  12.944 -0.3874  0.6050 -0.0440
18784TIP3    H177767   6.317   6.138  12.853 -0.8097 -0.7485 -0.4962
18784TIP3    H277768   6.240   6.040  12.939 -1.8932  1.5934  1.3508
18785TIP3   OH277769   0.447   1.205   2.581 -0.1342  0.1809 -0.1350
18785TIP3    H177770   0.415   1.265   2.513 -1.1663 -0.7510 -0.4927
18785TIP3    H277771   0.429   1.118   2.547 -2.1738 -0.3150  2.0059
18786TIP3   OH277772   0.019   4.698  12.410 -0.0782  0.3523  0.0537
18786TIP3    H177773  -0.035   4.756  12.464 -1.6560 -1.1870  0.2249
18786TIP3    H277774  -0.042   4.630  12.381  1.0387  0.3978 -2.5916
18787TIP3   OH277775   0.344   2.400   2.545 -0.5973 -0.1857  0.2385
18787TIP3    H177776   0.273   2.398   2.609 -0.6336  0.0051  0.2051
18787TIP3    H277777   0.374   2.491   2.545 -0.5991 -0.1847 -0.0169
18788TIP3   OH277778   4.908   0.137   0.684  0.3230 -0.1917 -0.1732
18788TIP3    H177779   4.816   0.132   0.659  0.3482 -0.3752 -0.2278
18788TIP3    H277780   4.924   0.231   0.698 -0.4117 -0.3445  1.9188
18789TIP3   OH277781   6.069   5.562   2.633  0.7534 -0.1948  0.1955
18789TIP3    H177782   6.018   5.538   2.711  1.4319  0.7110  0.9442
18789TIP3    H277783   6.142   5.500   2.632 -0.2605 -1.4208 -0.8133
18790TIP3   OH277784   2.299   2.534   2.228  0.0251  0.4782  0.0900
18790TIP3    H177785   2.250   2.613   2.204 -3.4666 -0.5019  3.0281
18790TIP3    H277786   2.267   2.467   2.169  0.6206  0.5787 -0.3548
18791TIP3   OH277787   6.602   2.041   4.557 -0.3985  0.0782 -0.2714
18791TIP3    H177788   6.588   2.004   4.470 -1.2150  0.0444 -0.1268
18791TIP3    H277789   6.677   1.993   4.592 -0.4532 -0.3280 -0.7162
18792TIP3   OH277790   0.711   4.975  11.308 -0.2740 -0.0141 -0.0045
18792TIP3    H177791   0.766   4.940  11.238  0.5121 -0.2481  0.7151
18792TIP3    H277792   0.652   5.036  11.264 -0.1788 -0.5840 -0.9514
18793TIP3   OH277793   5.368   0.301  14.960  0.1596  0.5150 -0.3095
18793TIP3    H177794   5.412   0.326  14.879  2.1878  0.0659  0.5933
18793TIP3    H277795   5.421   0.339  15.030 -0.6956 -0.3329  0.8602
18794TIP3   OH277796   2.323   1.678   0.098  0.1534  0.2568 -0.0892
18794TIP3    H177797   2.382   1.689   0.173  0.7940  0.0790 -0.5660
18794TIP3    H277798   2.250   1.738   0.116  0.0608 -0.1330  0.9171
18795TIP3   OH277799   2.105   6.468   1.000 -0.0584  0.0283  0.4131
18795TIP3    H177800   2.054   6.422   1.066  0.5525 -0.2205  0.7170
18795TIP3    H277801   2.050   6.467   0.922  0.8501 -3.3498 -0.3555
18796TIP3   OH277802   3.355   3.412   5.656  1.2742 -0.4092 -0.2816
18796TIP3    H177803   3.291   3.350   5.691  2.5428 -0.2587  2.5818
18796TIP3    H277804   3.350   3.488   5.714  3.8520 -0.3174 -0.0408
18797TIP3   OH277805   4.658   0.908  14.385  0.5674  0.2465 -0.3005
18797TIP3    H177806   4.594   0.978  14.366  1.4549  0.8943 -0.9745
18797TIP3    H277807   4.712   0.944  14.454  2.0953  0.9591 -1.7867
18798TIP3   OH277808   0.610   2.999   1.942  0.1251  0.4137 -0.5789
18798TIP3    H177809   0.578   3.089   1.933 -0.5456  0.3513  0.9163
18798TIP3    H277810   0.693   2.999   1.896 -1.2776  0.9753 -3.3279
18799TIP3   OH277811   5.136   3.323  12.693 -0.0876 -0.4403 -0.1372
18799TIP3    H177812   5.143   3.417  12.706  0.8595 -0.4648 -0.4268
18799TIP3    H277813   5.049   3.310  12.655  0.1021  0.4060 -0.8769
18800TIP3   OH277814   2.005   6.759   6.017  0.1443  0.5468 -0.2992
18800TIP3    H177815   2.033   6.849   6.037 -1.1094  1.6946 -3.0991
18800TIP3    H277816   2.028   6.747   5.925 -1.1293 -1.4368 -0.4210
18801TIP3   OH277817   4.834   5.771   4.864  0.1889 -0.0212 -0.3911
18801TIP3    H177818   4.788   5.827   4.926 -1.9536  0.3482 -2.1766
18801TIP3    H277819   4.898   5.723   4.917  0.0350  1.9144  1.6655
18802TIP3   OH277820   2.743   4.654  17.208 -0.0437 -0.0008  0.0871
18802TIP3    H177821   2.736   4.735  17.157  1.7783  0.5127  0.5644
18802TIP3    H277822   2.755   4.585  17.143 -3.2586 -0.2082 -0.4368
18803TIP3   OH277823   3.075   5.069   1.220 -0.3882 -0.0727 -0.0217
18803TIP3    H177824   3.006   5.021   1.174  0.2713 -0.8703 -0.1823
18803TIP3    H277825   3.090   5.147   1.165 -0.0011 -0.7296 -0.8667
18804TIP3   OH277826   3.653   0.391   4.603  0.1638 -0.3612 -0.3572
18804TIP3    H177827   3.679   0.462   4.544  0.9587 -0.2621  0.1102
18804TIP3    H277828   3.720   0.324   4.592 -0.0744 -0.6466 -0.0941
18805TIP3   OH277829   3.378   5.111  11.584  0.4326 -0.2092 -0.1176
18805TIP3    H177830   3.289   5.086  11.607  0.5744 -1.5985 -0.9556
18805TIP3    H277831   3.376   5.207  11.582 -0.4752 -0.1311  1.9528
18806TIP3   OH277832   4.936   5.041  14.538 -0.4366 -0.2125 -0.2179
18806TIP3    H177833   4.995   5.064  14.466 -0.6670  1.5048  0.0812
18806TIP3    H277834   4.890   4.963  14.508  0.1915 -0.1158 -1.5148
18807TIP3   OH277835   1.682   5.290  12.568  0.1168  0.0782 -0.0054
18807TIP3    H177836   1.647   5.204  12.545 -0.1710  0.1150  0.2919
18807TIP3    H277837   1.746   5.309  12.499  2.4759 -1.7109  1.5035
18808TIP3   OH277838   5.549   0.620  15.954 -0.1876  0.6339  0.5701
18808TIP3    H177839   5.567   0.610  16.047  0.8833  2.2325  0.5845
18808TIP3    H277840   5.610   0.559  15.911  0.4015  1.0015  0.8741
18809TIP3   OH277841   0.607   2.144   2.072 -0.1153  0.5440 -0.0660
18809TIP3    H177842   0.568   2.086   2.007  1.1760  0.4311 -0.7761
18809TIP3    H277843   0.663   2.203   2.020 -0.7180  1.8459  0.7293
18810TIP3   OH277844   2.800   2.032  15.344 -0.5007  0.0212  0.2705
18810TIP3    H177845   2.754   1.962  15.390  0.3209 -1.4474 -1.0526
18810TIP3    H277846   2.815   2.099  15.411  0.5094 -1.9354  2.1123
18811TIP3   OH277847   2.965   4.691  14.678 -0.1869 -0.4679  0.6359
18811TIP3    H177848   3.000   4.778  14.698  1.1723 -0.8704  0.1309
18811TIP3    H277849   2.896   4.677  14.743 -0.3369  0.9304  0.7998
18812TIP3   OH277850   0.228   5.379  16.769  0.2925 -0.0209  0.3077
18812TIP3    H177851   0.247   5.287  16.789 -0.2210 -0.2043 -0.0325
18812TIP3    H277852   0.182   5.376  16.685  0.1275  0.5352  0.3772
18813TIP3   OH277853   0.278   6.551  13.694 -0.4027  0.4060 -0.5917
18813TIP3    H177854   0.218   6.476  13.692 -1.2667  1.0769 -0.2452
18813TIP3    H277855   0.363   6.513  13.716 -0.7889 -0.4999 -0.6171
18814TIP3   OH277856   1.898   5.516   1.846 -0.1856  0.2204 -0.4317
18814TIP3    H177857   1.931   5.448   1.788 -0.6710  0.5331 -1.0881
18814TIP3    H277858   1.968   5.581   1.849  1.2167 -1.2624  1.9256
18815TIP3   OH277859   4.857   1.103   1.201 -0.0423 -0.2207  0.4528
18815TIP3    H177860   4.876   1.070   1.113  0.1105  1.9997 -0.4346
18815TIP3    H277861   4.881   1.196   1.197 -0.4482  0.0421  2.7299
18816TIP3   OH277862   2.387   4.423  11.688 -0.1030  0.0120  0.5619
18816TIP3    H177863   2.475   4.390  11.670  0.6648  2.4251 -0.4981
18816TIP3    H277864   2.365   4.475  11.611 -2.0601  0.2979  1.2626
18817TIP3   OH277865   3.373   1.892  10.326  0.1485  0.3827 -0.4566
18817TIP3    H177866   3.445   1.956  10.320  1.3663 -0.3276  3.6631
18817TIP3    H277867   3.415   1.808  10.309 -0.1174  0.1297  0.1360
18818TIP3   OH277868   1.780   0.708  16.892  0.2556 -0.1376 -0.3672
18818TIP3    H177869   1.718   0.709  16.819 -0.6229 -0.1195  0.3528
18818TIP3    H277870   1.800   0.800  16.908  3.3009 -0.2045 -2.8634
18819TIP3   OH277871   1.278   3.916   6.177 -0.4771 -0.8756 -0.1947
18819TIP3    H177872   1.295   3.922   6.271  1.6215  0.7668 -0.6167
18819TIP3    H277873   1.360   3.883   6.140 -0.2156  1.2886 -1.7074
18820TIP3   OH277874   4.487   6.612   0.579  0.3539 -0.2977  0.4922
18820TIP3    H177875   4.511   6.670   0.650 -0.2505  3.6614 -2.2249
18820TIP3    H277876   4.568   6.598   0.530 -0.0089  0.7220 -0.4430
18821TIP3   OH277877   0.782   1.044   1.393  0.3693 -0.1214 -0.3174
18821TIP3    H177878   0.746   1.100   1.325  0.5982  1.4087  0.7538
18821TIP3    H277879   0.838   1.102   1.445  1.1485 -1.5033  0.4629
18822TIP3   OH277880   3.616   3.849  11.141 -0.3985  0.0363  0.3198
18822TIP3    H177881   3.637   3.756  11.141 -0.4014  0.0360 -0.1377
18822TIP3    H277882   3.554   3.860  11.069  0.3019  0.5467 -0.2173
18823TIP3   OH277883   0.024   3.389  11.560  0.7778 -0.5569  0.0110
18823TIP3    H177884  -0.037   3.401  11.633  1.7619 -1.2364  0.9774
18823TIP3    H277885   0.062   3.302  11.575  0.6770 -0.8995 -1.5640
18824TIP3   OH277886   1.063   5.618  15.997 -0.4269 -0.1748  0.0258
18824TIP3    H177887   1.052   5.626  15.903 -1.4446 -1.4136  0.0113
18824TIP3    H277888   0.988   5.567  16.026  0.1695 -0.3090  1.4342
18825TIP3   OH277889   6.079   0.687   4.371  0.0297  0.6350  0.0256
18825TIP3    H177890   6.090   0.740   4.292  0.2317 -0.6296 -0.8151
18825TIP3    H277891   6.007   0.729   4.417  0.3226  1.7738 -0.4920
18826TIP3   OH277892   1.928   1.759  11.393 -0.2090  0.1561  0.0168
18826TIP3    H177893   1.906   1.792  11.480  1.0962  0.5818  0.2198
18826TIP3    H277894   1.874   1.811  11.334  1.4534  2.4648  0.3678
18827TIP3   OH277895   0.467   1.900  11.302  0.3295  0.2309 -0.1053
18827TIP3    H177896   0.423   1.816  11.310  0.4902  0.1123 -0.4701
18827TIP3    H277897   0.521   1.907  11.381 -0.6376  0.5540  0.5482
18828TIP3   OH277898   0.854   6.510   0.031 -0.3789 -0.1509  0.1704
18828TIP3    H177899   0.815   6.517  -0.056  0.6297  1.7346 -0.1802
18828TIP3    H277900   0.873   6.417   0.041 -1.0715 -0.4872 -1.3705
18829TIP3   OH277901   3.871   4.330   0.019 -0.3805  0.0610 -0.1505
18829TIP3    H177902   3.943   4.382   0.055 -0.2881 -0.3841  0.3202
18829TIP3    H277903   3.806   4.327   0.089 -0.3258 -0.5716 -0.1221
18830TIP3   OH277904   0.891   3.088  12.706 -0.0367  0.1804 -0.0742
18830TIP3    H177905   0.961   3.071  12.769 -0.7307 -2.6794  0.0683
18830TIP3    H277906   0.811   3.093  12.760 -0.6345 -2.2692 -0.6078
18831TIP3   OH277907   2.100   5.856   0.616 -0.2036  0.4507 -0.2447
18831TIP3    H177908   2.144   5.940   0.628 -0.1351  0.7206 -2.0034
18831TIP3    H277909   2.162   5.803   0.566 -0.2756 -0.6391  0.7932
18832TIP3   OH277910   1.456   0.022  13.539  0.3921 -0.1691  0.1741
18832TIP3    H177911   1.540   0.028  13.583  0.1675 -0.3414  0.6412
18832TIP3    H277912   1.455   0.095  13.476  0.9297 -0.2400  0.0874
18833TIP3   OH277913   0.292   4.316  11.985 -0.3102  0.3850 -0.0983
18833TIP3    H177914   0.234   4.347  11.916 -2.2624  2.3541  2.2213
18833TIP3    H277915   0.332   4.395  12.019  1.8268 -0.7032  0.0640
18834TIP3   OH277916   5.547   5.688   3.661  0.0332 -0.0699  0.0200
18834TIP3    H177917   5.518   5.777   3.681  1.5405  0.2379  0.9978
18834TIP3    H277918   5.472   5.633   3.683 -0.6575  0.8887  0.1255
18835TIP3   OH277919   4.023   3.111  12.973  0.4356 -0.2086 -0.5077
18835TIP3    H177920   4.039   3.052  13.047 -0.0355 -0.2231 -0.4147
18835TIP3    H277921   4.107   3.116  12.928  0.4923 -0.9210 -0.4903
18836TIP3   OH277922   2.248   2.293   6.016 -0.0004  0.2236 -0.6924
18836TIP3    H177923   2.303   2.248   6.080 -0.1978  1.4775  0.3880
18836TIP3    H277924   2.178   2.231   5.996  0.2367 -0.2933  0.0644
18837TIP3   OH277925   6.647   0.108   0.049 -0.2493  0.1418  0.0302
18837TIP3    H177926   6.561   0.121   0.090 -0.4077 -0.4345 -0.1131
18837TIP3    H277927   6.690   0.044   0.106 -0.5507 -0.8284 -0.8182
18838TIP3   OH277928   2.527   0.957   5.320 -0.2936 -0.0406  0.4819
18838TIP3    H177929   2.564   0.896   5.384  0.8924 -0.0929 -0.2337
18838TIP3    H277930   2.508   1.036   5.371 -4.7418 -1.8352  2.1533
18839TIP3   OH277931   4.515   1.748   0.267 -0.0103  0.0650 -0.4081
18839TIP3    H177932   4.606   1.757   0.296  0.4229  1.0476 -1.9434
18839TIP3    H277933   4.507   1.810   0.194 -1.6660 -0.6342 -0.8620
18840TIP3   OH277934   0.364   3.939  13.296  0.2629 -0.0112 -0.2559
18840TIP3    H177935   0.376   3.922  13.203 -0.4379 -1.8186 -0.0658
18840TIP3    H277936   0.427   3.881  13.340  0.5060  0.7320  0.4170
18841TIP3   OH277937   3.920   1.873  16.757  0.7560 -0.0088  0.1820
18841TIP3    H177938   3.961   1.845  16.839 -0.7422 -1.0942  0.6138
18841TIP3    H277939   3.960   1.958  16.738  1.9758 -0.2683  1.4201
18842TIP3   OH277940   4.034   5.598   5.225  0.2000  0.1039  0.1090
18842TIP3    H177941   4.060   5.572   5.313  0.8121 -0.3343 -0.1884
18842TIP3    H277942   3.940   5.582   5.221 -0.0666  1.2924  1.0731
18843TIP3   OH277943   2.758   3.296   0.664  0.0391  0.0936 -0.0460
18843TIP3    H177944   2.825   3.270   0.727 -1.5470 -1.8847  0.9064
18843TIP3    H277945   2.746   3.390   0.679  1.0888  0.0466  1.2244
18844TIP3   OH277946   6.635   5.796   4.113 -0.1617  0.0505  0.1140
18844TIP3    H177947   6.540   5.806   4.108 -0.1143  0.8984  0.6043
18844TIP3    H277948   6.669   5.867   4.058  0.1976 -1.1489 -1.2817
18845TIP3   OH277949   3.400   2.146   1.940  0.0139  0.1854 -0.1107
18845TIP3    H177950   3.409   2.095   1.859  0.6131  0.3738 -0.1637
18845TIP3    H277951   3.478   2.126   1.990  1.0876  2.2603 -0.8189
18846TIP3   OH277952   4.585   2.898   4.745 -0.2419 -0.4029  0.3087
18846TIP3    H177953   4.533   2.908   4.825 -1.2880 -1.3124 -0.2183
18846TIP3    H277954   4.621   2.985   4.728 -0.9628  0.0752  1.1382
18847TIP3   OH277955   1.178   2.593   3.021  0.2120  0.9768  0.6143
18847TIP3    H177956   1.270   2.604   3.044  0.6077  2.1457 -1.2901
18847TIP3    H277957   1.173   2.505   2.983  0.6406  1.0879  0.2937
18848TIP3   OH277958   3.291   4.220   3.547 -0.2126  0.9510 -1.0110
18848TIP3    H177959   3.364   4.163   3.523  0.6029  2.1065 -1.3520
18848TIP3    H277960   3.331   4.289   3.600 -1.6710 -0.5424  2.3545
18849TIP3   OH277961   0.305   4.263   6.563 -0.1251 -0.2512 -0.3122
18849TIP3    H177962   0.347   4.177   6.571 -0.2581 -0.5116 -1.9695
18849TIP3    H277963   0.371   4.324   6.596 -0.8555 -1.0777  3.0393
18850TIP3   OH277964   5.432   6.113  14.908 -0.5244  0.1859 -0.1540
18850TIP3    H177965   5.412   6.204  14.886  0.3763  0.3634 -0.2736
18850TIP3    H277966   5.505   6.089  14.850  0.7586  0.1139  1.4073
18851TIP3   OH277967   5.249   5.784   4.371 -0.1969  0.1016  0.2443
18851TIP3    H177968   5.208   5.779   4.285  0.9301  1.1466 -0.3862
18851TIP3    H277969   5.178   5.808   4.430 -0.9211 -0.2993 -0.4487
18852TIP3   OH277970   5.675   2.672   0.717  0.2622  0.2983  0.0868
18852TIP3    H177971   5.713   2.746   0.765  0.4835 -0.3735  0.9675
18852TIP3    H277972   5.749   2.630   0.674  0.5302 -0.9173  1.6756
18853TIP3   OH277973   0.288   3.573   1.862 -0.0926 -0.3368  0.1477
18853TIP3    H177974   0.337   3.559   1.944 -1.3443  1.0537  1.1797
18853TIP3    H277975   0.205   3.527   1.876 -0.3593  0.0096 -0.2851
18854TIP3   OH277976   4.259   4.514   2.134 -0.0245  0.3155  0.3514
18854TIP3    H177977   4.207   4.547   2.061 -0.3625 -0.3913  0.2599
18854TIP3    H277978   4.329   4.463   2.093 -2.2209 -3.1403  0.4604
18855TIP3   OH277979   0.370   1.556   6.482 -0.2536  0.5943  0.0828
18855TIP3    H177980   0.371   1.650   6.498 -0.2966  0.4501  0.9729
18855TIP3    H277981   0.285   1.539   6.443 -0.6566  0.7792  0.8665
18856TIP3   OH277982   5.885   4.957  14.984 -0.2132  0.1636 -1.0784
18856TIP3    H177983   5.837   4.999  15.056 -0.0569 -0.7101 -0.4383
18856TIP3    H277984   5.911   5.029  14.927  0.7392  1.0447  0.3954
18857TIP3   OH277985   3.456   6.706   2.199 -0.6359  0.0283  0.3930
18857TIP3    H177986   3.508   6.645   2.252 -2.4750 -0.8900  1.2224
18857TIP3    H277987   3.450   6.785   2.253  0.2437  0.3287  0.0830
18858TIP3   OH277988   2.346   4.605   3.828  0.2777 -0.0308  0.2483
18858TIP3    H177989   2.308   4.613   3.915 -3.8117  0.6857 -1.4208
18858TIP3    H277990   2.352   4.695   3.795  2.0635 -0.2586 -0.1657
18859TIP3   OH277991   3.189   6.260   4.806 -0.1851 -0.2194 -0.1772
18859TIP3    H177992   3.209   6.333   4.748  2.6588 -0.5583  0.2351
18859TIP3    H277993   3.168   6.300   4.890  1.3061  0.1686  0.0339
18860TIP3   OH277994   4.290   1.907  13.344  0.9594 -0.0733  0.2222
18860TIP3    H177995   4.318   1.893  13.434 -0.6740 -0.4487  0.7143
18860TIP3    H277996   4.214   1.849  13.333  0.2510  1.0069 -0.9244
18861TIP3   OH277997   1.148   0.720  16.100 -0.2503 -0.6561  0.3660
18861TIP3    H177998   1.235   0.709  16.061 -0.0197 -0.3239  0.7763
18861TIP3    H277999   1.089   0.672  16.042  0.2116 -0.9087  0.1030
18862TIP3   OH278000   3.472   3.501   2.960  0.4680 -0.0197  0.3413
18862TIP3    H178001   3.483   3.494   2.865  0.5794 -2.2755  0.4594
18862TIP3    H278002   3.379   3.484   2.975  0.6859 -0.9828  0.6944
18863TIP3   OH278003   6.685   0.037   5.758 -0.4345 -0.1897  0.4886
18863TIP3    H178004   6.611   0.097   5.771 -0.4953  0.0066 -0.7094
18863TIP3    H278005   6.761   0.094   5.746 -0.3863 -0.3614 -0.0266
18864TIP3   OH278006   6.191   1.601   2.485  0.6186 -0.3448 -0.7437
18864TIP3    H178007   6.143   1.675   2.449 -0.0052  0.0897  0.8696
18864TIP3    H278008   6.222   1.632   2.570  1.4014 -1.5357 -0.5697
18865TIP3   OH278009   5.356   0.431  15.592  0.3367 -0.1510  0.8185
18865TIP3    H178010   5.388   0.446  15.503 -2.1441  0.3251 -0.0870
18865TIP3    H278011   5.407   0.356  15.623  1.9669  0.2984 -0.5947
18866TIP3   OH278012   5.473   4.677   4.156  0.2838  0.1632  0.1066
18866TIP3    H178013   5.471   4.769   4.130  1.1174  0.5793  1.4227
18866TIP3    H278014   5.555   4.644   4.119 -0.0385 -0.0700 -0.4055
18867TIP3   OH278015   4.044   6.119  10.752 -0.4883 -0.0865  0.5468
18867TIP3    H178016   4.006   6.066  10.682 -1.7480  1.0040  0.3695
18867TIP3    H278017   3.988   6.103  10.828 -1.2286  1.3657  0.3411
18868TIP3   OH278018   0.946   5.242   1.029  0.0287 -0.6336  0.6459
18868TIP3    H178019   0.987   5.282   1.106  1.3387 -0.9809  0.1521
18868TIP3    H278020   1.017   5.237   0.964 -1.2150  0.3019 -0.8482
18869TIP3   OH278021   5.429   6.758   2.588  0.4526 -0.5882 -0.2224
18869TIP3    H178022   5.358   6.739   2.648  1.8662  0.0652  1.7656
18869TIP3    H278023   5.403   6.840   2.545 -0.6097 -1.1155 -0.6304
18870TIP3   OH278024   1.360   5.890  11.749  0.1344  0.4876  0.2590
18870TIP3    H178025   1.297   5.957  11.722 -1.7674 -0.4688  2.0333
18870TIP3    H278026   1.307   5.822  11.790  2.1854 -1.2542  0.2214
18871TIP3   OH278027   2.437   3.314  14.698 -0.3068  0.0408  0.2158
18871TIP3    H178028   2.434   3.231  14.650 -0.1355 -0.2649  0.7307
18871TIP3    H278029   2.363   3.308  14.759 -0.3567  0.3111  0.1796
18872TIP3   OH278030   5.894   1.304   3.814  0.2415 -0.6576  0.1199
18872TIP3    H178031   5.942   1.254   3.880 -0.2768 -1.0969  0.1760
18872TIP3    H278032   5.843   1.368   3.864 -0.4987 -1.2885  0.1893
18873TIP3   OH278033   4.095   4.081   2.672 -0.1216  0.0125 -0.6714
18873TIP3    H178034   4.021   4.131   2.706  0.5458  1.4352 -1.2274
18873TIP3    H278035   4.101   4.004   2.729 -1.1339  0.5970  0.2499
18874TIP3   OH278036   4.375   0.112  10.609  0.2903 -0.3122 -0.2901
18874TIP3    H178037   4.458   0.159  10.610 -0.3095  0.8782 -2.2963
18874TIP3    H278038   4.310   0.175  10.640  0.2186 -1.6708  2.7646
18875TIP3   OH278039   6.790   5.625   0.020 -0.4838 -0.1884  0.1084
18875TIP3    H178040   6.739   5.690   0.069  0.0205  0.2323  0.0917
18875TIP3    H278041   6.869   5.613   0.073 -0.3522 -0.4164 -0.1395
18876TIP3   OH278042   3.768   0.964  13.557  0.2527 -0.5656 -0.4308
18876TIP3    H178043   3.791   0.978  13.649 -0.2205 -0.8626 -0.2660
18876TIP3    H278044   3.677   0.993  13.550 -0.8018 -3.4492 -0.0687
18877TIP3   OH278045   1.675   2.443   4.529 -0.1067 -0.7266  0.6188
18877TIP3    H178046   1.623   2.450   4.610 -1.2036 -0.1184 -0.1117
18877TIP3    H278047   1.612   2.416   4.463  0.7894 -1.2296 -0.0421
18878TIP3   OH278048   2.215   6.370   2.088  0.2578 -0.1635 -0.5931
18878TIP3    H178049   2.241   6.278   2.091  1.0886  0.0814  0.1822
18878TIP3    H278050   2.296   6.416   2.066 -0.3817  0.3105 -2.1054
18879TIP3   OH278051   6.321   0.453   3.613 -0.2471  0.5012 -0.1358
18879TIP3    H178052   6.292   0.369   3.649  0.8039 -0.8204 -2.1523
18879TIP3    H278053   6.351   0.503   3.688  2.2268 -2.2389  0.8816
18880TIP3   OH278054   6.573   5.004   3.660  0.3628 -0.2579 -0.7459
18880TIP3    H178055   6.664   5.028   3.676  1.2463 -2.7833 -1.3656
18880TIP3    H278056   6.527   5.086   3.644  2.3555  1.1313  0.3974
18881TIP3   OH278057   2.353   6.248  13.801  0.5005  0.2225 -0.3510
18881TIP3    H178058   2.259   6.264  13.795 -0.1455 -2.7692  0.3594
18881TIP3    H278059   2.381   6.232  13.711 -0.0277 -0.5410 -0.3830
18882TIP3   OH278060   4.352   1.657   0.939 -0.0887  0.6131  0.7231
18882TIP3    H178061   4.266   1.636   0.977  0.0357 -1.6881 -0.0989
18882TIP3    H278062   4.414   1.639   1.010 -0.0954 -0.7230  0.4248
18883TIP3   OH278063   6.620   4.904  10.708  0.0517 -0.2024  0.4864
18883TIP3    H178064   6.640   4.864  10.624 -1.0332  0.1071  0.0581
18883TIP3    H278065   6.588   4.831  10.762  0.7687 -0.4045  0.6498
18884TIP3   OH278066   4.842   0.989   0.426  0.1212 -0.3568 -0.2347
18884TIP3    H178067   4.863   0.920   0.488  2.9786 -0.5015 -1.2399
18884TIP3    H278068   4.867   1.070   0.471  1.8815 -0.4382 -0.9842
18885TIP3   OH278069   1.497   0.069   3.004 -0.0406  0.1945  0.1437
18885TIP3    H178070   1.526   0.061   2.914  1.6823  2.1233  0.4344
18885TIP3    H278071   1.540  -0.003   3.050  0.9824  0.5684 -0.1948
18886TIP3   OH278072   6.417   3.924   3.337  0.2444  0.4786  0.0234
18886TIP3    H178073   6.468   3.852   3.299 -1.5548  0.7336 -3.2721
18886TIP3    H278074   6.327   3.890   3.340 -0.5347  2.3096 -1.0146
18887TIP3   OH278075   3.860   5.863  13.973  0.1425  0.6597 -0.2363
18887TIP3    H178076   3.850   5.793  14.038  0.1885 -2.6682 -3.4556
18887TIP3    H278077   3.954   5.864  13.953 -0.1281  0.0611 -1.6905
18888TIP3   OH278078   0.489   5.530  11.317 -0.6622  0.2808  0.1672
18888TIP3    H178079   0.470   5.472  11.244 -1.0973  0.2847  0.2692
18888TIP3    H278080   0.477   5.475  11.395  1.3249 -0.1456  0.2084
18889TIP3   OH278081   4.987   2.249   1.317 -0.6620 -0.5715 -0.2507
18889TIP3    H178082   5.074   2.288   1.305 -1.4278  0.6477 -2.2516
18889TIP3    H278083   4.979   2.238   1.412  0.5019  2.1014  0.2327
18890TIP3   OH278084   0.338   0.479  13.036 -0.0748 -0.3665  0.5257
18890TIP3    H178085   0.338   0.384  13.026 -1.6521 -0.6475  2.6576
18890TIP3    H278086   0.359   0.494  13.128  0.9881  1.4173  0.0572
18891TIP3   OH278087   5.412   5.547   1.126 -0.1440  0.1662  0.8533
18891TIP3    H178088   5.438   5.477   1.066  1.8377 -0.1300  1.9880
18891TIP3    H278089   5.426   5.628   1.076  2.6362 -0.0038  1.2034
18892TIP3   OH278090   1.642   5.550  12.685  0.0299  0.1020  0.3905
18892TIP3    H178091   1.580   5.581  12.618  2.4254  0.5165 -1.8119
18892TIP3    H278092   1.667   5.462  12.654 -0.3108 -0.5504  1.9037
18893TIP3   OH278093   3.695   0.416   0.803 -0.5874  0.1237 -0.0786
18893TIP3    H178094   3.770   0.462   0.840 -0.4581  0.5747 -0.8688
18893TIP3    H278095   3.726   0.387   0.717 -1.3627  0.4570 -0.4792
18894TIP3   OH278096   6.312   6.442  13.536  0.3066 -0.0890 -0.0727
18894TIP3    H178097   6.405   6.431  13.513  0.1840 -0.8628 -0.2409
18894TIP3    H278098   6.268   6.370  13.490  0.0322 -1.7620  2.5947
18895TIP3   OH278099   2.076   5.751  14.180 -0.1448  0.4182 -0.4311
18895TIP3    H178100   2.048   5.682  14.119 -1.2943 -1.8117  2.3964
18895TIP3    H278101   2.121   5.815  14.124 -3.0769 -0.2415 -3.9520
18896TIP3   OH278102   3.769   1.203  12.588  0.3347  0.1156  0.2095
18896TIP3    H178103   3.812   1.171  12.667  0.7800 -0.6593 -0.3280
18896TIP3    H278104   3.821   1.166  12.516 -0.3248  0.4317 -0.4439
18897TIP3   OH278105   6.220   4.106  12.867  0.1197  0.2688 -0.3103
18897TIP3    H178106   6.316   4.109  12.865  0.2336 -0.0716  1.9368
18897TIP3    H278107   6.200   4.037  12.930 -1.5406  2.1185  1.2975
18898TIP3   OH278108   0.496   3.657   0.777  0.3156  0.2119  0.2536
18898TIP3    H178109   0.567   3.636   0.838  1.4468  1.7412 -0.4679
18898TIP3    H278110   0.460   3.739   0.810 -1.6932 -0.9072  1.0471
18899TIP3   OH278111   3.151   6.719  12.716  0.0380 -0.3701 -0.1200
18899TIP3    H178112   3.133   6.798  12.766 -0.4543  0.1193 -1.0583
18899TIP3    H278113   3.066   6.692  12.682  0.1413 -1.4976  0.4528
18900TIP3   OH278114   4.426   5.878   5.138 -0.1062 -0.3934  0.1456
18900TIP3    H178115   4.341   5.845   5.165 -0.2227  0.2511  0.6015
18900TIP3    H278116   4.467   5.909   5.219  0.8036 -1.2203  0.0157
18901TIP3   OH278117   3.284   4.743  12.625 -0.1784  0.0317 -0.0268
18901TIP3    H178118   3.189   4.729  12.622 -0.1658 -0.0264 -0.1659
18901TIP3    H278119   3.308   4.723  12.715 -0.2290 -0.4085 -0.1084
18902TIP3   OH278120   0.292   1.103  14.161 -0.5207 -0.1167  0.0738
18902TIP3    H178121   0.237   1.174  14.128 -1.3255 -1.0593 -0.6986
18902TIP3    H278122   0.256   1.024  14.120 -0.5166 -1.1506  1.9298
18903TIP3   OH278123   4.687   3.913  16.148  0.0889 -0.5472 -0.2281
18903TIP3    H178124   4.675   4.005  16.124  0.0225 -0.6089 -0.4373
18903TIP3    H278125   4.761   3.912  16.209  0.6396 -0.4556 -0.8848
18904TIP3   OH278126   0.763   5.194  11.490  1.4450 -0.2319  0.1093
18904TIP3    H178127   0.830   5.174  11.556  0.3073 -3.2689  0.4965
18904TIP3    H278128   0.767   5.120  11.429  0.8869  1.3539 -1.9823
18905TIP3   OH278129   6.356   4.283   4.586 -0.0992  0.6517 -0.1985
18905TIP3    H178130   6.321   4.287   4.497  0.6822  0.1176 -0.5332
18905TIP3    H278131   6.411   4.361   4.594  1.2616 -0.2105 -0.8112
18906TIP3   OH278132   0.851   3.654   4.510 -0.4120  0.0547 -0.0406
18906TIP3    H178133   0.841   3.725   4.574 -1.9363 -0.8360  0.7688
18906TIP3    H278134   0.931   3.608   4.537 -1.4481 -0.7838  1.7766
18907TIP3   OH278135   5.727   1.849   3.823 -0.0455 -0.0152 -0.0762
18907TIP3    H178136   5.821   1.852   3.805  0.1170 -1.6120  0.3498
18907TIP3    H278137   5.701   1.941   3.833  1.4503  0.4503 -0.2388
18908TIP3   OH278138   0.732   2.188   3.245 -0.0498  0.6819  0.8248
18908TIP3    H178139   0.637   2.178   3.234 -0.2457  1.0144  1.9751
18908TIP3    H278140   0.740   2.253   3.315  1.0236  0.0605  1.2960
18909TIP3   OH278141   1.861   1.027  16.307 -0.0133  0.1445  0.5478
18909TIP3    H178142   1.804   1.095  16.342 -2.0370  0.1017 -2.3018
18909TIP3    H278143   1.908   1.070  16.236 -1.3892 -1.3178 -1.3628
18910TIP3   OH278144   2.378   6.052  12.240 -0.2965  0.0476  0.5436
18910TIP3    H178145   2.338   5.965  12.243 -0.6970  0.2234  0.4104
18910TIP3    H278146   2.314   6.108  12.284 -0.5794  0.4830 -0.3999
18911TIP3   OH278147   2.319   5.991  16.959  0.3280 -0.1928  0.2527
18911TIP3    H178148   2.406   5.955  16.974  0.0411 -1.1905 -0.3858
18911TIP3    H278149   2.321   6.021  16.867 -0.3075 -1.1571 -0.0897
18912TIP3   OH278150   5.776   4.969  11.773  0.1671 -0.1394  0.2390
18912TIP3    H178151   5.749   5.034  11.837  0.5064  1.0768 -0.7970
18912TIP3    H278152   5.872   4.969  11.778  0.1604 -0.8943  0.5303
18913TIP3   OH278153   1.478   6.303  17.063  0.4147 -0.3495 -0.5769
18913TIP3    H178154   1.446   6.310  16.973  0.5838  1.6063 -0.5344
18913TIP3    H278155   1.504   6.392  17.085 -1.5679 -0.3281  2.1284
18914TIP3   OH278156   1.904   2.435   4.408 -0.3381  0.6379  0.2303
18914TIP3    H178157   1.834   2.459   4.468 -0.5174  0.8204 -0.0489
18914TIP3    H278158   1.875   2.468   4.323  0.1280  0.7915  0.1295
18915TIP3   OH278159   6.012   4.378   1.335  0.4760  0.2144 -0.2259
18915TIP3    H178160   6.053   4.384   1.421 -0.5398  0.5366  0.2533
18915TIP3    H278161   6.059   4.307   1.291 -1.3519 -2.5755  1.9620
18916TIP3   OH278162   5.081   3.442  13.418 -0.1936 -0.5714  0.2836
18916TIP3    H178163   5.086   3.469  13.509 -1.6658 -1.0296  0.5236
18916TIP3    H278164   5.088   3.347  13.420  1.9576 -0.4851 -0.3060
18917TIP3   OH278165   4.354   4.528   3.751  0.4568  0.7509  0.5640
18917TIP3    H178166   4.434   4.540   3.700  0.4010  0.3075  0.3637
18917TIP3    H278167   4.286   4.575   3.702  0.4181  0.3864  0.2635
18918TIP3   OH278168   0.978   6.002  11.012  0.4824  0.2942 -0.7712
18918TIP3    H178169   0.899   5.956  10.984  0.3340  1.1806 -1.9171
18918TIP3    H278170   1.050   5.952  10.971  0.3070  1.1746 -2.2293
18919TIP3   OH278171   6.178   3.757  13.759  0.0124 -0.1674 -0.3493
18919TIP3    H178172   6.227   3.838  13.775  0.3235 -0.1636 -1.2787
18919TIP3    H278173   6.246   3.691  13.742 -0.2891 -0.0338 -2.2399
18920TIP3   OH278174   1.382   2.537   5.628 -0.1851 -0.1477  0.5124
18920TIP3    H178175   1.358   2.550   5.536  1.1096  0.4909  0.2274
18920TIP3    H278176   1.310   2.575   5.678 -2.6957 -3.6933 -0.0974
18921TIP3   OH278177   5.687   1.986  13.798  0.1508  0.2190  0.0931
18921TIP3    H178178   5.758   2.012  13.738  1.3029 -0.3078  1.1847
18921TIP3    H278179   5.703   1.893  13.814 -0.0406  0.3951  1.3341
18922TIP3   OH278180   6.207   2.260   0.816  0.1204 -0.7709 -0.0952
18922TIP3    H178181   6.299   2.261   0.791  0.1196 -0.6246 -0.0962
18922TIP3    H278182   6.204   2.311   0.897 -0.1873  0.5916 -0.9261
18923TIP3   OH278183   4.532   1.023   3.719  0.6504  0.2125 -0.4314
18923TIP3    H178184   4.604   0.963   3.699  1.2816  0.5319  0.7880
18923TIP3    H278185   4.575   1.107   3.735 -0.0697  0.5847 -0.4168
18924TIP3   OH278186   3.645   4.318  16.455  0.3138 -0.5318  0.2595
18924TIP3    H178187   3.673   4.251  16.393  1.7269  0.1429  0.1142
18924TIP3    H278188   3.699   4.303  16.533  0.2689  0.1005  0.4185
18925TIP3   OH278189   1.255   5.719  16.940 -0.0888 -0.0299 -0.5989
18925TIP3    H178190   1.201   5.761  16.873  0.4150  1.2704 -0.2210
18925TIP3    H278191   1.193   5.666  16.991 -1.0159  1.3275 -0.2494
18926TIP3   OH278192   2.951   6.510   1.251 -0.0576 -0.2265 -0.2723
18926TIP3    H178193   2.955   6.460   1.170 -2.4794  0.4219 -0.8672
18926TIP3    H278194   2.923   6.448   1.318  1.4868 -0.6554  0.0066
18927TIP3   OH278195   1.174   6.566  11.617  0.2478  0.2494 -0.6787
18927TIP3    H178196   1.136   6.653  11.634  0.0101 -0.0371  0.3017
18927TIP3    H278197   1.262   6.585  11.584 -0.1948  0.8824 -1.5478
18928TIP3   OH278198   2.627   0.002  12.609  0.1918  0.0805  0.1418
18928TIP3    H178199   2.666   0.022  12.523  0.3667 -0.7535  0.0190
18928TIP3    H278200   2.540   0.040  12.605  0.0928 -0.2050 -0.5227
18929TIP3   OH278201   2.766   2.095  15.619 -0.1403  0.2692 -0.3752
18929TIP3    H178202   2.704   2.024  15.601 -0.5766  0.6798 -0.4815
18929TIP3    H278203   2.712   2.170  15.641  0.2962  0.7716 -0.9572
18930TIP3   OH278204   5.212   1.657   4.223 -0.2485  0.4732  0.4980
18930TIP3    H178205   5.245   1.687   4.138  1.8596  0.1090  1.1520
18930TIP3    H278206   5.156   1.582   4.202  0.4210  0.2547 -0.5585
18931TIP3   OH278207   6.631   5.270  12.340  0.1796 -0.3432 -0.2435
18931TIP3    H178208   6.566   5.330  12.301  0.0475 -0.4526 -0.1923
18931TIP3    H278209   6.703   5.327  12.365  2.1148 -0.6377 -4.2821
18932TIP3   OH278210   0.829   5.980  14.065 -0.2765 -0.1732  0.7739
18932TIP3    H178211   0.763   5.932  14.114  0.8234 -1.9628  0.6081
18932TIP3    H278212   0.886   5.912  14.029  0.2496  1.1795 -1.1279
18933TIP3   OH278213   3.064   5.319  16.352  0.3435  0.4625  0.1947
18933TIP3    H178214   3.012   5.399  16.347  0.0992  0.2367 -1.9860
18933TIP3    H278215   3.007   5.250  16.317  1.6491  0.0070 -1.1847
18934TIP3   OH278216   0.321   0.660   1.414 -0.1034 -0.0498 -0.1714
18934TIP3    H178217   0.309   0.565   1.418 -3.1220  0.2535  1.3189
18934TIP3    H278218   0.414   0.672   1.395  0.1521 -3.2748 -1.7112
18935TIP3   OH278219   2.640   3.570   0.083 -0.4800 -0.5760 -0.3787
18935TIP3    H178220   2.589   3.588   0.162 -2.4795 -0.2991 -1.6527
18935TIP3    H278221   2.703   3.504   0.109  0.5682  1.2478  2.0353
18936TIP3   OH278222   3.430   6.132  12.234  0.6254  0.0071 -0.3127
18936TIP3    H178223   3.471   6.056  12.191 -0.2798 -0.5248 -0.2583
18936TIP3    H278224   3.337   6.122  12.215  0.3692  0.4999  0.6586
18937TIP3   OH278225   5.255   1.530   0.573 -0.7202 -0.3637  0.0065
18937TIP3    H178226   5.182   1.564   0.625  0.3661  1.1183  0.6198
18937TIP3    H278227   5.285   1.604   0.521 -0.1381 -1.1575 -0.8177
18938TIP3   OH278228   0.664   6.516  11.944  0.7935  0.2341 -0.4711
18938TIP3    H178229   0.753   6.505  11.977  2.0221  0.0178 -3.4697
18938TIP3    H278230   0.672   6.584  11.877 -1.7245  1.5853  0.4514
18939TIP3   OH278231   3.383   0.029  11.829 -0.0762  0.0711  0.1006
18939TIP3    H178232   3.464   0.074  11.852  0.1647  0.3610 -1.2442
18939TIP3    H278233   3.354  -0.011  11.911  3.3032 -3.1093  0.0011
18940TIP3   OH278234   3.287   0.357  12.626 -0.2283 -0.6024 -0.4092
18940TIP3    H178235   3.293   0.451  12.639 -1.2983 -0.4232 -1.1110
18940TIP3    H278236   3.324   0.342  12.539 -0.0893 -0.8282 -0.3114
18941TIP3   OH278237   1.639   0.677  14.480  0.1900 -0.0833  0.4205
18941TIP3    H178238   1.674   0.686  14.391  0.7246 -1.4717  0.4629
18941TIP3    H278239   1.613   0.766  14.505 -1.9747  0.0446 -1.9042
18942TIP3   OH278240   2.737   1.163   1.199  0.1324  0.0609  0.4126
18942TIP3    H178241   2.783   1.172   1.116 -0.1216 -2.2628 -0.0651
18942TIP3    H278242   2.729   1.068   1.211 -1.2294  0.3622  2.3171
18943TIP3   OH278243   6.514   6.004  12.498 -0.0604 -0.1521  0.3456
18943TIP3    H178244   6.561   6.000  12.415  0.7476  0.3806  0.7592
18943TIP3    H278245   6.469   6.089  12.496 -1.0743 -0.6847 -0.0736
18944TIP3   OH278246   6.059   5.531  11.713 -0.1948 -0.3767 -0.2231
18944TIP3    H178247   6.047   5.616  11.754 -0.1288 -0.2504 -0.4625
18944TIP3    H278248   6.147   5.534  11.676 -0.4849 -0.2393 -0.9330
18945TIP3   OH278249   3.841   4.953   5.007  0.2706 -0.4354  0.0516
18945TIP3    H178250   3.918   4.999   5.041 -0.2985 -0.0409  0.8296
18945TIP3    H278251   3.767   5.011   5.025 -0.2565 -0.9495 -0.3975
18946TIP3   OH278252   3.075   1.690  16.072  0.4997  0.2171 -0.3448
18946TIP3    H178253   3.116   1.756  16.016  0.7940 -0.8556 -1.4422
18946TIP3    H278254   3.015   1.739  16.128  0.4854  1.3743 -1.3467
18947TIP3   OH278255   3.472   5.240  12.112 -0.2814  0.1883 -0.6336
18947TIP3    H178256   3.554   5.222  12.066 -1.6269 -3.6032 -1.8588
18947TIP3    H278257   3.489   5.213  12.203  0.6659  2.3852 -0.0931
18948TIP3   OH278258   3.547   1.542  15.746  0.4307  0.1018 -0.1765
18948TIP3    H178259   3.466   1.530  15.697  0.1297  1.0033  0.0808
18948TIP3    H278260   3.520   1.585  15.827  1.3444  2.1251 -0.8743
18949TIP3   OH278261   1.879   3.567  14.468 -0.3446 -0.2331 -0.6964
18949TIP3    H178262   1.939   3.505  14.426 -0.2771 -1.1275  0.6836
18949TIP3    H278263   1.793   3.528  14.459 -0.1071 -1.4645  1.7090
18950TIP3   OH278264   6.507   0.113  14.822  0.5789  0.2732 -0.0370
18950TIP3    H178265   6.593   0.089  14.856 -0.2032 -0.6536  1.3593
18950TIP3    H278266   6.473   0.177  14.884 -0.4917 -0.7647  0.4919
18951TIP3   OH278267   5.317   1.412   4.923  0.5664  0.2726  0.1464
18951TIP3    H178268   5.401   1.450   4.951  1.1038  1.5183 -2.8051
18951TIP3    H278269   5.330   1.390   4.831 -1.4282 -2.4092  0.3781
18952TIP3   OH278270   6.388   2.967  15.350  0.5560 -0.2305 -0.1768
18952TIP3    H178271   6.457   3.033  15.356  2.1828 -1.8510 -0.2985
18952TIP3    H278272   6.411   2.915  15.274 -0.1833 -1.5028  0.4347
18953TIP3   OH278273   3.429   2.399   2.066 -0.2032  0.0957  0.0287
18953TIP3    H178274   3.438   2.326   2.004  0.0401  0.3918 -0.2894
18953TIP3    H278275   3.517   2.436   2.071 -0.1130 -0.2164  0.9173
18954TIP3   OH278276   4.827   1.547  12.743 -0.5686 -0.1376  0.3341
18954TIP3    H178277   4.780   1.568  12.663 -0.5311 -2.9913 -0.5284
18954TIP3    H278278   4.892   1.618  12.752 -0.7397  0.3913 -2.0047
18955TIP3   OH278279   1.114   5.018  13.844  0.1982  0.2890  0.5265
18955TIP3    H178280   1.186   5.079  13.861  0.1961  0.0408  1.4925
18955TIP3    H278281   1.156   4.932  13.846  0.0958  0.2141 -0.2295
18956TIP3   OH278282   1.829   3.412   4.662  0.1891 -0.2782  0.3759
18956TIP3    H178283   1.813   3.378   4.750  0.0127 -2.2883 -0.3796
18956TIP3    H278284   1.893   3.482   4.675 -1.1617  0.7074  2.2704
18957TIP3   OH278285   1.969   6.573   3.508 -0.2856  0.2265  0.3056
18957TIP3    H178286   1.875   6.564   3.524  0.1423  0.1963  3.2677
18957TIP3    H278287   1.982   6.667   3.493 -0.7021  0.3177  0.5074
18958TIP3   OH278288   2.014   0.176   4.742 -0.2870 -0.0439  0.0298
18958TIP3    H178289   2.008   0.138   4.829  0.1367  0.3115  0.2161
18958TIP3    H278290   1.947   0.245   4.741  0.8524  1.1107  0.6743
18959TIP3   OH278291   5.919   6.104  16.707  0.3466 -0.6898  0.2935
18959TIP3    H178292   5.927   6.193  16.742  1.5363 -0.9444  0.7241
18959TIP3    H278293   6.003   6.063  16.727  0.5560 -1.2888 -1.6570
18960TIP3   OH278294   5.457   5.621  15.214 -0.2627 -0.5929  0.7482
18960TIP3    H178295   5.461   5.708  15.254 -2.6079 -0.5114  0.9215
18960TIP3    H278296   5.451   5.638  15.120 -4.8369 -0.2187  0.8928
18961TIP3   OH278297   1.495   0.735   3.810  0.2673 -0.3323 -0.0147
18961TIP3    H178298   1.509   0.735   3.905 -0.3048 -0.7590  0.0765
18961TIP3    H278299   1.561   0.795   3.776  0.1704  0.1949  0.7032
18962TIP3   OH278300   1.383   4.053   5.802  0.2439  0.2398  0.1601
18962TIP3    H178301   1.461   4.056   5.856 -0.2738 -1.3025  1.0597
18962TIP3    H278302   1.408   4.001   5.726  0.6443  1.4508 -0.5624
18963TIP3   OH278303   4.133   4.051   0.854 -0.5092  0.0089  0.3444
18963TIP3    H178304   4.115   4.136   0.892  1.9662  0.3030  1.0125
18963TIP3    H278305   4.127   4.065   0.759  0.2529  1.0332  0.4373
18964TIP3   OH278306   3.348   6.501  12.849  0.4208  0.2468 -0.0983
18964TIP3    H178307   3.263   6.527  12.814  1.1589  2.5414 -0.3675
18964TIP3    H278308   3.408   6.568  12.817  2.1637 -0.7727  0.8961
18965TIP3   OH278309   1.708   3.181   0.259 -0.2501 -0.6984 -0.0768
18965TIP3    H178310   1.688   3.274   0.267 -0.3003 -0.7559  0.5075
18965TIP3    H278311   1.799   3.179   0.227 -0.4652 -0.4507 -0.7194
18966TIP3   OH278312   5.562   4.314   4.622 -0.2507  0.1298  0.2853
18966TIP3    H178313   5.546   4.385   4.684 -0.7742  0.4672 -0.2273
18966TIP3    H278314   5.476   4.276   4.607 -0.5848  1.5916 -2.0658
18967TIP3   OH278315   0.292   4.854   3.339 -0.2343 -0.8534  0.0923
18967TIP3    H178316   0.305   4.792   3.268 -1.9109 -1.3165  0.1475
18967TIP3    H278317   0.197   4.861   3.349 -0.0619 -0.1554  1.7227
18968TIP3   OH278318   0.840   1.725   3.692  0.3962 -0.3462  0.4155
18968TIP3    H178319   0.771   1.740   3.628  0.4126 -0.7958  0.2869
18968TIP3    H278320   0.794   1.708   3.774  0.3532 -0.6925  0.3198
18969TIP3   OH278321   4.668   0.242  14.460 -0.2469  0.3679 -0.1243
18969TIP3    H178322   4.699   0.156  14.432  0.0726  0.5661 -0.3839
18969TIP3    H278323   4.594   0.261  14.402 -1.4832 -0.5031  1.0753
18970TIP3   OH278324   2.558   1.749   2.853  0.0264  0.3356  0.5446
18970TIP3    H178325   2.624   1.682   2.832  1.0387  1.3228  0.4560
18970TIP3    H278326   2.494   1.743   2.782  0.7387  0.2491 -0.1040
18971TIP3   OH278327   5.443   6.482  12.522 -0.4527  0.0669 -0.1259
18971TIP3    H178328   5.469   6.425  12.594  2.6878 -0.2104 -1.3155
18971TIP3    H278329   5.390   6.426  12.466 -0.7811 -0.4782  0.7119
18972TIP3   OH278330   6.548   1.907   1.691  0.5462 -0.3391 -0.0491
18972TIP3    H178331   6.568   1.816   1.670  0.0945 -0.1163 -1.5584
18972TIP3    H278332   6.452   1.911   1.692  0.5583  0.2946 -0.8500
18973TIP3   OH278333   6.590   3.197  11.648  1.0144 -0.4023  0.3692
18973TIP3    H178334   6.499   3.166  11.655  0.9418 -0.4225 -0.5828
18973TIP3    H278335   6.596   3.234  11.560  1.1311  2.2052  1.3803
18974TIP3   OH278336   5.726   1.672   1.086  0.3069  0.4736  0.6262
18974TIP3    H178337   5.696   1.588   1.120 -0.7646  1.0257  1.0715
18974TIP3    H278338   5.729   1.661   0.991  0.3438 -0.1089  0.6925
18975TIP3   OH278339   6.611   0.629   4.244  0.0525 -0.9117  0.0009
18975TIP3    H178340   6.630   0.590   4.329 -0.5756 -1.0652  0.0725
18975TIP3    H278341   6.694   0.622   4.196 -0.0135 -2.2559  0.0491
18976TIP3   OH278342   5.426   2.667   0.045 -0.3326 -0.5941  0.0280
18976TIP3    H178343   5.503   2.655  -0.011  0.6340 -0.2462  1.2466
18976TIP3    H278344   5.352   2.639  -0.010  0.8077 -2.4607 -0.6308
18977TIP3   OH278345   1.051   6.712  16.588  0.5023  1.0645  0.2111
18977TIP3    H178346   0.975   6.654  16.594  0.3152  0.8635 -2.8125
18977TIP3    H278347   1.055   6.754  16.674 -0.4820 -1.9542  1.8881
18978TIP3   OH278348   1.203   3.868  15.813  0.0052 -0.0830  0.6438
18978TIP3    H178349   1.256   3.867  15.733  0.3937 -1.4639  0.8932
18978TIP3    H278350   1.127   3.921  15.791 -0.6008 -1.6102 -1.1124
18979TIP3   OH278351   2.771   2.895  14.544 -0.0421  0.2357 -0.3036
18979TIP3    H178352   2.779   2.918  14.452  2.2330 -0.7695 -0.4316
18979TIP3    H278353   2.733   2.807  14.544  0.1224  0.1645 -0.2932
18980TIP3   OH278354   3.856   0.002  12.244  0.5022  0.4931  0.7365
18980TIP3    H178355   3.896  -0.084  12.230 -2.0055 -0.5743 -0.3140
18980TIP3    H278356   3.910   0.062  12.191  0.5914 -0.9158 -0.8451
18981TIP3   OH278357   5.554   6.411   0.747 -0.1391 -0.3774  0.4875
18981TIP3    H178358   5.518   6.323   0.746  1.5806 -1.1512  1.7762
18981TIP3    H278359   5.490   6.464   0.700 -0.6022 -2.5362 -1.4729
18982TIP3   OH278360   2.960   4.900  12.336 -0.1254  0.7649 -0.4825
18982TIP3    H178361   3.050   4.921  12.363  0.2673 -0.8668 -0.4466
18982TIP3    H278362   2.944   4.956  12.260  1.6531 -0.2856 -1.6963
18983TIP3   OH278363   1.522   0.647  16.435  0.0137  1.0426  0.1901
18983TIP3    H178364   1.539   0.739  16.412  1.5718  0.4456 -1.2045
18983TIP3    H278365   1.450   0.622  16.377  0.9078  0.8478 -0.8691
18984TIP3   OH278366   2.119   0.361  13.396 -0.4575 -0.1918  0.5084
18984TIP3    H178367   2.177   0.289  13.425  0.2457 -1.1255 -2.8135
18984TIP3    H278368   2.174   0.439  13.402 -0.3122 -0.3520  1.5049
18985TIP3   OH278369   5.198   0.722  11.533 -0.4319  0.1382 -0.1464
18985TIP3    H178370   5.137   0.663  11.577 -1.2496 -0.7849 -2.3821
18985TIP3    H278371   5.284   0.687  11.554 -0.8524 -1.0181 -0.2669
18986TIP3   OH278372   5.729   3.565  15.458  0.1440  0.2226  0.1721
18986TIP3    H178373   5.709   3.606  15.542  0.7385 -3.0390  2.0681
18986TIP3    H278374   5.647   3.525  15.429  0.8820 -2.7518  1.7812
18987TIP3   OH278375   1.683   6.576   5.795  0.0267 -0.5480  0.4316
18987TIP3    H178376   1.669   6.497   5.742 -2.0533  0.3278 -0.3980
18987TIP3    H278377   1.779   6.581   5.805  0.3325 -1.9909 -1.3033
18988TIP3   OH278378   4.361   4.961  13.231 -0.5477  0.2368  0.0461
18988TIP3    H178379   4.424   5.033  13.225 -0.6699  0.4893  1.4993
18988TIP3    H278380   4.315   4.976  13.313 -1.4278 -0.8300 -0.2300
18989TIP3   OH278381   0.549   0.317  11.109 -0.4835  0.5395  0.0412
18989TIP3    H178382   0.548   0.300  11.015 -1.8181 -1.2372  0.3319
18989TIP3    H278383   0.568   0.232  11.149 -0.1514  1.2247  1.3945
18990TIP3   OH278384   6.567   0.609  13.162  0.1452 -0.3148  0.0946
18990TIP3    H178385   6.486   0.659  13.177 -1.5671 -2.7964 -0.2589
18990TIP3    H278386   6.585   0.621  13.068  1.2137  1.5765  0.4879
18991TIP3   OH278387   2.577   2.031   4.877 -0.7306  0.2272 -0.0900
18991TIP3    H178388   2.508   2.015   4.813 -0.8851 -1.9884  0.5433
18991TIP3    H278389   2.537   2.009   4.962 -0.2307  2.1395  0.6977
18992TIP3   OH278390   2.157   4.810  14.057 -0.1200 -0.1776 -0.1322
18992TIP3    H178391   2.149   4.714  14.060  0.5423 -0.2120  1.1297
18992TIP3    H278392   2.207   4.832  14.135 -2.3084  1.4158  0.9225
18993TIP3   OH278393   3.915   2.404  16.306  0.0185  0.0593  0.5518
18993TIP3    H178394   3.825   2.415  16.277 -0.3159  0.0849  1.5711
18993TIP3    H278395   3.945   2.324  16.263 -0.4191  0.1701  0.0419
18994TIP3   OH278396   0.330   4.407   4.258 -0.6847  0.0474 -0.2555
18994TIP3    H178397   0.422   4.434   4.251 -0.5037  0.3072  2.2638
18994TIP3    H278398   0.322   4.371   4.346 -2.8506 -0.6890 -0.6817
18995TIP3   OH278399   0.113   2.116  12.056  0.0485 -0.5220 -0.5576
18995TIP3    H178400   0.110   2.208  12.083 -1.4026 -0.6162 -0.2822
18995TIP3    H278401   0.096   2.068  12.136 -0.0264 -0.9878 -0.8517
18996TIP3   OH278402   1.364   1.012  13.664  0.3425  0.3563  0.7349
18996TIP3    H178403   1.407   1.068  13.600 -0.5303 -0.5237 -0.6734
18996TIP3    H278404   1.422   0.936  13.673 -0.4622 -0.4487 -0.5518
18997TIP3   OH278405   0.175   2.958  12.509  0.1717  0.1561  0.0191
18997TIP3    H178406   0.093   2.916  12.535  0.2985 -0.9907 -1.3007
18997TIP3    H278407   0.237   2.934  12.577 -0.1195 -0.6382  0.0169
18998TIP3   OH278408   3.380   0.161   1.832  0.3657 -0.1281 -0.0074
18998TIP3    H178409   3.356   0.081   1.879 -0.3132 -0.1705 -0.4050
18998TIP3    H278410   3.435   0.132   1.760 -2.8925 -0.8108 -2.4930
18999TIP3   OH278411   0.494   1.064   5.026  0.0427 -0.2167 -0.3140
18999TIP3    H178412   0.515   1.096   5.114 -1.2461 -2.1079  0.7530
18999TIP3    H278413   0.410   1.020   5.036  0.5809 -1.8122 -2.1830
19000TIP3   OH278414   1.600   2.037  12.210 -0.1549  0.0138  0.5325
19000TIP3    H178415   1.505   2.047  12.220 -0.1336 -0.4345  1.1989
19000TIP3    H278416   1.610   1.989  12.128 -0.4182  1.6847 -0.5346
19001TIP3   OH278417   4.247   4.669   3.532  0.4354  0.4413 -0.3169
19001TIP3    H178418   4.288   4.700   3.451  1.4495  1.9312  0.7043
19001TIP3    H278419   4.176   4.731   3.548  0.3408  0.2510  0.0020
19002TIP3   OH278420   4.803   4.170  14.531  0.4238  0.6835 -0.7141
19002TIP3    H178421   4.772   4.087  14.567 -1.2215  0.1629 -3.1287
19002TIP3    H278422   4.735   4.234  14.556 -0.0038  0.5999 -1.6161
19003TIP3   OH278423   0.505   6.295   4.786 -0.1356 -0.0942 -0.1191
19003TIP3    H178424   0.490   6.267   4.877  0.7577  0.5606  0.2426
19003TIP3    H278425   0.457   6.231   4.734  0.5368 -1.3595  0.7524
19004TIP3   OH278426   2.407   2.971   3.241 -0.9934  0.0771 -0.0588
19004TIP3    H178427   2.433   3.037   3.305 -1.5880 -0.3405  0.6296
19004TIP3    H278428   2.396   3.020   3.159 -4.0034  1.3996  0.9709
19005TIP3   OH278429   4.298   0.269  12.608 -0.4261 -0.1063 -0.0250
19005TIP3    H178430   4.256   0.293  12.525  0.3466 -1.9228 -1.0080
19005TIP3    H278431   4.250   0.191  12.637  0.1860 -0.2827  0.5238
19006TIP3   OH278432   1.510   0.944  14.549 -0.1658 -0.0738 -0.0586
19006TIP3    H178433   1.418   0.967  14.540  0.4935  2.2540 -2.1469
19006TIP3    H278434   1.534   0.971  14.637 -1.1950  0.4972  0.0553
19007TIP3   OH278435   6.767   3.925  11.154  0.1170 -0.1580 -0.4917
19007TIP3    H178436   6.727   4.012  11.150 -2.0656 -1.1040 -0.4875
19007TIP3    H278437   6.814   3.916  11.071  0.5709  1.0952 -0.3875
19008TIP3   OH278438   4.151   5.654  15.081  0.3621  0.0128 -0.2179
19008TIP3    H178439   4.219   5.597  15.045  0.6113 -0.2592  0.6645
19008TIP3    H278440   4.160   5.736  15.032  0.7768 -0.2990 -0.6726
19009TIP3   OH278441   2.488   6.543  16.911  0.3389 -0.3275 -0.6597
19009TIP3    H178442   2.502   6.587  16.995  0.1409 -0.1822 -0.7021
19009TIP3    H278443   2.415   6.590  16.871 -0.4308 -1.2496 -0.3366
19010TIP3   OH278444   1.967   3.929  12.133  0.1896 -0.5836  0.0783
19010TIP3    H178445   1.901   3.892  12.074  1.3371 -0.7840 -1.1380
19010TIP3    H278446   1.997   4.008  12.089  1.1528 -0.7994  0.3077
19011TIP3   OH278447   4.733   1.130  15.628  0.4324 -0.3064  0.5931
19011TIP3    H178448   4.753   1.097  15.715 -0.2613 -0.6539  0.6340
19011TIP3    H278449   4.650   1.177  15.639 -0.8833 -2.2809 -0.2792
19012TIP3   OH278450   4.685   4.737  16.798 -0.2637 -0.4479  0.1354
19012TIP3    H178451   4.602   4.693  16.781 -1.0485  0.4666  1.4334
19012TIP3    H278452   4.662   4.815  16.848  1.4045 -0.3909  0.9026
19013TIP3   OH278453   3.331   3.995   5.728 -0.8331 -0.3884  0.4018
19013TIP3    H178454   3.321   4.089   5.739 -0.1420 -0.4079  1.3438
19013TIP3    H278455   3.248   3.966   5.692 -1.0072  0.5943 -0.0270
19014TIP3   OH278456   0.375   3.109   1.541  0.7340  0.3734  0.2085
19014TIP3    H178457   0.466   3.137   1.549  0.8413 -0.2226  1.2429
19014TIP3    H278458   0.352   3.076   1.627 -0.3250  0.0807 -0.1650
19015TIP3   OH278459   0.237   4.531  15.387  0.5743 -0.1351  0.1067
19015TIP3    H178460   0.181   4.489  15.322  0.3454  1.4557 -0.7846
19015TIP3    H278461   0.196   4.511  15.471 -2.4846  2.4300 -0.5897
19016TIP3   OH278462   4.574   1.846  12.951  1.1895  0.4827 -0.1086
19016TIP3    H178463   4.634   1.831  13.024  0.9165  0.3813  0.0962
19016TIP3    H278464   4.599   1.931  12.916  1.3614  0.5029  0.0638
19017TIP3   OH278465   4.280   4.378   1.756  0.3010  0.4558  0.8695
19017TIP3    H178466   4.373   4.373   1.738  0.3233  1.8795  0.5104
19017TIP3    H278467   4.253   4.464   1.724 -1.1796 -0.0059  0.7763
19018TIP3   OH278468   0.896   1.294   2.378 -0.0796  0.2482  0.0129
19018TIP3    H178469   0.937   1.215   2.341 -0.0512 -0.3794  1.3357
19018TIP3    H278470   0.961   1.327   2.441 -0.9975  0.0626  1.0822
19019TIP3   OH278471   4.385   5.016  14.631 -0.0037  1.0801  0.0537
19019TIP3    H178472   4.424   5.001  14.717  0.3162  1.2648 -0.0556
19019TIP3    H278473   4.344   4.933  14.607 -0.5870  1.1946  0.6331
19020TIP3   OH278474   5.848   5.853  12.587 -0.2786  0.3574 -0.1849
19020TIP3    H178475   5.802   5.897  12.516 -0.3616 -0.3891 -0.6079
19020TIP3    H278476   5.940   5.878  12.575 -0.3792  0.7574 -0.1509
19021TIP3   OH278477   4.611   6.294   4.440 -0.0686  0.4984 -0.2522
19021TIP3    H178478   4.640   6.275   4.351 -0.0620  2.6472 -0.7768
19021TIP3    H278479   4.558   6.373   4.431 -0.8582  0.2170  1.5409
19022TIP3   OH278480   3.278   6.461  13.483  0.4332  0.3787  0.1777
19022TIP3    H178481   3.282   6.404  13.406  0.8885 -0.1332  0.5768
19022TIP3    H278482   3.349   6.431  13.539 -0.9997 -0.5063  1.6464
19023TIP3   OH278483   3.791   0.851  14.127 -0.6405  0.1884 -0.2970
19023TIP3    H178484   3.728   0.870  14.196  0.0031 -0.4238  0.4806
19023TIP3    H278485   3.850   0.927  14.126  0.2836 -0.4920  0.9158
19024TIP3   OH278486   0.856   0.980  12.379  0.0537  0.2809  0.3842
19024TIP3    H178487   0.844   0.906  12.438  1.4441 -0.3759 -0.1124
19024TIP3    H278488   0.768   1.011  12.361 -0.7544 -2.4798 -0.9069
19025TIP3   OH278489   6.221   3.320  13.386 -0.1503 -0.0901  0.3591
19025TIP3    H178490   6.239   3.354  13.299 -4.0036 -2.3107 -1.5917
19025TIP3    H278491   6.181   3.394  13.433  0.0959  0.5881 -0.4785
19026TIP3   OH278492   3.098   4.746  10.655  0.3587  0.3488  0.2657
19026TIP3    H178493   3.092   4.705  10.742  1.7170 -1.3804 -0.4071
19026TIP3    H278494   3.009   4.737  10.619  0.1473 -0.2557  0.9053
19027TIP3   OH278495   2.398   2.401   3.630 -0.3448 -0.2376 -0.4342
19027TIP3    H178496   2.437   2.487   3.644 -1.7502  0.2529  0.8537
19027TIP3    H278497   2.310   2.420   3.598 -0.3744 -1.2246 -0.9654
19028TIP3   OH278498   3.421   2.579  11.616 -0.3017 -0.2022  0.8557
19028TIP3    H178499   3.393   2.652  11.560  1.7979 -2.4072 -3.6591
19028TIP3    H278500   3.515   2.595  11.630  0.6194 -2.5477 -1.6438
19029TIP3   OH278501   0.563   6.421   3.696 -0.6569 -0.1338 -0.1112
19029TIP3    H178502   0.538   6.469   3.775 -0.5261 -0.1985 -0.0307
19029TIP3    H278503   0.484   6.374   3.670 -0.1325 -1.8461  1.2089
19030TIP3   OH278504   4.779   0.616  15.348  0.0065  0.1119  0.4471
19030TIP3    H178505   4.846   0.588  15.285 -0.6632 -2.2232  0.7092
19030TIP3    H278506   4.794   0.561  15.425 -1.5270  0.3172  0.9154
19031TIP3   OH278507   6.074   3.239   0.581 -0.2601 -0.1923  0.1514
19031TIP3    H178508   6.103   3.154   0.548 -0.0131 -0.8759  2.0396
19031TIP3    H278509   6.082   3.297   0.506  3.1346 -0.9935 -0.2787
19032TIP3   OH278510   3.257   3.021   3.227  0.0636  0.0232 -0.0996
19032TIP3    H178511   3.204   3.033   3.306  1.0662  0.0106  0.5976
19032TIP3    H278512   3.328   2.964   3.255  0.4107 -0.0152 -1.0344
19033TIP3   OH278513   5.146   5.179  13.779  0.2987  0.0411  0.1356
19033TIP3    H178514   5.130   5.210  13.690  0.2193  2.7171  0.9988
19033TIP3    H278515   5.209   5.107  13.768 -3.1581 -2.9468 -2.3593
19034TIP3   OH278516   4.743   6.534  14.192  0.1251  0.8404 -0.6010
19034TIP3    H178517   4.756   6.532  14.097  3.3889  0.8116 -0.2654
19034TIP3    H278518   4.777   6.449  14.222 -0.2266  1.1276  0.6470
19035TIP3   OH278519   6.598   4.437  11.279  0.3495 -0.3116  0.1219
19035TIP3    H178520   6.514   4.464  11.242  0.3466 -0.7128 -0.1746
19035TIP3    H278521   6.603   4.482  11.363  1.3958  2.4963 -1.3078
19036TIP3   OH278522   0.673   1.302   5.143  1.1165 -0.5369  0.0668
19036TIP3    H178523   0.614   1.275   5.214 -0.7945 -0.6004 -1.4776
19036TIP3    H278524   0.683   1.397   5.155 -1.6843  0.0227 -1.2533
19037TIP3   OH278525   4.956   1.552   3.365  0.1658  0.2176  0.1719
19037TIP3    H178526   5.008   1.582   3.291  0.0433  2.7970  1.0306
19037TIP3    H278527   4.878   1.513   3.325  1.6137 -1.5751 -1.0656
19038TIP3   OH278528   2.408   1.459   5.175  0.7831 -0.1535 -0.1077
19038TIP3    H178529   2.398   1.524   5.245  0.6496 -0.2215 -0.0635
19038TIP3    H278530   2.329   1.405   5.181  1.4140 -1.0433  0.6122
19039TIP3   OH278531   6.568   6.563   5.494  0.6182  0.3171  0.5863
19039TIP3    H178532   6.512   6.609   5.556  0.3539 -1.1113  1.4563
19039TIP3    H278533   6.599   6.631   5.435 -2.1041  1.1469 -0.0063
19040TIP3   OH278534   4.131   2.019   1.378  0.3644 -0.1609  0.2879
19040TIP3    H178535   4.073   1.945   1.359 -1.2172  1.1031 -0.0525
19040TIP3    H278536   4.138   2.065   1.294  0.3248  0.7291  0.7619
19041TIP3   OH278537   3.607   3.591  14.465  0.3089 -0.1374  0.4122
19041TIP3    H178538   3.538   3.527  14.449 -0.9420  0.9699  1.2245
19041TIP3    H278539   3.682   3.558  14.415 -0.9777 -1.0372 -1.0025
19042TIP3   OH278540   3.649   6.303   0.601  0.5760  0.0922  0.8390
19042TIP3    H178541   3.664   6.217   0.562 -0.9489 -0.6583  1.7973
19042TIP3    H278542   3.594   6.285   0.677 -1.1299  2.0742  0.1710
19043TIP3   OH278543   2.746   3.630  14.008  0.2241 -0.0035 -0.4217
19043TIP3    H178544   2.658   3.666  14.004 -0.4866 -1.4950  0.6076
19043TIP3    H278545   2.773   3.641  14.099  0.8409 -0.1457 -0.5815
19044TIP3   OH278546   5.878   6.039  13.960  0.5019  0.1044  0.3480
19044TIP3    H178547   5.898   5.950  13.931  1.6229 -0.1676  1.8477
19044TIP3    H278548   5.959   6.070  14.000 -0.3916  1.1379  1.4216
19045TIP3   OH278549   5.721   4.451   0.066  0.0398 -0.2193 -0.0364
19045TIP3    H178550   5.666   4.509   0.119 -1.3036 -0.2356 -1.3384
19045TIP3    H278551   5.810   4.483   0.081 -0.4535  0.7993  0.9461
19046TIP3   OH278552   2.460   2.764   1.495  0.2317 -0.0650 -0.4462
19046TIP3    H178553   2.545   2.807   1.496 -0.0211  0.4992 -1.8386
19046TIP3    H278554   2.396   2.835   1.491 -0.3016 -0.4965  0.0476
19047TIP3   OH278555   4.454   4.489   1.093  0.6137 -0.1292  0.1053
19047TIP3    H178556   4.430   4.566   1.041  2.3268  0.9789  0.8561
19047TIP3    H278557   4.377   4.472   1.147  0.0770  0.8763 -0.3127
19048TIP3   OH278558   1.543   4.022   2.953  0.6206 -0.4177 -0.0338
19048TIP3    H178559   1.525   3.970   2.875  0.1646 -0.8900  0.3820
19048TIP3    H278560   1.532   4.113   2.925 -0.9226 -0.6268 -0.1801
19049TIP3   OH278561   3.944   3.576   0.125  0.6317  0.3703  0.2823
19049TIP3    H178562   3.937   3.489   0.164  0.3892  0.1201 -0.2998
19049TIP3    H278563   3.879   3.629   0.170  1.2852  0.4514  1.1522
19050TIP3   OH278564   6.542   4.677  10.842  0.6287 -0.6424 -0.1584
19050TIP3    H178565   6.457   4.643  10.869  0.7142 -1.1893 -0.5815
19050TIP3    H278566   6.597   4.668  10.920  0.6250 -1.3804 -0.2409
19051TIP3   OH278567   2.141   0.095  12.266  0.6028 -0.4944  0.2049
19051TIP3    H178568   2.179   0.137  12.189  0.4857 -2.4078 -0.9659
19051TIP3    H278569   2.192   0.015  12.278 -0.6031 -1.1879  0.9510
19052TIP3   OH278570   6.565   1.304  16.100 -0.3026  0.3173 -0.1007
19052TIP3    H178571   6.655   1.332  16.084  0.0401  1.8138  3.4413
19052TIP3    H278572   6.562   1.214  16.069  1.9320  0.6743 -1.6487
19053TIP3   OH278573   4.539   5.698  16.486 -0.3545  0.4522 -0.5449
19053TIP3    H178574   4.628   5.681  16.518 -0.3269  1.0066 -0.3241
19053TIP3    H278575   4.536   5.793  16.473 -1.2934  0.5979  0.5782
19054TIP3   OH278576   1.571   6.447  12.958  0.4243  0.6395 -0.2804
19054TIP3    H178577   1.606   6.509  13.022  0.9550  0.6053 -0.5272
19054TIP3    H278578   1.644   6.432  12.897  1.3462 -2.3603  1.3171
19055TIP3   OH278579   5.919   6.464  15.986 -0.1321 -0.0677 -0.5952
19055TIP3    H178580   5.881   6.536  15.936 -1.1162  0.1485  0.4439
19055TIP3    H278581   5.997   6.501  16.026  0.0786  0.0511 -1.1053
19056TIP3   OH278582   0.795   6.648  13.903 -0.5338 -0.5651  0.0174
19056TIP3    H178583   0.854   6.717  13.935 -1.7981  0.5678  0.0010
19056TIP3    H278584   0.807   6.648  13.808  0.2069 -1.0828  0.1039
19057TIP3   OH278585   3.870   2.897   3.631 -0.4206  0.1476 -0.5507
19057TIP3    H178586   3.780   2.863   3.634 -1.1614  2.0029 -0.2980
19057TIP3    H278587   3.891   2.915   3.723 -0.2635  0.8457 -0.7165
19058TIP3   OH278588   3.272   0.996  12.700 -0.5175 -0.4598  0.3954
19058TIP3    H178589   3.313   1.082  12.696  1.0061 -1.1601  0.4522
19058TIP3    H278590   3.286   0.966  12.790 -0.5671 -0.9911  0.2323
19059TIP3   OH278591   3.706   3.721   3.502  0.0858 -0.0150  0.1128
19059TIP3    H178592   3.786   3.710   3.554 -0.3069  1.0336  0.9765
19059TIP3    H278593   3.646   3.655   3.537  0.0025  0.3366  0.6443
19060TIP3   OH278594   1.503   4.216  14.687  0.0038  0.2177 -0.0098
19060TIP3    H178595   1.444   4.292  14.689  0.3756  0.5117 -0.0889
19060TIP3    H278596   1.588   4.251  14.714  0.2766 -0.0792 -0.4665
19061TIP3   OH278597   2.649   1.138  10.304 -0.4934  0.1032  0.9713
19061TIP3    H178598   2.672   1.228  10.326 -0.0155  0.3150 -0.2857
19061TIP3    H278599   2.554   1.135  10.310 -0.4390  0.3857  2.0879
19062TIP3   OH278600   6.653   5.403   0.610  0.3485 -0.1309  0.4724
19062TIP3    H178601   6.748   5.398   0.617  0.4279 -1.1844 -0.8491
19062TIP3    H278602   6.629   5.328   0.555 -1.2710 -0.0338  0.9832
19063TIP3   OH278603   3.639   1.344  12.406  0.3338 -0.4511  0.3477
19063TIP3    H178604   3.656   1.275  12.471  2.4715 -0.0453  0.2934
19063TIP3    H278605   3.726   1.372  12.378 -0.3557  3.6099  1.7185
19064TIP3   OH278606   2.642   4.149  16.429 -0.2499 -0.2460 -0.2584
19064TIP3    H178607   2.644   4.243  16.441  0.1867 -0.3389  0.4240
19064TIP3    H278608   2.653   4.113  16.517 -1.6410 -0.9343 -0.3444
19065TIP3   OH278609   4.836   0.875  13.543  0.4053  0.2096  0.5549
19065TIP3    H178610   4.795   0.806  13.490  0.2869  1.7290 -1.4662
19065TIP3    H278611   4.784   0.877  13.623 -3.3570  1.6395 -1.6410
19066TIP3   OH278612   0.039   3.524   1.940 -0.1295  0.5920 -0.3917
19066TIP3    H178613   0.011   3.437   1.969 -1.9336  0.6911 -1.6788
19066TIP3    H278614   0.073   3.565   2.019 -0.1061 -0.9493  0.4478
19067TIP3   OH278615   3.932   0.601   5.019 -0.0169 -0.4923 -0.5342
19067TIP3    H178616   3.848   0.611   4.974 -0.0316 -0.4058 -0.4890
19067TIP3    H278617   3.950   0.508   5.016 -0.6725 -0.6616  0.4769
19068TIP3   OH278618   3.314   0.377  13.598  0.8543 -0.3733  0.0221
19068TIP3    H178619   3.312   0.376  13.694  1.5760 -0.5701  0.0450
19068TIP3    H278620   3.387   0.435  13.576 -0.6914  1.4837 -0.4639
19069TIP3   OH278621   3.261   5.836  15.647  0.5595  0.0473 -0.0648
19069TIP3    H178622   3.202   5.772  15.687  1.2766 -0.9835 -0.6172
19069TIP3    H278623   3.337   5.839  15.705  1.2329 -0.8340 -0.8604
19070TIP3   OH278624   0.654   3.772  12.027 -0.3775  0.2426 -0.8557
19070TIP3    H178625   0.668   3.738  11.939 -0.1829 -1.1677 -0.3141
19070TIP3    H278626   0.564   3.803  12.027 -0.3748  0.2666 -1.5514
19071TIP3   OH278627   3.528   1.390  15.315 -0.2954  0.4650 -0.3887
19071TIP3    H178628   3.572   1.476  15.320  1.6382 -0.4503 -0.6283
19071TIP3    H278629   3.589   1.330  15.358 -0.4986 -1.1934 -2.2848
19072TIP3   OH278630   0.419   0.005  14.121 -0.9169 -0.0086  0.0089
19072TIP3    H178631   0.494  -0.053  14.123 -0.8302  0.0728  2.9278
19072TIP3    H278632   0.361  -0.027  14.189 -2.3596  1.4540 -0.4440
19073TIP3   OH278633   0.485   1.501   0.515 -0.1602  0.0310  0.7227
19073TIP3    H178634   0.499   1.437   0.445 -1.5297  0.3650  0.1249
19073TIP3    H278635   0.414   1.557   0.483 -1.0623 -0.0258  2.5245
19074TIP3   OH278636   5.891   4.963   1.294 -0.1366 -0.1455  0.4992
19074TIP3    H178637   5.918   4.892   1.236  1.9493  2.1174 -1.5305
19074TIP3    H278638   5.971   4.988   1.341 -0.8855  0.7045  1.3788
19075TIP3   OH278639   1.348   1.706  15.361  0.1337  0.0454 -0.6354
19075TIP3    H178640   1.385   1.708  15.273 -0.1849  1.5862 -0.7564
19075TIP3    H278641   1.289   1.631  15.360  0.1295  0.0468 -1.7403
19076TIP3   OH278642   6.127   6.033   3.758 -0.0076  0.1353 -0.2913
19076TIP3    H178643   6.154   5.950   3.720 -1.0032  0.0758 -0.8946
19076TIP3    H278644   6.081   6.078   3.688  3.9330  3.0207 -1.3753
19077TIP3   OH278645   2.422   2.394  16.568  0.0136 -1.0766 -0.0488
19077TIP3    H178646   2.362   2.372  16.639 -0.2062 -0.7815 -0.1428
19077TIP3    H278647   2.396   2.337  16.495  0.1177 -1.2448  0.0451
19078TIP3   OH278648   4.051   4.690  15.505 -0.3312 -0.0682 -0.5273
19078TIP3    H178649   4.013   4.681  15.417  1.2760  1.5253 -1.4358
19078TIP3    H278650   3.975   4.685  15.564 -1.7519  1.2207 -2.1466
19079TIP3   OH278651   6.503   3.348   1.767  0.1454  0.0382  0.3469
19079TIP3    H178652   6.531   3.336   1.858  0.3010 -2.5675  0.0162
19079TIP3    H278653   6.408   3.333   1.768 -0.4795  3.2781  0.5331
19080TIP3   OH278654   5.375   0.315  16.576 -0.5568  0.6281  0.2020
19080TIP3    H178655   5.319   0.256  16.527  0.8347 -1.7772  1.3134
19080TIP3    H278656   5.316   0.364  16.632 -1.6359 -1.5747  1.0941
19081TIP3   OH278657   1.684   3.951   4.319 -0.9240 -0.2280  0.5367
19081TIP3    H178658   1.714   3.964   4.229  1.0485  0.5628  1.2613
19081TIP3    H278659   1.703   3.859   4.338  4.0496  0.7785  1.8723
19082TIP3   OH278660   2.714   3.968   6.311 -0.1337  0.5040  0.6200
19082TIP3    H178661   2.746   3.985   6.399  0.8799  1.2426  0.1249
19082TIP3    H278662   2.639   3.909   6.324  2.2502 -2.5970  1.7556
19083TIP3   OH278663   6.614   3.354  16.389 -0.0758 -0.2856 -0.4008
19083TIP3    H178664   6.552   3.326  16.321 -2.4128  0.7826  1.1581
19083TIP3    H278665   6.575   3.323  16.471  2.8232 -1.8246  0.5431
19084TIP3   OH278666   6.130   2.065  13.406  0.4371 -0.1198 -0.1595
19084TIP3    H178667   6.167   2.004  13.470 -0.9465 -1.2354 -0.3597
19084TIP3    H278668   6.181   2.145  13.417 -0.4756  0.1638  3.2176
19085TIP3   OH278669   4.268   4.162   1.539  0.6098  0.3113  0.1544
19085TIP3    H178670   4.263   4.197   1.628 -0.3946  1.7022 -0.4195
19085TIP3    H278671   4.272   4.067   1.551  0.9907  0.4892  1.6863
19086TIP3   OH278672   1.484   2.764   6.225 -0.1780 -0.7158  0.5749
19086TIP3    H178673   1.507   2.692   6.283  0.0853 -0.8795  0.2646
19086TIP3    H278674   1.460   2.723   6.143 -0.5011 -0.4787  0.5468
19087TIP3   OH278675   2.705   0.367  10.926 -0.3420 -0.5543  0.0477
19087TIP3    H178676   2.776   0.384  10.988  0.3210 -0.1769 -0.7923
19087TIP3    H278677   2.627   0.401  10.970 -0.2120 -1.9049  1.4332
19088TIP3   OH278678   4.045   0.900   4.784 -0.2719  0.0195  0.3071
19088TIP3    H178679   3.984   0.831   4.756 -0.2583  0.0883  0.1060
19088TIP3    H278680   4.076   0.871   4.870 -0.3234 -0.1876  0.2566
19089TIP3   OH278681   2.265   6.659  13.557 -0.4336  0.2568 -0.0817
19089TIP3    H178682   2.351   6.623  13.537  0.8979  2.2958  1.5632
19089TIP3    H278683   2.253   6.644  13.650 -1.6547  0.4636 -0.1801
19090TIP3   OH278684   1.794   4.475  13.981 -0.2850 -0.3360 -0.5645
19090TIP3    H178685   1.888   4.490  13.994 -0.4076 -0.8383  1.0989
19090TIP3    H278686   1.761   4.557  13.944  0.6229  0.2158 -0.1753
19091TIP3   OH278687   3.794   1.727   4.309 -0.0249  0.1970  0.1133
19091TIP3    H178688   3.701   1.712   4.328 -1.0140  3.9151 -0.9142
19091TIP3    H278689   3.802   1.708   4.215 -0.3063  1.6393 -0.2406
19092TIP3   OH278690   5.928   3.468   5.003  0.0097 -0.4834 -0.1405
19092TIP3    H178691   5.932   3.443   4.911  1.5803 -1.4868  0.1587
19092TIP3    H278692   5.856   3.415   5.039 -1.5069  0.8866 -1.0169
19093TIP3   OH278693   2.745   4.155   4.584 -0.5629 -0.7416  0.3648
19093TIP3    H178694   2.835   4.174   4.559  0.0380 -1.1551  2.1096
19093TIP3    H278695   2.694   4.224   4.541  0.8274  0.8700  1.1937
19094TIP3   OH278696   1.589   0.944  15.806 -0.2112 -0.7947  0.2990
19094TIP3    H178697   1.611   0.851  15.791 -1.6051 -0.8149 -2.2596
19094TIP3    H278698   1.671   0.983  15.835  0.7797 -2.5869  0.1002
19095TIP3   OH278699   3.909   2.737  15.255  0.0266  0.3932  0.3892
19095TIP3    H178700   3.844   2.807  15.249 -1.3514 -0.9035 -0.4726
19095TIP3    H278701   3.882   2.685  15.330  0.9355  0.6511  0.9116
19096TIP3   OH278702   0.429   3.250  14.136 -0.0995 -0.4338 -0.8884
19096TIP3    H178703   0.407   3.311  14.065  1.8735  1.7644  0.2589
19096TIP3    H278704   0.438   3.305  14.213 -0.5167 -2.5523  0.7604
19097TIP3   OH278705   4.077   2.803  16.768 -0.2070 -0.1796 -0.9250
19097TIP3    H178706   4.117   2.724  16.806  1.0583  1.0789  0.5059
19097TIP3    H278707   4.093   2.795  16.674 -0.5962 -1.8744 -0.8741
19098TIP3   OH278708   1.704   5.645   3.004  0.3050 -0.4771 -0.1822
19098TIP3    H178709   1.671   5.730   2.977  2.7572  0.2568 -1.1779
19098TIP3    H278710   1.775   5.665   3.065  0.3450 -1.8523  0.2639
19099TIP3   OH278711   4.846   5.599  10.827  0.0269 -0.3278  0.0563
19099TIP3    H178712   4.765   5.648  10.842  0.6232  0.6653  0.1424
19099TIP3    H278713   4.826   5.540  10.755 -0.2652  1.1804 -1.1604
19100TIP3   OH278714   1.643   3.453  15.739  0.1538  0.1339  0.2291
19100TIP3    H178715   1.606   3.421  15.656  1.7014 -1.2173  0.0136
19100TIP3    H278716   1.582   3.522  15.767 -0.0222  1.1879 -2.4242
19101TIP3   OH278717   6.401   0.573   2.051 -0.1600  0.4239 -0.2902
19101TIP3    H178718   6.457   0.496   2.043  1.2799  1.2282  1.2375
19101TIP3    H278719   6.460   0.643   2.081 -1.7743  1.6177  0.2936
19102TIP3   OH278720   0.591   3.381  17.158 -0.1823  0.1235 -0.7093
19102TIP3    H178721   0.648   3.313  17.123  1.0473  1.0614 -0.5807
19102TIP3    H278722   0.645   3.460  17.160 -0.8085  0.5678  1.3936
19103TIP3   OH278723   5.588   6.447   4.273 -0.4795 -0.0119  0.2263
19103TIP3    H178724   5.532   6.520   4.247  1.4007  1.1266 -0.8894
19103TIP3    H278725   5.569   6.378   4.210  0.8636  1.1566 -1.5610
19104TIP3   OH278726   3.784   4.239   4.229 -0.1045  0.0113  0.0708
19104TIP3    H178727   3.860   4.297   4.232  0.6793 -0.9578 -0.6158
19104TIP3    H278728   3.768   4.217   4.321 -0.0455  0.8144  0.2875
19105TIP3   OH278729   4.437   4.975   3.355 -0.1375  0.7434  0.0343
19105TIP3    H178730   4.412   4.886   3.331  0.2937  0.4378  0.7123
19105TIP3    H278731   4.445   4.973   3.450  0.1990  1.4238  0.0239
19106TIP3   OH278732   0.061   4.351   4.429  0.0138 -0.1230  0.2297
19106TIP3    H178733   0.150   4.322   4.449 -0.2159 -1.0473 -0.0400
19106TIP3    H278734   0.021   4.365   4.514 -0.2476 -1.8280  0.4199
19107TIP3   OH278735   1.667   4.683  12.139  0.1930 -0.3623  0.1736
19107TIP3    H178736   1.649   4.599  12.097 -3.1038 -0.0802  0.7617
19107TIP3    H278737   1.715   4.661  12.219  0.3495 -1.5699 -0.2414
19108TIP3   OH278738   5.209   1.785  15.534 -0.2212  1.0005  0.0598
19108TIP3    H178739   5.233   1.698  15.503 -0.2368  0.7750  0.6565
19108TIP3    H278740   5.292   1.830  15.550 -0.2043  0.8627  0.3728
19109TIP3   OH278741   5.224   1.941  15.246 -0.8634  0.8567 -0.1359
19109TIP3    H178742   5.196   1.903  15.329 -3.0406 -4.0057 -2.7179
19109TIP3    H278743   5.143   1.954  15.197  0.4284  2.4768 -1.9910
19110TIP3   OH278744   4.126   1.629   4.423  0.0491  0.1108  0.2767
19110TIP3    H178745   4.045   1.583   4.399  1.0853 -0.8409 -1.7149
19110TIP3    H278746   4.097   1.708   4.467 -1.9736 -0.2552 -0.2932
19111TIP3   OH278747   4.582   5.650  11.356 -0.1027 -0.2210  0.4414
19111TIP3    H178748   4.588   5.689  11.269 -1.9161 -0.2508  0.2672
19111TIP3    H278749   4.604   5.721  11.416  2.2188 -0.4683 -0.0241
19112TIP3   OH278750   0.095   6.028  11.110 -0.5505  0.1699  0.2141
19112TIP3    H178751   0.168   5.975  11.142 -0.8523 -0.0146  0.6047
19112TIP3    H278752   0.024   6.010  11.171 -0.8008  0.6569  0.0720
19113TIP3   OH278753   5.784   2.353  11.375 -0.2231  0.1656 -0.1053
19113TIP3    H178754   5.816   2.264  11.357 -0.7497 -0.1810  0.5869
19113TIP3    H278755   5.797   2.400  11.293  0.3148 -0.4771 -0.4028
19114TIP3   OH278756   4.460   5.896   0.284  0.0522  0.1832 -0.5805
19114TIP3    H178757   4.421   5.951   0.351 -0.5814 -3.0495  1.9595
19114TIP3    H278758   4.529   5.950   0.245 -2.0606  3.4994 -0.0573
19115TIP3   OH278759   5.241   0.511   4.221  0.0822  0.2077  0.4719
19115TIP3    H178760   5.210   0.540   4.136 -1.5935 -0.6729  0.7421
19115TIP3    H278761   5.305   0.577   4.248  0.7560  0.4162 -1.5068
19116TIP3   OH278762   4.611   3.556   4.288  0.0545 -0.6741  0.2116
19116TIP3    H178763   4.688   3.583   4.238  0.3339 -1.6376  0.0933
19116TIP3    H278764   4.549   3.525   4.221 -0.3503 -0.1211  0.3233
19117TIP3   OH278765   2.567   0.622   0.997  0.1955  0.1954 -0.0050
19117TIP3    H178766   2.489   0.595   1.045 -1.8656  0.0579 -3.0800
19117TIP3    H278767   2.559   0.718   0.990  0.8773  0.2992  0.4980
19118TIP3   OH278768   4.064   3.003  16.957 -0.5500  0.3477 -0.2541
19118TIP3    H178769   4.072   2.957  17.040  1.5509  1.7814  0.4212
19118TIP3    H278770   4.069   2.934  16.891 -1.3927 -0.7292  0.7702
19119TIP3   OH278771   0.903   4.524  15.813  0.6802 -0.4916  0.8249
19119TIP3    H178772   0.880   4.434  15.790  0.6456 -0.2151 -0.2792
19119TIP3    H278773   0.987   4.540  15.769 -1.5747  1.5877 -3.3412
19120TIP3   OH278774   0.864   4.490  16.889 -0.2601 -0.1574  0.0194
19120TIP3    H178775   0.933   4.441  16.843 -0.4114 -0.9793  0.6291
19120TIP3    H278776   0.905   4.517  16.971 -0.7242 -0.8930  0.5128
19121TIP3   OH278777   2.638   1.628  13.477  0.2707 -0.4948  0.4027
19121TIP3    H178778   2.554   1.599  13.440 -0.3759 -0.1093  1.5009
19121TIP3    H278779   2.691   1.548  13.480 -0.5519 -1.0452  0.9487
19122TIP3   OH278780   0.153   2.877  16.413  0.2340  0.3415 -0.3171
19122TIP3    H178781   0.238   2.911  16.442  0.9778 -0.3061 -1.6447
19122TIP3    H278782   0.106   2.954  16.381  0.8082  0.5321 -0.7101
19123TIP3   OH278783   2.004   3.630  15.790  0.3109  0.1887  0.3506
19123TIP3    H178784   2.060   3.572  15.843 -0.4991  0.2306  1.2937
19123TIP3    H278785   1.924   3.639  15.842  0.4245  2.2054  0.2652
19124TIP3   OH278786   0.141   3.511  14.498  0.0160 -0.2728  0.2259
19124TIP3    H178787   0.202   3.455  14.449  1.3127  1.4856 -0.2934
19124TIP3    H278788   0.096   3.561  14.430 -0.8094 -0.3735  0.6932
19125TIP3   OH278789   4.116   1.645   6.049  0.6338  0.1569  0.0409
19125TIP3    H178790   4.185   1.646   6.116  0.5424  2.1464  0.1599
19125TIP3    H278791   4.104   1.737   6.026 -1.4995 -0.2039 -0.4752
19126TIP3   OH278792   2.958   2.983   2.719 -0.3970  0.0380  0.3930
19126TIP3    H178793   3.023   2.981   2.789  0.1373 -0.7625 -0.1121
19126TIP3    H278794   2.880   3.019   2.760 -0.2336 -0.8339  1.5306
19127TIP3   OH278795   0.003   0.516  14.633  0.0408 -0.2641 -0.1304
19127TIP3    H178796  -0.023   0.425  14.644 -1.2494  0.1770  0.6727
19127TIP3    H278797  -0.002   0.554  14.720 -1.7646  1.1313 -0.7612
19128TIP3   OH278798   6.294   2.320  13.159 -0.0913  0.5563 -0.5029
19128TIP3    H178799   6.252   2.300  13.243 -1.8390 -0.3836 -1.5318
19128TIP3    H278800   6.295   2.236  13.113  1.3741  0.9386 -1.2292
19129TIP3   OH278801   2.743   3.584   0.650  0.0140 -0.0030  0.5255
19129TIP3    H178802   2.708   3.651   0.592 -0.1900  0.1774  0.8561
19129TIP3    H278803   2.821   3.624   0.688  2.3340 -1.3814 -2.3663
19130TIP3   OH278804   1.881   3.487  13.186 -0.7747  0.3842  0.2622
19130TIP3    H178805   1.803   3.533  13.215 -1.2086 -1.1487  1.7154
19130TIP3    H278806   1.852   3.432  13.114 -1.4783 -1.3840  1.8197
19131TIP3   OH278807   2.776   4.856   4.392 -0.1388  0.2501  0.7879
19131TIP3    H178808   2.727   4.809   4.460 -1.4970 -0.6841 -0.7598
19131TIP3    H278809   2.793   4.942   4.430 -0.2616 -0.4721  2.5522
19132TIP3   OH278810   0.494   2.641  13.172 -0.0127 -0.8058  0.8949
19132TIP3    H178811   0.405   2.621  13.145 -0.3670  0.5066  0.9883
19132TIP3    H278812   0.519   2.570  13.230 -0.9839 -1.2100  0.8364
19133TIP3   OH278813   2.675   2.596   1.331  0.1469  0.3373 -0.2973
19133TIP3    H178814   2.617   2.569   1.260  1.5779 -1.0551 -1.0006
19133TIP3    H278815   2.621   2.654   1.386 -1.2907  0.6411 -1.9503
19134TIP3   OH278816   5.594   5.906   4.600 -0.1110  0.0098 -0.1264
19134TIP3    H178817   5.575   5.865   4.516 -0.9051  1.0097 -0.4531
19134TIP3    H278818   5.682   5.942   4.591 -0.5297  0.8847 -0.8567
19135TIP3   OH278819   1.417   2.935  13.444  0.2328  0.2788 -0.1033
19135TIP3    H178820   1.430   2.845  13.473 -0.9529 -0.5732 -2.0629
19135TIP3    H278821   1.360   2.974  13.510  2.1321  0.1880  1.6973
19136TIP3   OH278822   5.477   1.806   0.006 -0.1332  0.1336 -0.0055
19136TIP3    H178823   5.430   1.724   0.022  1.2268 -0.6752  0.0227
19136TIP3    H278824   5.452   1.862   0.080 -0.8123 -0.3742  0.1633
19137TIP3   OH278825   6.731   3.789   4.790  0.1434  0.3168  0.5081
19137TIP3    H178826   6.767   3.707   4.757 -0.6663 -0.3197  1.1652
19137TIP3    H278827   6.747   3.786   4.885 -1.1284  0.2671  0.7363
19138TIP3   OH278828   2.824   3.194   3.779  0.0891  0.1299  0.0624
19138TIP3    H178829   2.734   3.172   3.754  0.0301 -0.7145  0.9557
19138TIP3    H278830   2.877   3.169   3.703 -0.3165 -0.3707 -0.0576
19139TIP3   OH278831   2.558   2.423   1.991  0.3687 -0.4340 -0.2508
19139TIP3    H178832   2.550   2.328   1.993  0.4457 -0.4506 -0.7484
19139TIP3    H278833   2.468   2.455   2.000  0.4801 -0.5217  1.5799
19140TIP3   OH278834   1.549   3.749  14.930 -0.3570 -0.3836  0.4049
19140TIP3    H178835   1.456   3.768  14.913 -0.3758 -1.0493 -0.2931
19140TIP3    H278836   1.564   3.663  14.890  0.7089 -0.0192 -0.0271
19141TIP3   OH278837   6.713   2.718  15.951 -0.0282  0.2088 -0.2483
19141TIP3    H178838   6.727   2.785  16.017  0.6203 -0.2396  0.0898
19141TIP3    H278839   6.797   2.672  15.945 -0.4901 -0.6481 -0.3804
19142TIP3   OH278840   3.489   2.424   1.506 -0.3773 -0.4455 -0.1611
19142TIP3    H178841   3.523   2.502   1.462 -3.8183  1.1725 -0.2560
19142TIP3    H278842   3.508   2.438   1.599  1.6515 -1.0178 -0.4448
19143TIP3   OH278843   1.167   3.942  15.417  0.1713 -1.0791  0.6406
19143TIP3    H178844   1.091   3.949  15.474 -0.1141 -1.8018  0.3630
19143TIP3    H278845   1.200   3.854  15.432  0.8476 -0.8351  0.6191
19144TIP3   OH278846   2.817   3.408  16.851 -0.4359 -0.1717 -0.2189
19144TIP3    H178847   2.891   3.376  16.902 -0.4867 -0.1098 -0.1071
19144TIP3    H278848   2.845   3.399  16.760  0.3162  1.3079 -0.1605
19145TIP3   OH278849   4.065   5.288  13.941 -0.0877 -0.5737 -0.4824
19145TIP3    H178850   4.102   5.238  13.868 -0.1062 -1.1191 -0.1243
19145TIP3    H278851   3.970   5.276  13.933 -0.1064 -0.4071 -0.5240
19146TIP3   OH278852   6.351   0.420   2.414  0.3171 -0.2451  0.1698
19146TIP3    H178853   6.273   0.380   2.453  0.4714  0.9575  1.8268
19146TIP3    H278854   6.419   0.354   2.424  0.1471 -0.2845  1.2636
19147TIP3   OH278855   5.033   6.709   4.620  0.1288  0.1484  0.4073
19147TIP3    H178856   5.120   6.681   4.645  0.6804  2.0116  0.7570
19147TIP3    H278857   5.046   6.761   4.540 -1.1886 -2.8389 -1.9616
19148TIP3   OH278858   0.769   4.999   1.457 -0.1047 -0.2899  0.9458
19148TIP3    H178859   0.832   5.002   1.529  0.3317 -2.9752  0.7936
19148TIP3    H278860   0.821   4.975   1.380 -1.0452 -0.8814  0.4704
19149TIP3   OH278861   3.194   0.579   2.942  0.3106 -0.1092  0.3168
19149TIP3    H178862   3.188   0.496   2.988 -0.6142 -1.7501 -2.4880
19149TIP3    H278863   3.115   0.627   2.968 -2.3041 -2.6268 -2.2168
19150TIP3   OH278864   3.146   0.062  10.772  0.5990 -0.0837 -0.4198
19150TIP3    H178865   3.092   0.045  10.696 -0.1355 -1.0557  0.2963
19150TIP3    H278866   3.208  -0.011  10.775  2.9051  1.6616 -1.9796
19151TIP3   OH278867   2.076   4.443   5.848 -0.1912  0.2025 -0.2985
19151TIP3    H178868   2.093   4.537   5.853  1.5885 -0.0101 -1.4253
19151TIP3    H278869   2.142   4.404   5.906 -1.2468 -0.3554  0.5687
19152TIP3   OH278870   5.706   5.286  15.388 -0.1565 -0.5893  0.2389
19152TIP3    H178871   5.772   5.316  15.327 -1.0174 -0.0541 -0.4593
19152TIP3    H278872   5.671   5.206  15.348 -2.1292  0.8369 -1.0596
19153TIP3   OH278873   1.536   1.748   6.079 -0.4561 -0.0646  0.0665
19153TIP3    H178874   1.606   1.682   6.077 -0.8675 -0.4896 -1.3566
19153TIP3    H278875   1.471   1.712   6.139  0.0131 -0.2286  0.4822
19154TIP3   OH278876   1.283   0.612  15.735  0.8048  0.0953  0.1415
19154TIP3    H178877   1.330   0.631  15.817 -0.1172 -1.5847  1.1170
19154TIP3    H278878   1.227   0.538  15.757 -1.9099  1.6533 -1.1245
19155TIP3   OH278879   3.274   3.541  16.891 -0.2638  0.7529  0.0272
19155TIP3    H178880   3.309   3.500  16.812  1.8694 -1.9433  2.1550
19155TIP3    H278881   3.350   3.582  16.932 -0.4337 -1.1214  2.4373
19156TIP3   OH278882   6.528   1.096  12.541 -0.1326  0.4814 -0.2051
19156TIP3    H178883   6.568   1.108  12.627 -0.2208 -0.1251 -0.0804
19156TIP3    H278884   6.438   1.068  12.559  0.2375 -0.9331 -0.4932
19157TIP3   OH278885   5.805   5.845  15.756  0.7048 -0.6950  0.1289
19157TIP3    H178886   5.755   5.926  15.768 -0.4263 -0.8445 -2.7191
19157TIP3    H278887   5.742   5.783  15.720  1.4173 -3.1156  2.7136
19158TIP3   OH278888   1.880   2.439   2.855  0.2198 -0.2513  0.6508
19158TIP3    H178889   1.809   2.500   2.873 -0.0132  0.2232 -1.5493
19158TIP3    H278890   1.959   2.483   2.886  0.1234  1.5003 -1.3715
19159TIP3   OH278891   4.282   5.920  11.993 -0.3867 -0.4638 -0.1025
19159TIP3    H178892   4.337   5.994  11.970 -0.3909 -0.1599  0.8570
19159TIP3    H278893   4.322   5.846  11.946  1.4864 -0.4678  1.3826
19160TIP3   OH278894   5.679   1.460  13.432 -0.2876 -0.7218  0.4846
19160TIP3    H178895   5.727   1.379  13.418 -0.3039 -0.7190  0.4079
19160TIP3    H278896   5.744   1.522  13.465 -0.0314 -0.4541 -0.4801
19161TIP3   OH278897   0.802   0.160   0.096  0.3832  0.2400  0.3045
19161TIP3    H178898   0.825   0.114   0.016 -0.9646 -0.2185  0.1719
19161TIP3    H278899   0.707   0.170   0.093  0.2618 -0.0869  2.0071
19162TIP3   OH278900   5.417   6.248   2.306 -0.3967  0.0340 -0.1818
19162TIP3    H178901   5.388   6.338   2.325 -0.5203 -0.3067  1.3598
19162TIP3    H278902   5.458   6.254   2.219 -0.9982  1.4405 -0.3996
19163TIP3   OH278903   5.517   5.486   2.388  0.2644  0.2188 -0.2407
19163TIP3    H178904   5.524   5.581   2.390  1.8432  0.1170 -0.3819
19163TIP3    H278905   5.539   5.458   2.477 -1.1975  0.0121  0.0944
19164TIP3   OH278906   4.260   2.339  12.270  0.5851  0.0122 -0.1286
19164TIP3    H178907   4.177   2.386  12.275  0.0145 -0.8223 -1.2502
19164TIP3    H278908   4.327   2.407  12.268 -0.2040  0.7966 -1.3840
19165TIP3   OH278909   3.759   4.966  13.402 -0.3411 -0.0799  0.0748
19165TIP3    H178910   3.776   4.973  13.496  1.9749 -2.3984 -0.0507
19165TIP3    H278911   3.798   4.882  13.376 -1.7588  0.0010 -2.8046
19166TIP3   OH278912   5.785   4.910   2.118  0.1670  0.3035  0.1911
19166TIP3    H178913   5.735   4.845   2.069 -0.0982  0.0651  0.7765
19166TIP3    H278914   5.787   4.987   2.061  1.2523 -0.4993 -0.9029
19167TIP3   OH278915   6.601   3.031   2.759  0.6851  0.5415  0.0167
19167TIP3    H178916   6.512   3.058   2.738  0.3215 -0.7750 -0.1946
19167TIP3    H278917   6.647   3.113   2.778 -0.7263  1.1850  0.7820
19168TIP3   OH278918   5.545   0.071   5.886  0.0865 -0.8155  0.5612
19168TIP3    H178919   5.565   0.159   5.852 -2.0102 -0.2527  0.6053
19168TIP3    H278920   5.512   0.023   5.810 -2.9137 -0.1158  1.2645
19169TIP3   OH278921   1.966   6.358  15.024  0.0034  0.5359  0.6849
19169TIP3    H178922   1.948   6.439  14.976 -1.4754  1.1081  2.1552
19169TIP3    H278923   1.995   6.387  15.110 -0.0051 -0.5099  1.0503
19170TIP3   OH278924   1.384   1.143   3.503 -0.0191  0.1288  0.0231
19170TIP3    H178925   1.361   1.067   3.557 -1.2947  0.4062 -0.1175
19170TIP3    H278926   1.478   1.133   3.488 -0.1273 -1.3400  0.1408
19171TIP3   OH278927   3.854   1.102  11.720  0.0073 -0.5269 -0.0986
19171TIP3    H178928   3.904   1.084  11.641  1.1705 -0.7607  0.6631
19171TIP3    H278929   3.789   1.032  11.724 -0.8198  0.1197 -1.4140
19172TIP3   OH278930   3.524   1.087   5.929  0.4249 -0.0092  0.0653
19172TIP3    H178931   3.548   1.069   6.020 -1.8347  1.0641  0.9598
19172TIP3    H278932   3.505   1.001   5.892  1.2630 -0.4478  0.6247
19173TIP3   OH278933   3.756   1.972   6.802 -1.0919  0.5226 -0.0568
19173TIP3    H178934   3.790   2.047   6.753  0.6164 -0.8693 -1.0838
19173TIP3    H278935   3.773   1.995   6.894  0.5546  0.9075 -0.4174
19174TIP3   OH278936   6.700   0.376  11.268 -0.0481  0.2452  0.3802
19174TIP3    H178937   6.721   0.469  11.253 -2.4291  0.8671  0.6154
19174TIP3    H278938   6.722   0.334  11.185  0.4141  1.1370  0.0274
19175TIP3   OH278939   3.092   2.527  15.838 -0.7694  0.1619  0.3152
19175TIP3    H178940   3.119   2.617  15.857  2.6207 -0.2020 -1.9179
19175TIP3    H278941   3.132   2.476  15.908 -1.7198  0.2336  0.9307
19176TIP3   OH278942   1.745   2.740  15.025  0.8079  0.7595 -0.2381
19176TIP3    H178943   1.823   2.795  15.019  0.5658  0.9335 -2.8822
19176TIP3    H278944   1.711   2.736  14.935 -1.4121 -0.5021  0.5714
19177TIP3   OH278945   0.277   4.868   2.789 -0.3422  0.1399 -0.6120
19177TIP3    H178946   0.294   4.787   2.740 -1.1555  0.7696 -1.9962
19177TIP3    H278947   0.238   4.927   2.725 -2.3173  0.7112  1.0251
19178TIP3   OH278948   6.011   0.366   5.751  0.2601  0.2422  0.3823
19178TIP3    H178949   6.032   0.325   5.667  0.1922 -0.4099  0.6746
19178TIP3    H278950   6.012   0.294   5.813 -0.9714  0.4904  0.7243
19179TIP3   OH278951   4.998   3.251   4.267 -0.0601 -0.1354 -0.2272
19179TIP3    H178952   4.950   3.319   4.314  1.2683  3.1912 -3.2586
19179TIP3    H278953   4.939   3.223   4.197  0.6732  0.6641 -1.2042
19180TIP3   OH278954   4.206   0.783  13.588 -0.6265 -0.3879 -0.1037
19180TIP3    H178955   4.255   0.806  13.509 -1.2047  0.2175 -0.2934
19180TIP3    H278956   4.116   0.810  13.570 -1.0681 -1.6011  0.1939
19181TIP3   OH278957   2.238   1.722  11.327 -0.3112 -0.0637 -0.1026
19181TIP3    H178958   2.281   1.795  11.372 -1.0778 -0.0407  0.6055
19181TIP3    H278959   2.145   1.744  11.328 -0.6338 -1.3505  0.6931
19182TIP3   OH278960   6.543   1.017  13.819 -0.3403 -0.1306  0.0260
19182TIP3    H178961   6.622   1.014  13.765 -0.2232  0.6661  0.1387
19182TIP3    H278962   6.575   1.007  13.909 -0.5579 -1.7017 -0.0442
19183TIP3   OH278963   4.929   2.156   3.167  0.2401 -0.0179 -0.5334
19183TIP3    H178964   5.016   2.171   3.129  1.3112 -1.4485  1.1678
19183TIP3    H278965   4.934   2.067   3.203 -1.7057  0.1335  0.2391
19184TIP3   OH278966   5.255   3.457  11.658  0.2702 -0.1137 -0.1227
19184TIP3    H178967   5.241   3.462  11.563 -0.2812 -0.2771 -0.0523
19184TIP3    H278968   5.345   3.423  11.667 -0.0858 -1.2262 -0.5872
19185TIP3   OH278969   1.907   2.096  11.352  0.1005 -0.5764 -0.1343
19185TIP3    H178970   1.893   2.185  11.321 -1.3474 -0.8637 -0.3664
19185TIP3    H278971   1.902   2.042  11.273  3.0236 -0.7352 -0.3390
19186TIP3   OH278972   2.364   5.065   5.048 -0.7469  0.3421 -0.0011
19186TIP3    H178973   2.378   4.985   4.998  0.0943 -0.9746  2.1639
19186TIP3    H278974   2.334   5.129   4.984 -0.8787 -1.5287 -1.9226
19187TIP3   OH278975   2.330   4.642   2.341 -0.0302  0.1270 -0.1909
19187TIP3    H178976   2.246   4.660   2.297 -0.3488 -1.6663 -0.3765
19187TIP3    H278977   2.363   4.729   2.365 -2.6933  0.8552  1.3165
19188TIP3   OH278978   4.631   5.203  14.817  0.0285 -0.8757  0.0361
19188TIP3    H178979   4.657   5.185  14.727  0.6818  2.5745 -0.5786
19188TIP3    H278980   4.546   5.158  14.827  0.0084 -1.4464 -2.2099
19189TIP3   OH278981   2.428   1.871   2.228 -0.3213  0.4114  0.0468
19189TIP3    H178982   2.475   1.797   2.268  1.9741  0.2898 -2.5690
19189TIP3    H278983   2.347   1.833   2.194  0.8375 -0.9915 -1.2852
19190TIP3   OH278984   1.442   6.012  12.888 -0.0900  0.3085  0.5907
19190TIP3    H178985   1.503   6.018  12.815  1.3462  2.5779  1.8455
19190TIP3    H278986   1.375   5.950  12.859  0.4638  1.0204 -2.5953
19191TIP3   OH278987   5.190   3.784   2.394  0.4130  0.0632 -0.3121
19191TIP3    H178988   5.128   3.727   2.441  0.3327  0.9014  0.6415
19191TIP3    H278989   5.197   3.745   2.307 -0.7544 -0.5705 -0.1500
19192TIP3   OH278990   2.204   4.566  14.534  0.5809  0.5837  0.3188
19192TIP3    H178991   2.230   4.652  14.566 -0.1203  0.6455  0.7535
19192TIP3    H278992   2.209   4.573  14.439  2.3198  0.5181  0.3873
19193TIP3   OH278993   3.811   6.076   4.739 -0.3772  0.1494  0.2043
19193TIP3    H178994   3.807   6.134   4.663  0.6569  1.1714  0.8994
19193TIP3    H278995   3.903   6.076   4.765 -0.6275 -0.5775  1.1649
19194TIP3   OH278996   0.660   5.989   3.904  0.2830 -0.0290  0.3243
19194TIP3    H178997   0.734   6.030   3.859 -0.0382 -0.9482 -1.0888
19194TIP3    H278998   0.697   5.910   3.943 -0.1048 -0.9283 -1.0893
19195TIP3   OH278999   4.652   4.191   3.098  0.3508 -0.0077 -0.4865
19195TIP3    H179000   4.735   4.154   3.065  1.5945  1.5576  0.7273
19195TIP3    H279001   4.628   4.256   3.032  0.3617 -0.0878 -0.5715
19196TIP3   OH279002   3.650   2.854   3.796 -0.0137 -0.0472 -0.3088
19196TIP3    H179003   3.699   2.906   3.858  0.2163 -0.3624 -0.2248
19196TIP3    H279004   3.593   2.917   3.751  0.3440  0.2899 -0.2923
19197TIP3   OH279005   2.991   4.226  13.434 -0.3626 -0.0891  0.1831
19197TIP3    H179006   2.961   4.144  13.393  0.4155  0.4548 -1.5477
19197TIP3    H279007   2.910   4.271  13.458 -0.8383 -0.6031 -0.4230
19198TIP3   OH279008   1.034   4.179   1.425 -0.1029  0.0143  0.0589
19198TIP3    H179009   0.983   4.259   1.435 -1.6965 -0.9355 -0.1083
19198TIP3    H279010   1.032   4.139   1.512 -1.3286 -0.9637 -0.3842
19199TIP3   OH279011   0.726   4.762   3.766 -0.2988 -0.8994 -0.1976
19199TIP3    H179012   0.670   4.797   3.835  0.3321 -0.3167  0.0287
19199TIP3    H279013   0.763   4.682   3.803  0.5411 -0.2527  0.3980
19200TIP3   OH279014   0.698   2.477   2.114 -0.1412 -0.5656  0.1355
19200TIP3    H179015   0.731   2.560   2.079  0.2682 -1.1071 -0.8039
19200TIP3    H279016   0.670   2.428   2.036  0.8136 -1.8123  0.5547
19201TIP3   OH279017   2.148   3.864   5.381  0.3006  0.0429  0.2628
19201TIP3    H179018   2.070   3.887   5.329 -0.8594 -0.1688  1.8482
19201TIP3    H279019   2.221   3.872   5.319 -0.6825  2.4595 -0.7236
19202TIP3   OH279020   1.086   2.749  16.978 -0.3109  0.4182 -0.0675
19202TIP3    H179021   1.097   2.660  17.012  1.6230  0.3969 -0.6331
19202TIP3    H279022   1.060   2.801  17.054 -0.1726 -0.3780  0.5379
19203TIP3   OH279023   6.768   5.757   3.022 -0.0830  0.1924  0.2744
19203TIP3    H179024   6.860   5.732   3.032 -0.0163  0.0834 -0.5653
19203TIP3    H279025   6.747   5.803   3.104  0.9761  1.0146  0.1033
19204TIP3   OH279026   0.900   4.320  16.225 -0.1678  0.2652 -0.6302
19204TIP3    H179027   0.816   4.328  16.179 -0.7200 -1.2941  0.0427
19204TIP3    H279028   0.944   4.246  16.183  0.4062  0.3979 -0.2726
19205TIP3   OH279029   2.042   6.632  12.174 -0.3258 -0.0622  0.1118
19205TIP3    H179030   2.055   6.606  12.083  0.6642 -0.2536  0.2992
19205TIP3    H279031   1.950   6.660  12.178 -0.5680 -0.6796 -0.7878
19206TIP3   OH279032   5.522   2.904  14.758 -0.2068 -0.5230  0.4348
19206TIP3    H179033   5.536   2.860  14.842 -0.3945 -1.2685  0.0843
19206TIP3    H279034   5.446   2.859  14.719 -0.4971  0.2071  0.1258
19207TIP3   OH279035   5.073   3.387  16.302 -0.4630 -0.1325  0.2475
19207TIP3    H179036   5.107   3.300  16.325 -0.4664  0.1085  1.2093
19207TIP3    H279037   5.144   3.447  16.324 -1.9819  0.5961  4.0771
19208TIP3   OH279038   5.131   6.336   3.377  0.2447  0.1184 -0.1861
19208TIP3    H179039   5.162   6.423   3.402  1.0741  0.5297 -2.4020
19208TIP3    H279040   5.053   6.322   3.430  0.6765  1.7623  0.9621
19209TIP3   OH279041   3.613   1.733   4.836 -0.9026 -0.0550 -0.0418
19209TIP3    H179042   3.696   1.773   4.861 -0.4189 -0.1087 -1.4559
19209TIP3    H279043   3.550   1.767   4.899  0.0546  0.5696  0.6075
19210TIP3   OH279044   6.432   0.412  15.820  0.1140  0.2135 -0.1789
19210TIP3    H179045   6.368   0.343  15.837 -1.1076  0.7744 -2.2279
19210TIP3    H279046   6.405   0.484  15.877  0.4517 -0.4095  0.8007
19211TIP3   OH279047   2.821   1.754   6.020  0.1612 -0.6651  0.5182
19211TIP3    H179048   2.832   1.734   6.114  1.6969 -0.9117  0.3051
19211TIP3    H279049   2.910   1.761   5.986 -0.2220  3.4671 -0.1470
19212TIP3   OH279050   3.933   3.877  17.229 -0.1240 -0.1701  0.3485
19212TIP3    H179051   3.983   3.850  17.152  2.1952  2.1006  0.9237
19212TIP3    H279052   3.878   3.949  17.198  0.4903  0.4595  0.7002
19213TIP3   OH279053   3.256   3.034  16.454  0.6107  0.0523 -0.2049
19213TIP3    H179054   3.204   2.958  16.480  0.2023  0.1660 -0.6755
19213TIP3    H279055   3.227   3.053  16.365  0.5250  0.9232  0.0015
19214TIP3   OH279056   6.329   3.061  11.695  0.0712 -0.1189 -0.0395
19214TIP3    H179057   6.289   3.127  11.637  1.2684 -0.1816 -0.9800
19214TIP3    H279058   6.278   2.982  11.679  0.6542 -0.2587 -1.3990
19215TIP3   OH279059   1.950   1.950   1.442 -0.1123 -0.4814 -0.4206
19215TIP3    H179060   1.903   1.868   1.457 -1.8034  0.6500  0.6660
19215TIP3    H279061   1.906   1.990   1.367  2.6403 -1.8966 -2.9977
19216TIP3   OH279062   1.711   1.705   1.777 -0.9275  0.8823 -0.1765
19216TIP3    H179063   1.701   1.613   1.801 -1.5397  0.9778 -0.0264
19216TIP3    H279064   1.787   1.735   1.827 -1.7427  0.8877  1.1137
19217TIP3   OH279065   2.318   5.211  15.526 -0.2152 -0.2028 -0.2709
19217TIP3    H179066   2.273   5.177  15.603 -0.6597  0.6455 -0.1476
19217TIP3    H279067   2.407   5.177  15.534 -0.6950 -1.4874 -0.2654
19218TIP3   OH279068   1.781   3.956  16.603 -0.1017  0.0743 -0.5591
19218TIP3    H179069   1.799   3.921  16.516  1.5819 -0.5659 -0.0097
19218TIP3    H279070   1.854   3.924  16.656  0.0472  2.1911  0.6048
19219TIP3   OH279071   0.382   0.860   4.733  0.3958 -0.1324 -0.0291
19219TIP3    H179072   0.470   0.893   4.748  0.2389  0.4570 -0.3424
19219TIP3    H279073   0.354   0.905   4.653 -0.4496  0.2347  0.4584
19220TIP3   OH279074   3.715   0.870   3.351  0.2400  0.4836 -0.3968
19220TIP3    H179075   3.761   0.877   3.267  0.9662 -2.0870 -0.3133
19220TIP3    H279076   3.749   0.790   3.390  0.5992  2.0656  2.8416
19221TIP3   OH279077   0.413   6.329  16.087 -0.3515 -0.0116 -0.5884
19221TIP3    H179078   0.356   6.297  16.158 -1.7849  1.3303 -1.0784
19221TIP3    H279079   0.410   6.260  16.021  3.2210 -2.6431  1.6059
19222TIP3   OH279080   5.947   2.297  13.928 -0.4529  0.5121 -0.1578
19222TIP3    H179081   5.903   2.322  13.847  1.3092  0.3498 -1.2012
19222TIP3    H279082   6.009   2.367  13.945 -0.2344  0.1411  0.6299
19223TIP3   OH279083   3.018   4.514   0.850 -0.0466  0.2688  0.2251
19223TIP3    H179084   3.038   4.606   0.869 -0.6685  0.7570 -1.3564
19223TIP3    H279085   3.070   4.465   0.913  0.8294  1.6900  0.6498
19224TIP3   OH279086   3.841   0.549   4.427 -0.4371 -0.2669 -0.4344
19224TIP3    H179087   3.912   0.610   4.407  0.2799 -1.2680 -1.0085
19224TIP3    H279088   3.869   0.466   4.388 -1.6640 -0.8195 -0.1750
19225TIP3   OH279089   2.870   0.378  16.003  0.2633 -0.5420  0.1206
19225TIP3    H179090   2.847   0.285  15.994 -1.7687 -0.3169  2.0523
19225TIP3    H279091   2.859   0.414  15.915  0.3043 -1.9573 -0.4979
19226TIP3   OH279092   4.683   4.427   2.594  0.5420  0.3340  0.2266
19226TIP3    H179093   4.590   4.439   2.575  0.5471  0.8637  0.5349
19226TIP3    H279094   4.726   4.504   2.557  0.8531  0.1364  0.1659
19227TIP3   OH279095   0.315   3.378   5.671 -0.3552 -0.3905  0.5117
19227TIP3    H179096   0.349   3.449   5.726  1.2668 -0.5422 -0.2713
19227TIP3    H279097   0.285   3.422   5.592 -3.5391 -0.0462  1.7399
19228TIP3   OH279098   0.041   2.497   0.007 -0.0025  0.1281  0.1912
19228TIP3    H179099  -0.014   2.525  -0.067 -0.6953 -2.0976 -0.2243
19228TIP3    H279100   0.130   2.498  -0.028  0.2667  3.1750  0.6829
19229TIP3   OH279101   1.423   4.023  14.151  0.4702 -0.0618  1.3580
19229TIP3    H179102   1.411   3.928  14.156  0.3704 -0.0860  0.7709
19229TIP3    H279103   1.480   4.036  14.075 -1.4740  0.4959 -0.0746
19230TIP3   OH279104   0.265   6.578   3.520 -0.1926 -0.3670 -0.5057
19230TIP3    H179105   0.173   6.604   3.516 -0.3133 -0.8715 -1.0449
19230TIP3    H279106   0.304   6.638   3.584 -0.5662  0.8342 -1.3816
19231TIP3   OH279107   5.563   1.345   1.341  1.0769  0.0782  0.2799
19231TIP3    H179108   5.477   1.386   1.349 -0.9138 -3.3411 -1.1220
19231TIP3    H279109   5.609   1.397   1.275  0.2428  2.1367  1.2535
19232TIP3   OH279110   4.219   3.913   6.740 -0.1886 -0.0044 -0.6324
19232TIP3    H179111   4.167   3.993   6.733 -0.8825 -0.3100  0.7542
19232TIP3    H279112   4.158   3.843   6.717 -0.1357 -0.2827  0.0492
19233TIP3   OH279113   0.251   3.299   5.290  0.3178 -0.4766  0.2914
19233TIP3    H179114   0.320   3.346   5.336 -0.9890  0.3149  1.5263
19233TIP3    H279115   0.256   3.330   5.200 -0.9743  2.6771  1.1990
19234TIP3   OH279116   4.567   5.935  15.669  0.3248 -0.5103 -0.7937
19234TIP3    H179117   4.487   5.979  15.640 -0.7076 -1.1820  0.8845
19234TIP3    H279118   4.620   6.005  15.709 -0.8563 -0.5366  0.9292
19235TIP3   OH279119   5.656   6.445   1.450  0.9303  0.3611 -0.4534
19235TIP3    H179120   5.713   6.518   1.426  1.8712 -0.1585  0.1435
19235TIP3    H279121   5.712   6.368   1.442 -0.5354 -0.5695 -2.9407
19236TIP3   OH279122   0.768   0.120  14.560  0.1144 -0.1737  0.0206
19236TIP3    H179123   0.789   0.128  14.466  0.1358 -0.3321  0.0109
19236TIP3    H279124   0.779   0.208  14.595 -0.1526 -0.0614 -0.1785
19237TIP3   OH279125   4.202   5.867   5.501 -0.1536  0.1674 -0.3164
19237TIP3    H179126   4.225   5.938   5.561 -0.3142 -0.8081  0.9544
19237TIP3    H279127   4.235   5.788   5.544  0.6316 -0.4756 -2.0186
19238TIP3   OH279128   2.093   6.733  11.072  0.1609 -0.2986  0.3495
19238TIP3    H179129   2.127   6.705  10.987 -1.3194  0.6340 -0.5936
19238TIP3    H279130   2.098   6.828  11.070 -0.0944 -0.2598  1.2254
19239TIP3   OH279131   0.745   5.287   6.583 -0.3198  0.3842 -0.3159
19239TIP3    H179132   0.735   5.317   6.492 -1.7365  0.9121 -0.0197
19239TIP3    H279133   0.831   5.319   6.610  0.8269 -1.1392 -1.9520
19240TIP3   OH279134   4.283   5.434   4.664 -0.2790 -0.7723  0.4977
19240TIP3    H179135   4.346   5.464   4.729 -1.3243 -0.4180  1.3937
19240TIP3    H279136   4.209   5.494   4.673 -1.0886 -1.6694  0.0695
19241TIP3   OH279137   3.924   4.154  13.058 -0.4137  0.5879  0.1444
19241TIP3    H179138   3.879   4.232  13.092 -0.6140  1.2447 -1.5648
19241TIP3    H279139   4.003   4.188  13.017 -0.9402  0.0256 -1.4151
19242TIP3   OH279140   6.310   2.882  12.513  0.1116  0.4409  0.3747
19242TIP3    H179141   6.250   2.926  12.573 -1.1235 -0.2360 -0.3221
19242TIP3    H279142   6.304   2.931  12.432  0.2953  0.1991  0.2116
19243TIP3   OH279143   4.546   6.334  14.844 -0.4198 -0.4921 -0.6281
19243TIP3    H179144   4.467   6.315  14.793  0.1618 -3.0609 -0.7188
19243TIP3    H279145   4.613   6.354  14.778 -0.0992 -2.0929 -0.8289
19244TIP3   OH279146   2.273   5.116  13.974  0.3950  0.6327 -0.0596
19244TIP3    H179147   2.256   5.024  13.953  0.2966  0.7542 -0.5049
19244TIP3    H279148   2.348   5.140  13.921 -0.4439  1.2110 -1.0120
19245TIP3   OH279149   5.155   3.095   5.049  0.1167 -0.0145 -0.4035
19245TIP3    H179150   5.064   3.077   5.075  0.1249 -1.9195 -1.4908
19245TIP3    H279151   5.152   3.098   4.954  1.3974 -1.6244 -0.5367
19246TIP3   OH279152   0.631   1.313   4.468  0.2446 -0.2386 -0.0458
19246TIP3    H179153   0.622   1.408   4.476 -0.0655 -0.1823 -0.9276
19246TIP3    H279154   0.647   1.299   4.375 -1.2742 -1.1802 -0.1872
19247TIP3   OH279155   1.868   3.571   1.308 -0.1461  0.1225 -0.2594
19247TIP3    H179156   1.811   3.516   1.255  0.4859 -1.0576  0.2531
19247TIP3    H279157   1.875   3.653   1.259 -0.4519 -0.5374 -1.4336
19248TIP3   OH279158   5.359   1.276   5.923  0.4486 -0.3875 -0.2796
19248TIP3    H179159   5.448   1.314   5.919  0.5503 -0.5644  0.2517
19248TIP3    H279160   5.303   1.346   5.889  0.5822  0.4422  1.1098
19249TIP3   OH279161   4.569   5.520  12.346  0.2964  0.5012  0.7710
19249TIP3    H179162   4.496   5.581  12.355  1.1560  1.6593  0.0210
19249TIP3    H279163   4.646   5.570  12.371  0.9582 -0.4356  0.6423
19250TIP3   OH279164   6.122   4.326   6.049 -0.3286  0.1021  0.2144
19250TIP3    H179165   6.181   4.361   6.116 -0.7801 -1.5947  1.5608
19250TIP3    H279166   6.097   4.402   5.998  2.2459  1.0359  0.1938
19251TIP3   OH279167   4.360   2.277   2.658 -0.0177 -0.2287  0.6139
19251TIP3    H179168   4.424   2.298   2.590 -1.4008  2.9549  0.1200
19251TIP3    H279169   4.408   2.288   2.740  0.5040  0.5098  0.2227
19252TIP3   OH279170   1.811   1.977  14.147  0.0098  0.3995 -0.1158
19252TIP3    H179171   1.811   1.951  14.239  1.4195  0.5274 -0.0609
19252TIP3    H279172   1.776   1.901  14.101  2.3594 -0.9701  0.2210
19253TIP3   OH279173   4.853   4.455   0.229  0.2102  0.0772  0.4161
19253TIP3    H179174   4.784   4.439   0.292  0.4759 -1.0936  0.4339
19253TIP3    H279175   4.848   4.549   0.211 -1.6823 -0.0478  0.0529
19254TIP3   OH279176   0.669   0.181   1.930  0.0948  0.2738  0.0466
19254TIP3    H179177   0.611   0.164   2.004 -1.0496  1.8902 -0.4153
19254TIP3    H279178   0.611   0.217   1.862  1.7077  2.8294 -0.1341
19255TIP3   OH279179   4.095   0.059  16.910  0.2172 -0.8385  0.1752
19255TIP3    H179180   4.008   0.057  16.871  0.0266  0.7579  0.4405
19255TIP3    H279181   4.149   0.107  16.847  0.8835 -1.6999  0.0722
19256TIP3   OH279182   1.681   6.757   1.397  0.1578 -0.5041  0.3556
19256TIP3    H179183   1.587   6.757   1.418  0.0651 -0.8971 -0.0315
19256TIP3    H279184   1.698   6.668   1.366  0.8562 -0.6893  1.2670
19257TIP3   OH279185   5.694   2.542   3.807 -0.0778 -0.4485  0.2323
19257TIP3    H179186   5.621   2.597   3.778 -0.9287 -1.3053  0.6805
19257TIP3    H279187   5.731   2.506   3.727 -1.3759 -1.5048  0.0627
19258TIP3   OH279188   3.328   6.205   0.126 -0.1080 -1.1208  0.5496
19258TIP3    H179189   3.384   6.128   0.131 -0.3174 -1.2661  0.6836
19258TIP3    H279190   3.386   6.279   0.142  0.0729 -1.2599  0.5332
19259TIP3   OH279191   3.332   0.576  15.002 -0.4177  0.0801  0.1999
19259TIP3    H179192   3.320   0.612  15.090 -2.4564 -0.7668  0.3132
19259TIP3    H279193   3.383   0.643  14.956 -1.9933  2.0010  1.1194
19260TIP3   OH279194   0.559   2.550  12.829  0.3424 -0.0392  0.2519
19260TIP3    H179195   0.619   2.614  12.791 -1.8379  1.9407 -0.0863
19260TIP3    H279196   0.500   2.602  12.883 -1.0292 -1.9098  0.6367
19261TIP3   OH279197   4.441   3.786  15.965  0.0845  0.1969 -0.0159
19261TIP3    H179198   4.377   3.857  15.972 -1.1109 -0.9586  1.4395
19261TIP3    H279199   4.514   3.814  16.020  0.0770  0.7189 -0.2582
19262TIP3   OH279200   1.072   3.989   3.026 -0.7920 -0.0863 -0.6875
19262TIP3    H179201   1.008   4.050   3.062  0.6205  0.7665  0.4502
19262TIP3    H279202   1.065   3.911   3.081 -0.8178  0.0145 -0.5496
19263TIP3   OH279203   1.985   6.666  16.891 -0.1907  0.8164  0.4839
19263TIP3    H179204   1.982   6.739  16.829  3.6848  1.1594  0.4425
19263TIP3    H279205   1.914   6.608  16.863  0.1152  1.9017 -3.0596
19264TIP3   OH279206   5.080   0.191  12.818 -0.0097 -0.4030 -0.3263
19264TIP3    H179207   5.119   0.169  12.733 -0.3982 -1.9950 -0.1235
19264TIP3    H279208   5.127   0.269  12.846 -0.3049  0.5346 -2.2819
19265TIP3   OH279209   4.212   0.149  11.815  0.0336  0.3838  0.5251
19265TIP3    H179210   4.189   0.057  11.813 -1.3652  0.7079 -0.9180
19265TIP3    H279211   4.269   0.162  11.739  0.6504  0.6076  1.0203
19266TIP3   OH279212   3.351   5.429   0.347  0.2385 -0.3787 -0.1146
19266TIP3    H179213   3.395   5.356   0.392  1.6654  0.7012  0.3086
19266TIP3    H279214   3.258   5.410   0.358  0.4778 -0.2616  3.2638
19267TIP3   OH279215   2.560   1.587  12.188  0.5212 -0.4830  0.8971
19267TIP3    H179216   2.593   1.658  12.132  0.0783 -1.0316 -0.0927
19267TIP3    H279217   2.466   1.584  12.168  0.7859 -2.3660 -0.2894
19268TIP3   OH279218   2.050   1.990  15.814 -0.0723  0.1857 -0.3203
19268TIP3    H179219   2.111   2.046  15.861 -0.2643 -0.2276  0.4350
19268TIP3    H279220   2.045   1.910  15.867 -0.6361 -0.1105 -0.8058
19269TIP3   OH279221   1.755   4.991   6.101 -0.1546 -0.2393  0.2209
19269TIP3    H179222   1.731   4.958   6.188 -0.5515  1.3015  0.7284
19269TIP3    H279223   1.759   4.913   6.046 -1.7119 -1.0683  1.2072
19270TIP3   OH279224   1.894   5.975  11.047  0.2382 -0.2005  0.3481
19270TIP3    H179225   1.872   5.887  11.017  0.8937 -0.2438 -0.0216
19270TIP3    H279226   1.851   6.033  10.983  0.6859 -0.2761 -0.0310
19271TIP3   OH279227   0.353   2.653   2.683 -0.5754  0.6101  0.2357
19271TIP3    H179228   0.261   2.644   2.708 -0.5269 -0.3641  0.1064
19271TIP3    H279229   0.401   2.628   2.762 -0.4218 -2.4522 -0.6800
19272TIP3   OH279230   5.510   4.427  13.823 -0.6948 -0.0612 -0.1000
19272TIP3    H179231   5.529   4.462  13.910 -1.6108 -0.9227  0.4591
19272TIP3    H279232   5.539   4.336  13.827 -3.6377 -1.0729  0.3942
19273TIP3   OH279233   6.594   0.096   2.610  0.6056  0.2415 -0.3950
19273TIP3    H179234   6.673   0.098   2.665 -0.6649  0.3659  1.5078
19273TIP3    H279235   6.561   0.007   2.619  0.3135  0.2991 -0.8704
19274TIP3   OH279236   6.501   1.056  11.600  0.2114  0.2461 -0.1548
19274TIP3    H179237   6.508   1.036  11.507  0.9436 -0.2656 -0.0010
19274TIP3    H279238   6.409   1.079  11.614 -0.3592 -1.5988 -0.6249
19275TIP3   OH279239   4.497   3.436  15.054 -0.0577 -0.1677  0.1262
19275TIP3    H179240   4.419   3.489  15.040 -0.8034  0.0909  4.0984
19275TIP3    H279241   4.566   3.500  15.073  0.7848 -0.4729 -1.6580
19276TIP3   OH279242   6.150   4.202   1.192 -0.1499  0.0855  0.3453
19276TIP3    H179243   6.081   4.138   1.172  1.1607 -0.8816 -1.4550
19276TIP3    H279244   6.221   4.149   1.230  0.9569  0.3891 -1.1748
19277TIP3   OH279245   1.437   3.973   2.467 -0.4777  0.3508  0.1457
19277TIP3    H179246   1.402   4.054   2.505 -1.4451  0.2321 -0.4609
19277TIP3    H279247   1.462   3.997   2.378  1.2674  0.4910  0.6294
19278TIP3   OH279248   1.454   2.388   3.263  0.4025 -0.0271 -0.5493
19278TIP3    H179249   1.460   2.294   3.282  1.0431  0.0637 -0.2730
19278TIP3    H279250   1.447   2.429   3.349 -0.1907  0.1570 -0.6869
19279TIP3   OH279251   4.814   4.175   5.214  0.5190 -0.3396 -0.2340
19279TIP3    H179252   4.883   4.237   5.239  0.6981 -0.4382 -0.4704
19279TIP3    H279253   4.781   4.208   5.131  0.6851 -0.6150 -0.4119
19280TIP3   OH279254   6.677   6.475   2.351  0.6755  0.2208  0.3713
19280TIP3    H179255   6.585   6.461   2.372  0.3349  1.9057  0.1067
19280TIP3    H279256   6.709   6.388   2.327 -0.7731 -0.4333  0.6673
19281TIP3   OH279257   0.791   4.898  16.399 -0.0905  0.1007 -0.0092
19281TIP3    H179258   0.858   4.845  16.443 -0.8978 -0.2669  0.8126
19281TIP3    H279259   0.734   4.927  16.470  0.0046  1.6183 -0.5242
19282TIP3   OH279260   6.520   6.596  17.174  0.0426  0.4643  0.0363
19282TIP3    H179261   6.594   6.558  17.128 -0.0481 -0.1067  0.3587
19282TIP3    H279262   6.553   6.680  17.208  0.5725  0.1585  0.2784
19283TIP3   OH279263   4.750   0.545  13.713  0.6305  0.1494  0.1680
19283TIP3    H179264   4.840   0.560  13.684 -0.5112  0.3573 -3.9027
19283TIP3    H279265   4.714   0.633  13.726  0.3210  0.1974 -0.9026
19284TIP3   OH279266   0.889   3.358  15.191  0.2531  0.1448  0.1216
19284TIP3    H179267   0.823   3.367  15.122 -1.3849  1.7657  1.7625
19284TIP3    H279268   0.858   3.286  15.245 -0.6740  1.3844  1.3181
19285TIP3   OH279269   3.464   3.832  11.361 -0.2431 -0.4275 -0.0218
19285TIP3    H179270   3.534   3.841  11.297 -0.4526 -2.7021 -0.6506
19285TIP3    H279271   3.405   3.767  11.324 -0.4369 -1.7646  2.3880
19286TIP3   OH279272   1.558   6.632  11.810 -0.6829  0.3004 -0.0441
19286TIP3    H179273   1.577   6.551  11.762 -2.5840 -0.4822  0.4065
19286TIP3    H279274   1.503   6.682  11.750 -0.1812  0.9019 -0.0040
19287TIP3   OH279275   4.087   5.035  14.775  0.2822  0.1522  0.4050
19287TIP3    H179276   4.107   5.001  14.688  0.6064 -1.0523  0.9227
19287TIP3    H279277   4.074   5.129  14.762 -1.2796 -0.2179 -1.2144
19288TIP3   OH279278   5.816   2.862  15.314 -0.0078  0.1521  0.2030
19288TIP3    H179279   5.840   2.772  15.338 -0.4537 -0.4880 -1.5461
19288TIP3    H279280   5.899   2.910  15.316  0.7019 -0.9246 -1.2207
19289TIP3   OH279281   0.445   6.454  12.941  0.1042  0.4696  0.0288
19289TIP3    H179282   0.529   6.476  12.981 -0.0351 -0.0562  0.6082
19289TIP3    H279283   0.466   6.441  12.848  0.3281  2.2435 -0.2037
19290TIP3   OH279284   5.198   2.433  14.285  0.0705  0.4941 -0.1458
19290TIP3    H179285   5.161   2.427  14.373 -2.6815 -1.4677 -1.2798
19290TIP3    H279286   5.280   2.383  14.290 -0.4352 -0.2719  1.1317
19291TIP3   OH279287   0.019   0.602  12.225 -0.2479 -0.7352 -0.2959
19291TIP3    H179288  -0.073   0.607  12.197  0.0319  0.6316 -1.0429
19291TIP3    H279289   0.045   0.693  12.238  1.0785 -1.0895 -0.3220
19292TIP3   OH279290   3.850   5.303  13.152  0.3479 -0.2132 -0.4165
19292TIP3    H179291   3.945   5.294  13.146  0.5692  0.4922  1.3904
19292TIP3    H279292   3.816   5.219  13.121  1.4849 -0.1779 -1.9155
19293TIP3   OH279293   5.220   2.820  12.100  0.3812  0.0650  0.1668
19293TIP3    H179294   5.279   2.746  12.105  2.5418  1.6682 -0.0632
19293TIP3    H279295   5.250   2.880  12.169 -1.3287  0.7079  0.3988
19294TIP3   OH279296   1.827   0.769   4.830 -0.9178  0.4623  0.1967
19294TIP3    H179297   1.824   0.733   4.741 -0.5676  1.0993 -0.0797
19294TIP3    H279298   1.916   0.804   4.839 -0.7855 -0.0410  0.9807
19295TIP3   OH279299   6.438   6.337  16.118 -0.1254  0.5494 -0.4123
19295TIP3    H179300   6.468   6.383  16.040  1.0056  0.4664 -0.0428
19295TIP3    H279301   6.518   6.305  16.159 -0.7845 -0.4334  0.1486
19296TIP3   OH279302   3.709   1.534  13.343  0.5713 -0.4756 -0.0462
19296TIP3    H179303   3.677   1.622  13.326 -1.0249 -0.9149  0.4859
19296TIP3    H279304   3.629   1.480  13.348  1.3574 -1.5449  1.8715
19297TIP3   OH279305   2.150   0.022  13.043  0.5664 -0.2318  0.0176
19297TIP3    H179306   2.168   0.112  13.069  0.1108  0.2569 -1.3076
19297TIP3    H279307   2.080   0.029  12.978  1.0890 -1.4757 -0.7054
19298TIP3   OH279308   2.759   1.971  12.253 -0.2566  0.4444  0.0773
19298TIP3    H179309   2.733   1.901  12.194  1.2626  1.6697 -2.2211
19298TIP3    H279310   2.808   2.032  12.198 -2.3409  3.8886  1.6511
19299TIP3   OH279311   5.055   3.934  11.140  0.0390  0.4936 -0.1809
19299TIP3    H179312   4.961   3.919  11.141  0.1331 -0.1031  0.0599
19299TIP3    H279313   5.093   3.850  11.115  0.5257  0.6308  0.0830
19300TIP3   OH279314   0.482   0.627  16.561 -0.2425  0.1443 -0.2285
19300TIP3    H179315   0.521   0.587  16.638  0.2245  0.9385 -0.0363
19300TIP3    H279316   0.438   0.555  16.515  0.0817 -0.4618  0.4003
19301TIP3   OH279317   1.898   1.755  13.148 -0.6664 -0.4761  0.3302
19301TIP3    H179318   1.879   1.840  13.108 -0.9462 -1.1519 -1.0274
19301TIP3    H279319   1.816   1.730  13.191 -0.4805  0.0805  1.0287
19302TIP3   OH279320   1.006   2.566  13.657 -0.7130 -0.0856 -0.5341
19302TIP3    H179321   1.027   2.634  13.593 -1.2771  2.1506  1.5003
19302TIP3    H279322   0.921   2.592  13.693  0.0928 -0.5293  1.9262
19303TIP3   OH279323   6.306   1.611   2.203  0.1293 -0.0511 -0.5332
19303TIP3    H179324   6.252   1.608   2.124 -0.6066  0.3256 -0.0525
19303TIP3    H279325   6.249   1.578   2.272  1.8871 -4.1993 -0.7384
19304TIP3   OH279326   4.484   3.899   2.254 -0.0571  0.3362  0.7048
19304TIP3    H179327   4.479   3.812   2.295  0.7733 -0.0366  0.0383
19304TIP3    H279328   4.574   3.906   2.222 -0.4525  0.9448 -0.3365
19305TIP3   OH279329   0.350   6.425  10.981 -0.4763  0.3642  0.0066
19305TIP3    H179330   0.308   6.503  11.017  1.1602  1.6571 -0.7799
19305TIP3    H279331   0.289   6.354  11.000 -1.1112  1.4881  2.5378
19306TIP3   OH279332   5.709   6.308  11.483 -0.1743  0.1518 -0.4072
19306TIP3    H179333   5.686   6.399  11.500 -0.6468  0.1541 -1.0147
19306TIP3    H279334   5.692   6.263  11.566 -3.1964  0.0047 -0.9859
19307TIP3   OH279335   4.701   5.393  12.018  0.3193  0.4202 -0.4761
19307TIP3    H179336   4.690   5.365  12.108  0.7734  1.0058 -0.2334
19307TIP3    H279337   4.795   5.394  12.004  0.3200  1.6563 -0.5150
19308TIP3   OH279338   3.344   3.563   0.203 -0.4828  0.3443 -0.1705
19308TIP3    H179339   3.400   3.556   0.280 -0.3592  3.3787  0.1372
19308TIP3    H279340   3.394   3.521   0.133 -0.2814 -1.8151  1.1977
19309TIP3   OH279341   5.216   6.124   0.278 -0.4841  0.4026 -0.2253
19309TIP3    H179342   5.245   6.033   0.286  0.8030  0.7672 -0.4252
19309TIP3    H279343   5.292   6.175   0.305 -0.9977  1.4258 -0.6778
19310TIP3   OH279344   3.733   1.255  15.417  0.4651  0.1599 -0.1621
19310TIP3    H179345   3.818   1.297  15.405  0.6130 -0.0468  0.1596
19310TIP3    H279346   3.752   1.162  15.419  0.0501  0.0313 -1.5600
19311TIP3   OH279347   3.110   4.533  17.135  0.3903 -0.2278  0.5494
19311TIP3    H179348   3.054   4.592  17.085 -0.0332  0.0417  1.3325
19311TIP3    H279349   3.195   4.577  17.137  1.0766 -1.2739 -1.8304
19312TIP3   OH279350   4.872   0.597  12.646 -0.3572  0.1369 -0.2484
19312TIP3    H179351   4.878   0.514  12.600 -1.7339  0.1270 -0.4486
19312TIP3    H279352   4.858   0.662  12.577  1.3453  0.6495 -0.1552
19313TIP3   OH279353   5.853   4.791   5.876 -0.2976  0.5169  0.4758
19313TIP3    H179354   5.832   4.809   5.968  1.2384  1.0203  0.7615
19313TIP3    H279355   5.895   4.705   5.878 -1.5752 -0.1362  0.0230
19314TIP3   OH279356   4.128   4.523  11.109  0.0904  0.5376 -0.2159
19314TIP3    H179357   4.112   4.566  11.025 -0.6392  3.1682  1.1461
19314TIP3    H279358   4.044   4.484  11.133  0.4652 -0.7749 -0.9498
19315TIP3   OH279359   4.854   4.723   0.222  0.2175  0.3163  0.1269
19315TIP3    H179360   4.884   4.810   0.197 -0.6932  0.6008 -0.0130
19315TIP3    H279361   4.765   4.717   0.188  0.4124 -0.8316 -0.2188
19316TIP3   OH279362   4.223   1.055  12.424  0.1104  0.1387 -0.2538
19316TIP3    H179363   4.149   1.094  12.378  1.4591  0.0923 -2.6984
19316TIP3    H279364   4.192   1.040  12.513 -3.2761 -1.1866 -1.4909
19317TIP3   OH279365   0.797   2.529  10.500  0.2563 -0.5799 -0.0175
19317TIP3    H179366   0.793   2.469  10.574 -1.1868 -0.7588 -0.2154
19317TIP3    H279367   0.751   2.484  10.429  1.7292 -0.4662 -1.0903
19318TIP3   OH279368   1.454   1.225  13.116  0.1919  0.4547 -0.3737
19318TIP3    H179369   1.374   1.219  13.062 -0.1168 -0.4689  0.1475
19318TIP3    H279370   1.437   1.298  13.175  0.0874  0.8023 -0.8248
19319TIP3   OH279371   0.697   6.290   3.104  0.8497 -0.1812 -0.0512
19319TIP3    H179372   0.720   6.337   3.184  1.4969 -0.7704  0.1118
19319TIP3    H279373   0.608   6.260   3.119  0.7678  0.1868  0.2202
19320TIP3   OH279374   3.093   5.763   1.421  0.6214 -0.1785  0.4034
19320TIP3    H179375   2.998   5.754   1.427  0.6898 -1.2201  0.0233
19320TIP3    H279376   3.111   5.849   1.460 -0.4210 -0.1797  0.9152
19321TIP3   OH279377   0.978   1.706  13.524  0.2921  0.2983  0.4418
19321TIP3    H179378   1.008   1.628  13.477  1.0666  0.4680  0.6276
19321TIP3    H279379   0.894   1.681  13.562 -1.2459  0.6893 -2.4151
19322TIP3   OH279380   4.662   0.893   3.403  0.2116 -0.2440 -0.3628
19322TIP3    H179381   4.680   0.934   3.487  0.0972 -0.1635 -0.3777
19322TIP3    H279382   4.737   0.835   3.388 -0.0491 -0.7011  0.0657
19323TIP3   OH279383   3.097   3.296  12.875  0.1702 -0.1442 -0.2609
19323TIP3    H179384   3.120   3.383  12.908 -0.5656 -0.1057  0.1624
19323TIP3    H279385   3.102   3.304  12.780  0.7610  0.1736 -0.2058
19324TIP3   OH279386   4.079   5.025  16.772 -0.6420  0.1378  0.1068
19324TIP3    H179387   4.122   5.012  16.856 -0.8951  1.2549  0.4350
19324TIP3    H279388   4.149   5.053  16.713 -0.4293 -0.8395 -0.1172
19325TIP3   OH279389   2.019   1.332   4.889 -0.2537  0.0052 -0.5649
19325TIP3    H179390   2.009   1.392   4.963  0.5291  0.7261 -1.0175
19325TIP3    H279391   1.938   1.281   4.888 -0.2695 -0.0167  0.7775
19326TIP3   OH279392   0.457   2.744  16.710 -0.2338 -0.1711 -0.3747
19326TIP3    H179393   0.470   2.686  16.635 -0.0214 -0.7676  0.1177
19326TIP3    H279394   0.545   2.762  16.743 -0.3720 -0.6433  0.2735
19327TIP3   OH279395   4.705   1.758  16.043  0.7215  0.0540  0.0930
19327TIP3    H179396   4.777   1.699  16.064  0.8719  0.3511  0.4266
19327TIP3    H279397   4.713   1.773  15.949  0.7622 -0.3484  0.0302
19328TIP3   OH279398   4.709   0.078   5.467  0.0966  0.3720  0.7894
19328TIP3    H179399   4.704  -0.014   5.492 -1.8775  0.1154 -0.3978
19328TIP3    H279400   4.688   0.079   5.374 -0.7839  2.0929  0.9666
19329TIP3   OH279401   5.213   0.602  11.288  0.4435 -0.0205 -0.0963
19329TIP3    H179402   5.220   0.511  11.258 -0.4439 -0.2668  0.4145
19329TIP3    H279403   5.205   0.596  11.383  0.4269  0.5936 -0.0523
19330TIP3   OH279404   3.641   1.386  14.648 -0.1289 -0.0662 -0.0903
19330TIP3    H179405   3.591   1.359  14.724 -0.5732 -0.9331 -0.6829
19330TIP3    H279406   3.732   1.365  14.670  0.0355  1.5389  0.9977
19331TIP3   OH279407   1.553   5.287  16.775 -0.4773 -0.3277 -0.2700
19331TIP3    H179408   1.543   5.212  16.717  1.9806  0.1477 -1.4640
19331TIP3    H279409   1.536   5.253  16.863  1.6629 -2.6119 -0.6393
19332TIP3   OH279410   5.002   3.506  13.703  0.4446  0.3929 -0.0412
19332TIP3    H179411   4.928   3.565  13.715 -0.4247 -0.5240 -0.7631
19332TIP3    H279412   4.963   3.422  13.681  1.7021 -0.0670 -0.6130
19333TIP3   OH279413   1.268   3.247   1.604  0.5245  0.1757 -0.0002
19333TIP3    H179414   1.327   3.172   1.604 -0.5109 -0.7161 -1.5593
19333TIP3    H279415   1.317   3.316   1.560  0.5843 -0.4431 -0.9538
19334TIP3   OH279416   3.621   6.788   3.787  0.8182  0.2383 -0.2249
19334TIP3    H179417   3.660   6.833   3.862 -0.5854 -0.8583  1.2190
19334TIP3    H279418   3.689   6.728   3.757  1.1551  0.1865  0.6132
19335TIP3   OH279419   2.424   3.886  13.735 -0.2943  0.3276 -0.4341
19335TIP3    H179420   2.492   3.945  13.701  0.2049 -0.7942 -1.4744
19335TIP3    H279421   2.387   3.933  13.810  0.0056  1.9973 -1.2789
19336TIP3   OH279422   6.030   5.346   1.390  0.2262  0.3472  0.2253
19336TIP3    H179423   6.036   5.438   1.367  2.0630  0.4837  1.1229
19336TIP3    H279424   6.005   5.302   1.308 -1.4437  1.6842 -0.0299
19337TIP3   OH279425   0.831   1.776  16.987  0.0954  0.2397  0.1832
19337TIP3    H179426   0.924   1.765  17.003  0.3496  0.8107 -0.7991
19337TIP3    H279427   0.788   1.716  17.048  1.1782 -1.6607 -0.8233
19338TIP3   OH279428   1.872   6.363  13.368  0.2055 -0.0070  0.2784
19338TIP3    H179429   1.912   6.298  13.310 -0.1237  0.8342 -0.9275
19338TIP3    H279430   1.945   6.403  13.414  0.6206  0.3214 -0.6352
19339TIP3   OH279431   1.416   6.405   0.078  0.0577 -0.1612 -0.3129
19339TIP3    H179432   1.337   6.376   0.031  0.1702 -2.4585  0.7566
19339TIP3    H279433   1.441   6.329   0.131  2.9382  0.5279 -0.5125
19340TIP3   OH279434   1.465   1.437  16.328  0.3845  0.1303  0.3470
19340TIP3    H179435   1.391   1.382  16.301  0.4127 -0.0026  0.5390
19340TIP3    H279436   1.463   1.511  16.268 -1.4683  1.4725  1.9434
19341TIP3   OH279437   0.196   6.696  11.191  0.1964  0.1408  0.2168
19341TIP3    H179438   0.236   6.737  11.114  0.5517 -1.9051 -0.7449
19341TIP3    H279439   0.103   6.719  11.185  0.3318  0.5606 -0.4298
19342TIP3   OH279440   6.741   4.728  11.029  0.5916 -0.0746  0.2480
19342TIP3    H179441   6.803   4.662  11.060  1.7085  1.0993  0.5989
19342TIP3    H279442   6.791   4.809  11.030 -1.3191  1.1655  1.7572
19343TIP3   OH279443   2.075   0.006   4.978  0.2460  0.0192 -0.1090
19343TIP3    H179444   1.991  -0.013   5.020  0.2609  2.1729  1.0573
19343TIP3    H279445   2.111  -0.080   4.956 -0.2119 -1.2605  3.4577
19344TIP3   OH279446   4.583   1.403   5.834  0.5022  0.9501  0.0781
19344TIP3    H179447   4.566   1.422   5.926  1.1046 -2.2824  0.9704
19344TIP3    H279448   4.677   1.390   5.829  0.2195 -1.4973 -0.3316
19345TIP3   OH279449   0.940   4.025  16.552  0.1302  0.2242  0.1437
19345TIP3    H179450   0.848   4.032  16.576 -0.0859 -0.1770 -0.5201
19345TIP3    H279451   0.969   3.943  16.594  0.8929  1.5902  2.4627
19346TIP3   OH279452   2.368   1.883  15.152  0.3236  0.6468  0.1146
19346TIP3    H179453   2.350   1.789  15.145  2.6723  0.1993 -0.5741
19346TIP3    H279454   2.327   1.920  15.074  0.9599 -0.0976 -0.5907
19347TIP3   OH279455   4.466   3.956   0.375  0.1319  0.2955 -0.0620
19347TIP3    H179456   4.542   3.990   0.328  1.5566 -0.9151  1.2618
19347TIP3    H279457   4.457   4.014   0.450  0.0607  0.1360  0.0523
19348TIP3   OH279458   6.363   5.770   4.073  0.0149  0.1316 -0.1585
19348TIP3    H179459   6.277   5.728   4.068 -0.0008  0.2558 -1.0672
19348TIP3    H279460   6.346   5.861   4.053  0.1436  0.4835  1.2057
19349TIP3   OH279461   6.261   0.096  13.495 -0.3237 -0.3271  0.1062
19349TIP3    H179462   6.215   0.022  13.456 -1.9653  0.5593  0.2771
19349TIP3    H279463   6.353   0.075  13.483 -0.7491 -1.8934 -0.7883
19350TIP3   OH279464   1.251   6.225  15.071 -0.4121  0.2289  0.6214
19350TIP3    H179465   1.188   6.159  15.100  0.7112  0.0079  2.7471
19350TIP3    H279466   1.224   6.305  15.117 -0.6899  0.8276 -0.5390
19351TIP3   OH279467   1.238   6.243  12.043  0.3709  0.0180  0.1834
19351TIP3    H179468   1.277   6.252  11.956 -2.7220 -0.6889 -1.4063
19351TIP3    H279469   1.293   6.178  12.087  1.4317 -0.3754 -1.6292
19352TIP3   OH279470   0.660   5.807   2.183  0.4567  0.2019  0.4968
19352TIP3    H179471   0.582   5.824   2.236 -0.1271 -2.3028  0.5725
19352TIP3    H279472   0.627   5.793   2.095  0.8388 -0.4863  0.4529
19353TIP3   OH279473   0.138   0.732  13.817 -0.9171  0.6333 -0.0511
19353TIP3    H179474   0.162   0.704  13.729 -0.9666  0.1083  0.0965
19353TIP3    H279475   0.087   0.659  13.852  0.6250  0.0354  1.0582
19354TIP3   OH279476   0.206   0.465  10.865 -0.1191  0.5624  0.0783
19354TIP3    H179477   0.219   0.388  10.810 -0.2257  1.7117 -1.6278
19354TIP3    H279478   0.286   0.517  10.853  1.2462 -0.4984  3.4206
19355TIP3   OH279479   0.992   2.725  15.069  0.3709 -0.2581 -0.0598
19355TIP3    H179480   0.913   2.701  15.117 -0.6568  2.5473 -0.1660
19355TIP3    H279481   1.062   2.674  15.111 -1.0673 -0.7699  1.8593
19356TIP3   OH279482   4.616   3.957  15.352 -0.6081  0.2236  0.6199
19356TIP3    H179483   4.679   3.943  15.423  0.1235 -1.4946 -0.2961
19356TIP3    H279484   4.572   3.872  15.342 -3.1293  1.3492  1.2178
19357TIP3   OH279485   4.726   2.267   1.019  0.0453  0.1589 -0.1757
19357TIP3    H179486   4.641   2.293   1.055 -1.4454 -1.0865 -2.5475
19357TIP3    H279487   4.790   2.316   1.071 -2.1111  1.3522  1.5184
19358TIP3   OH279488   3.435   3.799   0.924  0.1124  0.0314 -0.0288
19358TIP3    H179489   3.476   3.754   0.851  0.0961  0.9607 -0.6203
19358TIP3    H279490   3.432   3.891   0.898  1.9958  0.7676  1.9653
19359TIP3   OH279491   3.514   6.582  14.041 -0.1725  0.1209  0.5810
19359TIP3    H179492   3.596   6.536  14.059 -1.0879 -1.5695  0.6146
19359TIP3    H279493   3.540   6.656  13.986  1.4689  0.0867  1.2470
19360TIP3   OH279494   6.011   1.572  10.990 -0.3648  0.2617  0.1057
19360TIP3    H179495   6.087   1.631  10.995 -1.0612  1.3602 -1.4409
19360TIP3    H279496   6.007   1.546  10.898 -1.0992 -0.8574  0.4406
19361TIP3   OH279497   4.417   2.429  10.947  0.0005 -0.3386  0.2407
19361TIP3    H179498   4.375   2.503  10.905  0.0239 -0.7134 -0.4611
19361TIP3    H279499   4.460   2.381  10.875 -0.1354 -1.1063  0.6548
19362TIP3   OH279500   5.519   6.531   2.869  0.1318 -0.1621 -0.2293
19362TIP3    H179501   5.529   6.617   2.908 -0.0747  0.5695 -1.6897
19362TIP3    H279502   5.428   6.507   2.886  0.5416 -0.7083  1.3153
19363TIP3   OH279503   0.727   3.969  11.753  0.3897 -0.4329  0.1592
19363TIP3    H179504   0.744   3.885  11.796  1.6800  0.5914  1.7873
19363TIP3    H279505   0.804   3.984  11.697 -0.8226 -1.2867 -1.8333
19364TIP3   OH279506   0.543   5.387   4.000  0.0440 -0.5245  0.4978
19364TIP3    H179507   0.464   5.395   3.946  0.3219 -1.5305 -0.0860
19364TIP3    H279508   0.522   5.318   4.063 -0.2647  0.6135  1.6862
19365TIP3   OH279509   4.768   0.245  15.328 -0.5795 -0.7038 -0.0509
19365TIP3    H179510   4.718   0.276  15.252  1.5147  0.2473 -1.1370
19365TIP3    H279511   4.723   0.164  15.354 -0.5685 -1.9285 -3.2608
19366TIP3   OH279512   1.546   6.244   1.546 -0.4174 -0.2280  0.4173
19366TIP3    H179513   1.582   6.226   1.459  0.6982  0.7995  0.6339
19366TIP3    H279514   1.548   6.340   1.553  0.1689 -0.3233  1.8362
19367TIP3   OH279515   1.747   3.991  14.538  0.3543 -0.4749 -0.0110
19367TIP3    H179516   1.796   4.041  14.603  1.7621 -1.8002  0.0124
19367TIP3    H279517   1.655   3.999  14.564  0.8341 -0.5218  1.8151
19368TIP3   OH279518   0.285   2.441   5.384  0.3509  0.5063  0.3262
19368TIP3    H179519   0.315   2.512   5.441  1.6932  0.2097  0.0139
19368TIP3    H279520   0.190   2.452   5.381  0.4454  1.7136  1.0462
19369TIP3   OH279521   5.700   5.031   3.793 -0.1514  0.0605  0.0168
19369TIP3    H179522   5.708   5.087   3.716 -1.4754  0.3281  0.0509
19369TIP3    H279523   5.664   5.088   3.861 -0.3691 -0.5313  0.4104
19370TIP3   OH279524   4.765   2.686   0.463 -0.0822  0.0193 -0.0429
19370TIP3    H179525   4.802   2.604   0.498 -0.3890 -0.3483 -0.5533
19370TIP3    H279526   4.699   2.712   0.526 -0.2577 -0.3476 -0.0687
19371TIP3   OH279527   0.945   3.055   1.249  0.3017 -0.3025 -0.2525
19371TIP3    H179528   0.930   2.963   1.228  0.9504 -0.0740 -1.8804
19371TIP3    H279529   0.931   3.061   1.344 -0.0586 -1.9994 -0.1699
19372TIP3   OH279530   4.220   5.603   1.607  0.2874  0.3342 -0.4894
19372TIP3    H179531   4.252   5.540   1.672 -1.6764 -1.3747 -1.0814
19372TIP3    H279532   4.275   5.680   1.619  1.8175 -0.9599  1.2760
19373TIP3   OH279533   5.965   5.527   0.082 -0.0872 -0.0619 -0.2144
19373TIP3    H179534   6.028   5.472   0.037  0.0774  0.7257 -0.9833
19373TIP3    H279535   5.908   5.466   0.129 -0.4015 -0.9327 -1.6820
19374TIP3   OH279536   1.251   2.865  12.205  0.1246 -0.4814 -0.5379
19374TIP3    H179537   1.190   2.795  12.181  2.0804 -2.8407  0.9270
19374TIP3    H279538   1.195   2.933  12.242 -1.8627 -1.3133 -1.8097
19375TIP3   OH279539   1.130   4.481  13.182 -0.1130  0.7531 -0.1465
19375TIP3    H179540   1.096   4.426  13.253  1.6742 -2.9122 -1.8868
19375TIP3    H279541   1.219   4.451  13.169 -0.1568  1.7437 -3.5212
19376TIP3   OH279542   4.642   5.440   5.134  0.0275 -0.1902 -0.3716
19376TIP3    H179543   4.559   5.422   5.178 -0.8842  1.7631 -1.1787
19376TIP3    H279544   4.623   5.429   5.041  0.0568  2.1364 -0.7289
19377TIP3   OH279545   3.124   4.818   1.351 -0.9953  0.1656 -0.3889
19377TIP3    H179546   3.122   4.742   1.292 -6.6076 -1.4159  1.2168
19377TIP3    H279547   3.103   4.892   1.295  1.4312  0.1537 -1.4460
19378TIP3   OH279548   6.715   2.590  11.659 -0.5214  0.6619 -0.8583
19378TIP3    H179549   6.746   2.605  11.570 -0.5775 -0.8588 -1.1589
19378TIP3    H279550   6.779   2.531  11.698 -0.7980  0.8606 -0.0634
19379TIP3   OH279551   6.395   5.903   0.775  0.4420  0.5643  0.0949
19379TIP3    H179552   6.447   5.984   0.773 -0.0960  0.9189  0.3419
19379TIP3    H279553   6.391   5.880   0.868  0.9677  0.0042 -0.0157
19380TIP3   OH279554   0.065   5.721  12.220  0.4632 -0.2032 -0.3928
19380TIP3    H179555   0.035   5.726  12.311  1.5850 -0.1285 -0.0115
19380TIP3    H279556   0.121   5.643  12.218 -1.2728 -1.5157 -1.5691
19381TIP3   OH279557   3.038   2.105   2.577 -0.0874  0.2504  0.2518
19381TIP3    H179558   2.985   2.185   2.580 -0.0133  0.2791  1.2715
19381TIP3    H279559   3.120   2.132   2.536 -0.6104  0.3513 -0.7620
19382TIP3   OH279560   3.826   4.947  14.188  0.2484  0.2878  0.5415
19382TIP3    H179561   3.815   5.038  14.160  2.1487  0.3928 -0.0180
19382TIP3    H279562   3.769   4.896  14.129 -0.8499  1.0987  0.8831
19383TIP3   OH279563   2.519   5.679   0.053  0.0092  0.0948  1.2241
19383TIP3    H179564   2.601   5.726   0.039  0.8228 -1.5787 -0.0988
19383TIP3    H279565   2.547   5.588   0.069 -1.5631 -0.6621 -0.0104
19384TIP3   OH279566   6.486   3.804   0.772 -0.5588 -0.5187 -0.0611
19384TIP3    H179567   6.443   3.765   0.848  1.3685  1.0684  1.9897
19384TIP3    H279568   6.462   3.897   0.776  2.7516  0.4125  1.1307
19385TIP3   OH279569   3.164   4.511  14.225  0.4167  0.5667  0.7032
19385TIP3    H179570   3.154   4.606  14.228 -1.8919  0.3656  1.6099
19385TIP3    H279571   3.113   4.479  14.300 -0.1304 -1.4425 -0.4341
19386TIP3   OH279572   0.037   6.112   3.366 -0.0550 -0.1786  0.1451
19386TIP3    H179573  -0.001   6.191   3.404  1.0660  0.1808  0.5477
19386TIP3    H279574   0.126   6.110   3.400  0.0745 -1.3675 -0.2426
19387TIP3   OH279575   0.479   3.679  13.280  0.1046  0.5483  0.8355
19387TIP3    H179576   0.496   3.590  13.312 -1.4587  0.5705  1.7934
19387TIP3    H279577   0.472   3.669  13.185  0.6841 -0.2217  0.8622
19388TIP3   OH279578   6.545   1.990   3.016  0.5074 -0.1665  0.3077
19388TIP3    H179579   6.562   1.961   2.927 -0.5282  1.3321 -0.4237
19388TIP3    H279580   6.458   1.955   3.037  0.4231  0.1118  0.4360
19389TIP3   OH279581   3.269   6.296  16.362 -0.1005 -0.0093 -0.0871
19389TIP3    H179582   3.351   6.345  16.357 -0.7572  1.3005  1.3207
19389TIP3    H279583   3.296   6.206  16.381  0.9933  0.5829  1.2861
19390TIP3   OH279584   6.240   4.379   1.523  0.0925  0.4077  0.4040
19390TIP3    H179585   6.271   4.413   1.439 -0.8921  0.0047 -0.1292
19390TIP3    H279586   6.303   4.311   1.547  0.7353  0.9604  0.3217
19391TIP3   OH279587   3.113   6.747  15.293 -0.0408 -0.4818  0.1899
19391TIP3    H179588   3.059   6.822  15.315 -0.3755 -1.2189  2.0491
19391TIP3    H279589   3.145   6.714  15.377 -0.3049 -2.7094 -0.5088
19392TIP3   OH279590   6.252   3.535   5.224  0.2916 -0.0770 -0.3861
19392TIP3    H179591   6.241   3.612   5.169  0.5394  0.8078  0.7760
19392TIP3    H279592   6.192   3.470   5.185  0.4129  0.5229 -1.6448
19393TIP3   OH279593   0.015   4.124   2.167 -0.6199 -0.3258 -0.1333
19393TIP3    H179594  -0.005   4.212   2.133  0.0046 -0.1052  0.0622
19393TIP3    H279595   0.093   4.097   2.120  1.2981  0.6787  2.2221
19394TIP3   OH279596   0.012   0.070  10.765  0.3633 -0.6494 -0.3595
19394TIP3    H179597  -0.072   0.116  10.763  0.1163 -0.9494  1.5339
19394TIP3    H279598  -0.011  -0.021  10.784  1.1052 -0.8120 -0.2137
19395TIP3   OH279599   0.196   3.440  12.978  0.2572 -0.8884  0.4588
19395TIP3    H179600   0.189   3.495  12.900  3.0046  0.1032  0.8205
19395TIP3    H279601   0.153   3.490  13.047  1.6476  0.3042  0.5017
19396TIP3   OH279602   3.247   2.894  16.199 -0.0375  0.0162  0.3199
19396TIP3    H179603   3.263   2.833  16.272  1.2657 -0.8203 -0.6233
19396TIP3    H279604   3.201   2.841  16.134 -0.4874  0.5433  0.2108
19397TIP3   OH279605   4.756   1.353  17.017  0.5718  0.3372  0.1758
19397TIP3    H179606   4.736   1.409  17.091  0.2901 -0.3493  0.6316
19397TIP3    H279607   4.791   1.273  17.057  2.2102  0.6684 -0.5050
19398TIP3   OH279608   1.258   5.780   3.701  0.0195 -0.5020  0.2099
19398TIP3    H179609   1.278   5.767   3.794  1.5477  1.2214  0.1749
19398TIP3    H279610   1.310   5.713   3.656  0.6644 -0.2170  0.5148
19399TIP3   OH279611   1.261   5.673   2.490 -0.5005  0.6129  0.2940
19399TIP3    H179612   1.302   5.639   2.569 -1.2231 -1.0756 -0.0265
19399TIP3    H279613   1.333   5.682   2.427 -0.1854  0.3801  0.6197
19400TIP3   OH279614   2.534   1.341   3.802 -0.3752 -0.7459  0.0097
19400TIP3    H179615   2.512   1.383   3.885  0.9128 -0.6187  0.3076
19400TIP3    H279616   2.600   1.398   3.763 -0.5100 -1.1362 -0.8164
19401TIP3   OH279617   5.701   2.986  10.727  0.8487  0.0732 -0.4827
19401TIP3    H179618   5.608   2.999  10.744  0.6500 -1.7751  0.0542
19401TIP3    H279619   5.705   2.933  10.648  1.4019 -0.6597  0.0235
19402TIP3   OH279620   6.424   0.606  16.206 -0.2037  0.3250  0.2213
19402TIP3    H179621   6.350   0.592  16.266 -0.6698  1.6619 -0.0094
19402TIP3    H279622   6.464   0.687  16.237 -0.4502  1.0434 -1.2634
19403TIP3   OH279623   1.908   2.789  11.949 -0.0982  0.0974  0.0389
19403TIP3    H179624   1.922   2.775  11.856 -0.2852  0.5250 -0.0568
19403TIP3    H279625   1.978   2.850  11.974 -0.9317  1.1665 -0.1492
19404TIP3   OH279626   4.085   0.400  15.397  0.8843 -0.6603  0.7309
19404TIP3    H179627   4.073   0.488  15.433  0.4193  0.3079 -1.5749
19404TIP3    H279628   4.177   0.396  15.372  0.7656 -0.5816  0.2719
19405TIP3   OH279629   5.417   6.268  14.548 -0.3943  0.1777 -0.3108
19405TIP3    H179630   5.416   6.291  14.641 -0.0749  1.9620 -0.7173
19405TIP3    H279631   5.411   6.352  14.503 -1.9697 -0.7401 -1.9256
19406TIP3   OH279632   5.616   6.154  11.682  0.0904 -0.5688 -0.2496
19406TIP3    H179633   5.538   6.173  11.734  0.0690 -0.0534 -0.4591
19406TIP3    H279634   5.601   6.067  11.646 -0.0397 -0.7909  0.3436
19407TIP3   OH279635   4.867   0.685   3.382 -0.2631  0.1830 -0.0568
19407TIP3    H179636   4.850   0.618   3.448 -0.5260 -0.2414 -0.5473
19407TIP3    H279637   4.920   0.751   3.428  3.1709 -2.0622 -0.4805
19408TIP3   OH279638   3.155   6.061   1.667 -0.2367 -0.5447  0.5309
19408TIP3    H179639   3.181   6.138   1.717 -3.2245  1.3466 -0.5956
19408TIP3    H279640   3.185   6.078   1.578 -2.2624  0.1514 -0.0694
19409TIP3   OH279641   3.972   1.772   6.295  0.3909 -0.3088  0.2139
19409TIP3    H179642   4.053   1.815   6.322  0.0106 -1.0054  2.7677
19409TIP3    H279643   3.905   1.839   6.304  0.3174 -0.4457  0.7492
19410TIP3   OH279644   2.691   4.422   5.364  0.1388  0.0585  0.0255
19410TIP3    H179645   2.667   4.460   5.279 -1.0984  1.3921  0.9201
19410TIP3    H279646   2.672   4.492   5.427  0.7828 -0.9989  1.4374
19411TIP3   OH279647   3.803   3.899   5.599  0.1922  0.5496  0.4367
19411TIP3    H179648   3.776   3.918   5.689  1.2909  0.7718  0.7266
19411TIP3    H279649   3.731   3.933   5.546 -1.0011 -0.5832  1.2581
19412TIP3   OH279650   1.008   5.581   2.875 -0.8510 -0.6176 -0.1263
19412TIP3    H179651   0.954   5.655   2.847 -0.7894 -1.0223 -1.3656
19412TIP3    H279652   1.098   5.609   2.857 -0.8190 -0.9471 -0.4623
19413TIP3   OH279653   0.552   4.916   3.406 -0.1393 -0.2628  0.2489
19413TIP3    H179654   0.458   4.913   3.384 -0.0080  0.9159 -0.6017
19413TIP3    H279655   0.554   4.952   3.494 -0.4943  0.0650  0.1328
19414TIP3   OH279656   0.385   5.841   5.065  0.0315  0.1521 -0.1964
19414TIP3    H179657   0.450   5.774   5.086 -0.1479 -0.5738 -1.8692
19414TIP3    H279658   0.313   5.794   5.024 -0.2354  1.3180 -1.1257
19415TIP3   OH279659   3.387   2.339  12.273  0.4716 -0.1866  0.4179
19415TIP3    H179660   3.436   2.296  12.344  1.6961  0.0813 -0.2384
19415TIP3    H279661   3.403   2.285  12.196 -2.6789 -1.7703  0.7158
19416TIP3   OH279662   0.619   0.890   4.141 -0.0105  0.1111 -0.6649
19416TIP3    H179663   0.671   0.815   4.113  0.4828  0.4523 -0.6586
19416TIP3    H279664   0.620   0.886   4.236 -0.0472  0.0898 -0.6652
19417TIP3   OH279665   5.800   4.004   1.797  0.5480  0.6438 -0.4053
19417TIP3    H179666   5.735   4.074   1.797  0.1402  0.2806  0.3926
19417TIP3    H279667   5.881   4.047   1.825  0.5998  1.0401 -1.1269
19418TIP3   OH279668   0.504   0.304  10.822  0.2588 -0.2645  0.5659
19418TIP3    H179669   0.489   0.386  10.774  0.2391 -0.7817 -0.3370
19418TIP3    H279670   0.459   0.237  10.770 -2.1007 -0.5010  2.7286
19419TIP3   OH279671   3.891   3.843   5.244 -0.4853  0.0611 -0.0998
19419TIP3    H179672   3.937   3.792   5.311  1.1328  0.5890 -0.7716
19419TIP3    H279673   3.803   3.805   5.242 -0.4256 -0.3220  1.9376
19420TIP3   OH279674   4.626   0.380   1.236  0.0319  0.0279  0.2839
19420TIP3    H179675   4.622   0.471   1.204  2.0662 -0.0063 -0.2530
19420TIP3    H279676   4.680   0.335   1.170 -1.9149 -1.8813 -0.0869
19421TIP3   OH279677   1.651   5.172   5.898 -0.0560 -0.2737 -0.2747
19421TIP3    H179678   1.680   5.158   5.988  0.1796 -1.0707 -0.4676
19421TIP3    H279679   1.563   5.207   5.906 -0.3972 -1.2122  0.2620
19422TIP3   OH279680   2.122   5.725  11.001  0.0886 -0.1771  0.5420
19422TIP3    H179681   2.170   5.657  10.953 -0.5509 -0.1387 -0.1721
19422TIP3    H279682   2.095   5.681  11.082 -0.5388 -0.8743 -0.0240
19423TIP3   OH279683   4.851   5.278  11.114 -0.2558  0.5137  0.2294
19423TIP3    H179684   4.844   5.278  11.019  0.0570  2.5679  0.1561
19423TIP3    H279685   4.888   5.192  11.135 -1.2481 -0.3607 -1.3937
19424TIP3   OH279686   4.482   4.726  13.748  0.0868  0.4691  0.5607
19424TIP3    H179687   4.402   4.681  13.775  0.6304 -0.0295  1.3681
19424TIP3    H279688   4.534   4.733  13.828  0.6377  1.2441  0.1477
19425TIP3   OH279689   0.359   3.237   0.591 -0.3809  0.5505  0.4605
19425TIP3    H179690   0.324   3.197   0.671 -1.9941 -0.9017 -0.9069
19425TIP3    H279691   0.436   3.185   0.570 -0.8817 -0.0996  0.2046
19426TIP3   OH279692   5.044   5.876  16.841 -0.7163 -0.1332 -0.4079
19426TIP3    H179693   4.961   5.908  16.806 -0.2075  2.5866  0.6701
19426TIP3    H279694   5.019   5.819  16.914 -1.6275 -1.4117 -1.6504
19427TIP3   OH279695   0.419   4.652   0.401 -0.0642  0.3501  0.1701
19427TIP3    H179696   0.463   4.712   0.461 -1.1704 -1.1475  2.6179
19427TIP3    H279697   0.490   4.604   0.358  0.7474  1.3116  0.4052
19428TIP3   OH279698   4.437   4.997  12.135  0.0816  0.1663 -0.5694
19428TIP3    H179699   4.493   4.936  12.183 -0.2861  0.3609  0.1179
19428TIP3    H279700   4.492   5.027  12.062  1.6393  1.9280  1.2202
19429TIP3   OH279701   5.827   0.178   4.465 -0.5493  0.5711  0.3184
19429TIP3    H179702   5.830   0.273   4.475  1.4573  1.0559 -3.0432
19429TIP3    H279703   5.919   0.151   4.471 -0.6482 -0.5819 -2.1259
19430TIP3   OH279704   2.790   3.179  14.868 -0.5305  0.2641 -0.2197
19430TIP3    H179705   2.862   3.122  14.843 -0.9601 -0.8305  0.9224
19430TIP3    H279706   2.748   3.204  14.786 -0.1683 -0.8621 -0.7538
19431TIP3   OH279707   4.793   3.380   2.848 -0.0535 -0.1489 -0.4730
19431TIP3    H179708   4.876   3.426   2.859 -0.0992  0.8300 -3.4283
19431TIP3    H279709   4.817   3.291   2.822  0.0027 -0.8338  1.7011
19432TIP3   OH279710   6.220   3.702  14.668  0.3592  0.2148 -0.2417
19432TIP3    H179711   6.251   3.621  14.627 -1.1435 -0.8854  0.6589
19432TIP3    H279712   6.297   3.758  14.674  2.1938 -2.2926  1.7642
19433TIP3   OH279713   4.059   5.293  14.339 -0.0153  0.6038  0.2366
19433TIP3    H179714   4.057   5.223  14.404 -0.2180 -0.9154 -1.3377
19433TIP3    H279715   4.025   5.253  14.259  1.7929  1.8919 -1.2794
19434TIP3   OH279716   4.502   3.798  13.304  0.0932 -0.3477  0.6497
19434TIP3    H179717   4.536   3.871  13.354  0.0801  0.2926 -0.2464
19434TIP3    H279718   4.531   3.815  13.214  0.0906 -1.4402  0.4259
19435TIP3   OH279719   1.000   5.091  15.764 -0.0124  0.1770  0.4742
19435TIP3    H179720   1.064   5.134  15.708 -0.0067  0.4513  0.6896
19435TIP3    H279721   0.965   5.020  15.710  0.0390  0.3961  0.1488
19436TIP3   OH279722   5.958   6.040  12.039  0.1099 -0.0956  0.2002
19436TIP3    H179723   5.894   5.991  11.986  0.1044 -0.0322  0.1482
19436TIP3    H279724   6.026   5.976  12.060  0.2999 -0.0267 -0.1976
19437TIP3   OH279725   2.533   4.980  12.518  0.3276 -0.3730 -0.1132
19437TIP3    H179726   2.519   5.040  12.590 -0.0042 -0.7752  0.1642
19437TIP3    H279727   2.513   4.894  12.554 -0.8092 -0.4820 -0.9470
19438TIP3   OH279728   6.288   6.701  14.512 -0.2894 -0.5326  0.3458
19438TIP3    H179729   6.367   6.648  14.520  0.8791  1.0256 -0.3892
19438TIP3    H279730   6.280   6.718  14.418  0.5876  2.2707  0.6734
19439TIP3   OH279731   2.187   5.700   2.408  0.4895  0.0371  0.1011
19439TIP3    H179732   2.136   5.765   2.457  1.0879  0.1613  0.5743
19439TIP3    H279733   2.251   5.668   2.471  0.1438 -1.0955 -0.0991
19440TIP3   OH279734   4.656   4.457   3.350 -1.0242  0.1738 -0.1936
19440TIP3    H179735   4.612   4.475   3.267  0.3092 -0.9713 -1.2050
19440TIP3    H279736   4.749   4.471   3.331 -0.4433 -2.3223  0.4114
19441TIP3   OH279737   2.545   1.737   4.493  0.5460  0.4128  0.4318
19441TIP3    H179738   2.450   1.750   4.485  0.2318 -1.6072  0.4645
19441TIP3    H279739   2.574   1.810   4.547 -1.3099 -0.0055  2.1175
19442TIP3   OH279740   2.922   4.796   3.133  0.6417  0.2263  0.7735
19442TIP3    H179741   2.942   4.794   3.227  0.4717 -0.4928  0.7954
19442TIP3    H279742   2.950   4.884   3.105  1.5081  0.1318  1.3081
19443TIP3   OH279743   5.005   2.440   3.682 -0.2198 -0.4587 -0.9837
19443TIP3    H179744   5.080   2.484   3.641 -0.0701 -0.0282 -0.2553
19443TIP3    H279745   5.036   2.414   3.768 -0.8182 -0.5519 -0.7947
19444TIP3   OH279746   4.237   1.414  14.769 -0.3450 -0.1152  0.3253
19444TIP3    H179747   4.250   1.465  14.689  1.7299  0.3198  0.8730
19444TIP3    H279748   4.226   1.480  14.838 -0.1767 -0.4398  0.6684
19445TIP3   OH279749   3.907   0.050   4.194  0.6526  0.4121  0.7092
19445TIP3    H179750   3.999   0.075   4.201 -0.0430  3.0230  2.1259
19445TIP3    H279751   3.884   0.018   4.281  0.1512  0.0298  0.4393
19446TIP3   OH279752   0.047   1.252   5.491  0.4245 -0.0274 -0.1440
19446TIP3    H179753   0.136   1.282   5.512  0.8966 -1.0432 -0.6544
19446TIP3    H279754   0.045   1.248   5.396 -0.2473  0.2019 -0.1438
19447TIP3   OH279755   2.370   1.278   2.402  0.2596 -0.5749  0.2156
19447TIP3    H179756   2.339   1.204   2.351  1.0760  0.2907 -1.6075
19447TIP3    H279757   2.462   1.286   2.379  0.0662  1.3202 -0.0381
19448TIP3   OH279758   4.853   0.916  12.774  0.5921  0.4888  0.2903
19448TIP3    H179759   4.762   0.888  12.763  1.1445 -1.4282  0.2817
19448TIP3    H279760   4.851   0.976  12.848 -0.6536  0.3099  0.4127
19449TIP3   OH279761   4.644   6.450  17.223  0.0087 -0.0998  0.3411
19449TIP3    H179762   4.609   6.416  17.305  0.6853  0.2880  0.7952
19449TIP3    H279763   4.569   6.494  17.181 -0.6311 -1.2834  0.1937
19450TIP3   OH279764   4.468   2.021   0.116 -0.5924 -0.0010 -0.5632
19450TIP3    H179765   4.550   2.037   0.070 -0.2710  0.2023  0.0681
19450TIP3    H279766   4.478   2.066   0.200 -1.4828  0.3250 -0.6160
19451TIP3   OH279767   2.367   4.974  14.807  0.4000  0.7031  0.1209
19451TIP3    H179768   2.319   5.052  14.833 -0.9838 -0.5137  1.3509
19451TIP3    H279769   2.350   4.911  14.876  1.7680 -0.5957 -0.6708
19452TIP3   OH279770   1.100   1.409   4.423 -0.1591  0.3355  0.3028
19452TIP3    H179771   1.167   1.446   4.365  0.1081  2.2446  1.7256
19452TIP3    H279772   1.017   1.430   4.381  0.0467  1.2482  0.3374
19453TIP3   OH279773   4.916   5.009  13.342 -0.1071 -0.0490  0.5366
19453TIP3    H179774   4.852   4.938  13.342  0.5718 -0.8833 -3.1130
19453TIP3    H279775   4.868   5.084  13.309 -0.0669  0.3494  1.3700
19454TIP3   OH279776   5.271   0.726   2.017  0.0366 -0.0979 -0.1106
19454TIP3    H179777   5.313   0.719   1.932 -0.0225 -1.8409 -0.0311
19454TIP3    H279778   5.243   0.817   2.023 -0.2269 -0.0195 -2.0811
19455TIP3   OH279779   0.559   2.208   2.338 -0.1094 -0.6074 -0.3083
19455TIP3    H179780   0.547   2.192   2.245  0.0674 -0.0597 -0.4307
19455TIP3    H279781   0.505   2.142   2.381 -1.4842  0.1412 -0.8204
19456TIP3   OH279782   0.019   5.254   3.971 -0.1659  0.6803  0.1911
19456TIP3    H179783  -0.050   5.192   3.991 -0.5813  0.9677 -0.3405
19456TIP3    H279784  -0.003   5.289   3.885  0.5824  0.8533  0.0573
19457TIP3   OH279785   0.134   2.354   3.512  0.2588 -0.0101 -0.0915
19457TIP3    H179786   0.215   2.313   3.480  0.5451  0.0040  0.6004
19457TIP3    H279787   0.088   2.283   3.556  0.5033  0.2837  0.6436
19458TIP3   OH279788   3.564   0.565  13.165  0.2438  0.3925  0.4367
19458TIP3    H179789   3.590   0.638  13.109  2.0267 -0.9179 -0.5371
19458TIP3    H279790   3.617   0.576  13.244  0.4151  0.2447  0.3446
19459TIP3   OH279791   3.291   3.868  15.747 -0.3835  0.4328  0.0919
19459TIP3    H179792   3.351   3.794  15.753 -0.1713  0.6874  2.0201
19459TIP3    H279793   3.299   3.900  15.658  3.0247  1.0075  0.4774
19460TIP3   OH279794   4.056   0.459  12.679  0.0048  0.3406  0.1765
19460TIP3    H179795   4.070   0.466  12.585  0.4643 -2.0115  0.0077
19460TIP3    H279796   4.125   0.399  12.709 -2.1417 -1.6652  1.4166
19461TIP3   OH279797   4.830   5.902   3.432  0.2206 -0.2955 -0.7910
19461TIP3    H179798   4.908   5.909   3.486  0.0817  0.8078 -0.7177
19461TIP3    H279799   4.861   5.867   3.348  1.0703  1.6553 -1.3233
19462TIP3   OH279800   6.028   0.278   2.791  0.2322 -0.2745  0.7292
19462TIP3    H179801   6.046   0.185   2.787  0.4882 -0.1842 -0.3881
19462TIP3    H279802   5.981   0.290   2.875 -2.0727 -1.8051 -0.2437
19463TIP3   OH279803   3.982   0.991   3.951  0.1045  0.1018 -0.0430
19463TIP3    H179804   3.940   0.977   3.867  0.7234 -1.3090 -0.1590
19463TIP3    H279805   4.000   1.085   3.954 -0.5236  0.2784 -1.1838
19464TIP3   OH279806   5.130   4.538   3.758 -0.0909 -0.3031 -0.0164
19464TIP3    H179807   5.155   4.579   3.675  1.3471 -2.7453 -0.8960
19464TIP3    H279808   5.210   4.537   3.810 -1.2218  2.1976  1.9774
19465TIP3   OH279809   5.435   1.315   3.493  0.4465  0.5798 -0.1565
19465TIP3    H179810   5.501   1.380   3.472 -0.0106  1.4554  1.0278
19465TIP3    H279811   5.484   1.233   3.502  1.0747  0.8093 -1.2570
19466TIP3   OH279812   3.638   1.587   3.071  0.1457  0.3923 -0.1793
19466TIP3    H179813   3.571   1.645   3.034 -0.6639  0.5026  1.4027
19466TIP3    H279814   3.709   1.645   3.098 -0.7674  0.7293  1.6263
19467TIP3   OH279815   1.429   2.595   1.743 -0.0444  0.2638 -0.3141
19467TIP3    H179816   1.359   2.611   1.807 -1.7260 -4.5348 -0.5942
19467TIP3    H279817   1.384   2.596   1.658  0.5087 -1.2371 -0.6450
19468TIP3   OH279818   1.756   4.289  13.207  0.7163  0.5400  0.5725
19468TIP3    H179819   1.713   4.289  13.293 -2.5718  0.6350 -0.9252
19468TIP3    H279820   1.813   4.366  13.208  2.3547 -0.5437  3.2669
19469TIP3   OH279821   0.023   6.781  11.928 -0.7282  0.0596  0.4663
19469TIP3    H179822  -0.069   6.770  11.952 -0.6649  0.3508  0.8572
19469TIP3    H279823   0.032   6.874  11.910 -0.5103  0.0317  0.4313
19470TIP3   OH279824   6.522   5.315  13.997 -0.2581  0.9967  0.4197
19470TIP3    H179825   6.567   5.230  13.996  0.1476  1.2149 -0.3349
19470TIP3    H279826   6.538   5.351  13.910 -2.0940  0.9798  0.0520
19471TIP3   OH279827   4.136   5.693  12.852 -0.0154  0.0453  0.7822
19471TIP3    H179828   4.074   5.705  12.781  0.2470 -2.4115  0.0462
19471TIP3    H279829   4.153   5.782  12.885 -2.6318  0.9324 -0.0378
19472TIP3   OH279830   2.867   0.194   2.911 -0.2536  0.2989  0.0302
19472TIP3    H179831   2.881   0.099   2.913 -2.2343 -0.1080 -1.9637
19472TIP3    H279832   2.924   0.225   2.841  1.0073  0.7706  1.2095
19473TIP3   OH279833   0.076   2.161   5.268 -0.0025 -0.0337  0.0123
19473TIP3    H179834  -0.018   2.168   5.285 -0.1244 -0.6277 -0.3971
19473TIP3    H279835   0.098   2.243   5.223 -0.4206 -0.0933 -0.3068
19474TIP3   OH279836   4.148   0.886  15.607  0.1514 -0.6015  0.2693
19474TIP3    H179837   4.121   0.802  15.570  1.0131 -0.3902 -0.8750
19474TIP3    H279838   4.234   0.903  15.569 -0.3389  1.1834 -0.1253
19475TIP3   OH279839   3.185   6.666   3.376  0.1903  0.8211 -0.4980
19475TIP3    H179840   3.110   6.725   3.370 -0.1760  0.4340  0.1663
19475TIP3    H279841   3.258   6.724   3.398 -0.0278  1.1249 -0.5646
19476TIP3   OH279842   5.628   5.520   5.541 -0.1249 -0.0130 -0.2781
19476TIP3    H179843   5.702   5.560   5.587 -0.8912  0.7485  0.3317
19476TIP3    H279844   5.574   5.482   5.611 -1.9169  2.1643 -0.3579
19477TIP3   OH279845   5.238   1.477  13.521 -0.4915  0.7887  0.1144
19477TIP3    H179846   5.254   1.559  13.475  1.2711 -0.3176 -1.3771
19477TIP3    H279847   5.325   1.446  13.546 -1.0843 -0.8592  0.2326
19478TIP3   OH279848   3.913   0.127  13.527 -0.2381  0.1122  0.0237
19478TIP3    H179849   3.909   0.043  13.481  2.0885  0.3951 -0.8662
19478TIP3    H279850   3.870   0.189  13.469  0.0281 -0.0803 -0.3842
19479TIP3   OH279851   6.390   5.392  13.588  0.5955 -0.5560  0.2222
19479TIP3    H179852   6.404   5.445  13.510  1.6355 -0.7742  0.2459
19479TIP3    H279853   6.395   5.302  13.558 -2.0975 -0.7262  0.0147
19480TIP3   OH279854   2.484   1.500  13.018  0.0377  0.2248  0.8777
19480TIP3    H179855   2.465   1.593  13.023 -0.6533  0.1414  0.0929
19480TIP3    H279856   2.445   1.472  12.935 -0.3507 -0.8927  1.4173
19481TIP3   OH279857   2.443   1.179  11.156  0.0624 -0.0571  0.7311
19481TIP3    H179858   2.372   1.195  11.218  0.4545 -1.4976  1.5968
19481TIP3    H279859   2.446   1.084  11.147  0.9700  0.0598 -0.3864
19482TIP3   OH279860   4.159   0.171   0.961  0.5923  0.5258  0.2800
19482TIP3    H179861   4.082   0.199   1.011 -0.0625  0.5485 -0.7108
19482TIP3    H279862   4.159   0.228   0.884 -0.0485 -1.3273 -1.1657
19483TIP3   OH279863   3.339   4.097   5.185 -0.4398 -0.0367  0.4331
19483TIP3    H179864   3.350   4.110   5.280 -0.1389  0.1638  0.3725
19483TIP3    H279865   3.330   4.186   5.150  1.5375  0.0432  0.0249
19484TIP3   OH279866   4.076   2.037   0.794  0.1324  0.4535 -0.2731
19484TIP3    H179867   4.127   2.114   0.769  1.2415  0.8617  2.8053
19484TIP3    H279868   4.133   1.963   0.771  0.3978  0.7081 -0.4473
19485TIP3   OH279869   5.867   3.331   4.419 -0.1412  0.3333 -0.0198
19485TIP3    H179870   5.842   3.255   4.471 -3.1133  0.6812 -0.7889
19485TIP3    H279871   5.879   3.296   4.331  1.5042  0.3085  0.1861
19486TIP3   OH279872   2.048   1.585   0.381 -0.3392 -0.1230  0.3107
19486TIP3    H179873   2.052   1.527   0.304  0.2571  0.4323 -0.0826
19486TIP3    H279874   2.126   1.563   0.431  0.1991  0.7389 -0.1329
19487TIP3   OH279875   3.003   6.627   2.592 -0.0642 -0.4976 -0.1445
19487TIP3    H179876   2.976   6.539   2.566 -0.4882 -0.7196  0.9861
19487TIP3    H279877   3.008   6.676   2.510  1.2127 -1.8394 -0.9142
19488TIP3   OH279878   5.512   4.964   5.692  0.2110  0.0817  0.3868
19488TIP3    H179879   5.534   4.943   5.782  1.1664  2.9311  0.8878
19488TIP3    H279880   5.561   5.044   5.672  2.2960 -1.8523 -3.5817
19489TIP3   OH279881   6.339   3.646  11.127  0.4000 -0.1051 -0.5010
19489TIP3    H179882   6.362   3.553  11.128 -0.9803 -0.4493  0.4772
19489TIP3    H279883   6.258   3.650  11.076  2.0307  1.0114 -3.2864
19490TIP3   OH279884   5.001   5.968   4.234  0.6666  0.4136  0.2666
19490TIP3    H179885   5.080   6.001   4.191 -1.3844  6.0168 -0.0443
19490TIP3    H279886   4.984   6.032   4.304 -3.0663 -1.1070  0.9682
19491TIP3   OH279887   2.913   3.871  10.926  0.8286  0.2412 -0.1210
19491TIP3    H179888   2.973   3.877  10.852 -0.7867  1.7835 -1.3827
19491TIP3    H279889   2.925   3.953  10.974 -0.6365  0.8408 -0.7262
19492TIP3   OH279890   5.226   5.213  12.651 -0.0200  0.1362 -0.3491
19492TIP3    H179891   5.222   5.260  12.568  1.9115  0.8693 -0.0819
19492TIP3    H279892   5.158   5.253  12.705 -0.7210  0.2269 -1.2620
19493TIP3   OH279893   0.515   5.155  14.339  0.1725 -0.0066 -0.2336
19493TIP3    H179894   0.442   5.098  14.318 -0.6614  0.3866  1.4279
19493TIP3    H279895   0.589   5.118  14.292 -0.5471 -1.9318  0.0773
19494TIP3   OH279896   3.875   0.084  12.730 -0.4261  0.6633 -0.0184
19494TIP3    H179897   3.793   0.076  12.682 -2.0980  2.4831  2.2792
19494TIP3    H279898   3.879   0.006  12.785  0.2226 -0.1653 -1.1787
19495TIP3   OH279899   2.869   2.031  13.531  0.3341 -0.9331 -0.4795
19495TIP3    H179900   2.845   1.993  13.616  0.2328  0.7783  0.2951
19495TIP3    H279901   2.943   2.089  13.550 -0.4260  0.3749 -1.3283
19496TIP3   OH279902   3.626   5.119   4.981  0.1509 -0.0587 -0.2100
19496TIP3    H179903   3.561   5.056   4.950 -1.2541  1.9837 -1.6811
19496TIP3    H279904   3.585   5.204   4.968  2.0075  1.2154  1.5877
19497TIP3   OH279905   0.544   3.805   3.028 -0.0673  0.0829  0.1653
19497TIP3    H179906   0.584   3.865   2.966 -1.0072  1.7971  1.1607
19497TIP3    H279907   0.607   3.798   3.100 -0.0006 -0.0488  0.0943
19498TIP3   OH279908   2.523   2.163  13.224 -0.1262 -0.2117 -0.5182
19498TIP3    H179909   2.513   2.224  13.151 -1.9173 -0.3019 -0.3728
19498TIP3    H279910   2.618   2.153  13.233  0.1992 -1.3676 -3.7940
19499TIP3   OH279911   2.942   4.697   4.658 -0.3591  0.3283 -0.4369
19499TIP3    H179912   2.932   4.792   4.646  1.7813  0.3483 -2.7988
19499TIP3    H279913   2.984   4.688   4.743 -1.1304  1.4386  0.0909
19500TIP3   OH279914   5.623   0.477  10.537 -0.5750  0.6683  0.3732
19500TIP3    H179915   5.717   0.467  10.526 -0.8994 -1.1504 -1.5329
19500TIP3    H279916   5.589   0.477  10.447 -2.3971  1.2556  1.0197
19501TIP3   OH279917   0.022   0.339  12.327  0.0986  0.1870 -0.0709
19501TIP3    H179918  -0.051   0.309  12.382 -0.5796  2.1233  0.1467
19501TIP3    H279919   0.018   0.434  12.332  1.6901  0.3533 -1.3495
19502TIP3   OH279920   0.266   4.108  14.191  0.0108 -0.1655  0.2036
19502TIP3    H179921   0.357   4.139  14.184 -0.2786  1.4150  2.3301
19502TIP3    H279922   0.268   4.045  14.264 -0.4430 -0.9150 -0.4140
19503TIP3   OH279923   1.798   3.774  11.643  0.3579 -0.5854  0.1600
19503TIP3    H179924   1.812   3.704  11.579 -0.6768 -0.6791  0.0294
19503TIP3    H279925   1.771   3.849  11.591 -1.2112 -0.8692  0.5311
19504TIP3   OH279926   6.595   5.961   4.912  0.0176  0.6050  0.0252
19504TIP3    H179927   6.547   5.983   4.832 -1.0746  0.5710  0.6523
19504TIP3    H279928   6.645   6.040   4.933 -1.3632  1.3822  0.4833
19505TIP3   OH279929   1.850   4.638   0.498  0.2454 -0.4260  0.0216
19505TIP3    H179930   1.789   4.634   0.572 -0.0333  0.5381 -0.1435
19505TIP3    H279931   1.856   4.731   0.477 -0.3790 -0.7396 -1.7588
19506TIP3   OH279932   0.380   1.089   4.258 -0.4685  0.0549  0.0611
19506TIP3    H179933   0.426   1.035   4.322 -1.2373  0.4137  0.9450
19506TIP3    H279934   0.449   1.130   4.206  0.1445 -1.1138 -0.0880
19507TIP3   OH279935   4.758   4.982   1.604  0.4632 -0.1137 -0.1854
19507TIP3    H179936   4.722   4.940   1.526  1.3053  0.9174 -1.1775
19507TIP3    H279937   4.807   4.913   1.649 -1.4507 -1.1561  0.3975
19508TIP3   OH279938   5.379   2.055   4.817 -0.5572  0.3349 -0.1769
19508TIP3    H179939   5.334   1.991   4.762  0.5917 -2.0229  1.4771
19508TIP3    H279940   5.472   2.043   4.797 -0.1694 -0.1031  1.7153
19509TIP3   OH279941   4.391   1.230  11.614  0.0269  0.2928  0.1682
19509TIP3    H179942   4.400   1.135  11.616 -0.9281  0.1570 -0.7802
19509TIP3    H279943   4.343   1.252  11.694 -0.0420 -0.0672  0.2266
19510TIP3   OH279944   6.628   2.961   3.669 -0.6742 -0.2204  0.4192
19510TIP3    H179945   6.653   2.885   3.616 -0.8600 -0.4436  0.6484
19510TIP3    H279946   6.533   2.966   3.661 -0.5319  1.0072 -0.9698
19511TIP3   OH279947   0.142   0.866   1.762  0.3352  0.3876 -0.2006
19511TIP3    H179948   0.058   0.897   1.795 -0.3155 -1.7740  0.2685
19511TIP3    H279949   0.128   0.853   1.669 -0.6143 -2.1391  0.2266
19512TIP3   OH279950   2.183   2.750  15.100 -0.5426 -0.6232  0.1696
19512TIP3    H179951   2.216   2.682  15.041 -2.6195 -1.7779  0.2156
19512TIP3    H279952   2.253   2.815  15.104  1.0584 -2.1899 -0.8058
19513TIP3   OH279953   1.602   3.198  14.264  0.2411 -0.8986 -0.3059
19513TIP3    H179954   1.639   3.242  14.187 -2.5391  1.7730 -0.3324
19513TIP3    H279955   1.672   3.199  14.328  1.2045  1.1257 -1.2937
19514TIP3   OH279956   2.535   1.544  11.878 -0.0430  0.0912  0.0812
19514TIP3    H179957   2.518   1.525  11.786 -0.5321  1.6242 -0.1641
19514TIP3    H279958   2.613   1.492  11.899  0.3517  0.0769 -1.3224
19515TIP3   OH279959   1.127   0.801   4.336  0.1124 -0.2771 -0.0507
19515TIP3    H179960   1.165   0.870   4.390 -0.4624 -1.2412  1.6634
19515TIP3    H279961   1.194   0.782   4.270  0.8282  0.9597  0.2902
19516TIP3   OH279962   6.066   0.325   5.033  0.2853 -0.1525 -0.4356
19516TIP3    H179963   6.051   0.403   5.088  1.8735 -0.4987  0.5615
19516TIP3    H279964   5.979   0.287   5.021 -0.3263  0.9363  0.3360
19517TIP3   OH279965   5.935   1.852  12.148  0.0201  0.2597  0.2549
19517TIP3    H179966   5.976   1.783  12.096  1.7478  0.2902  1.4725
19517TIP3    H279967   5.905   1.807  12.228 -1.1018  0.5009 -0.0134
19518TIP3   OH279968   3.560   3.673  17.012 -0.6681 -0.7884 -0.2993
19518TIP3    H179969   3.643   3.642  17.047  0.2885 -0.0462 -1.7963
19518TIP3    H279970   3.495   3.649  17.079  0.8300 -0.6941  1.2579
19519TIP3   OH279971   5.578   2.753   4.626  0.0212  0.0179  0.4165
19519TIP3    H179972   5.536   2.758   4.712  1.2352  0.5227  1.0114
19519TIP3    H279973   5.588   2.844   4.599  2.0851  0.0094  1.0056
19520TIP3   OH279974   4.496   4.160   6.657 -0.0153 -0.0809 -0.0035
19520TIP3    H179975   4.424   4.167   6.719 -1.0081 -0.4326 -1.0686
19520TIP3    H279976   4.478   4.228   6.592  1.4503  0.8270  0.4985
19521TIP3   OH279977   2.221   2.128   6.696 -0.2464  0.6416 -0.0358
19521TIP3    H179978   2.230   2.035   6.717 -1.9259  0.4954  0.1369
19521TIP3    H279979   2.290   2.145   6.632 -0.0241 -0.7499 -0.1945
19522TIP3   OH279980   4.478   4.836   4.559  0.1222  0.0369 -0.0780
19522TIP3    H179981   4.535   4.879   4.496  0.1428 -0.2032 -0.2214
19522TIP3    H279982   4.444   4.759   4.513 -0.9977  0.6383 -0.3048
19523TIP3   OH279983   1.538   5.013   5.298  0.2876 -0.2345  0.0870
19523TIP3    H179984   1.630   5.003   5.275  0.4140  0.3921  0.2853
19523TIP3    H279985   1.502   5.069   5.230  0.0980 -0.3290  0.1085
19524TIP3   OH279986   2.110   6.646  11.872 -1.0794 -0.7347  0.0573
19524TIP3    H179987   2.179   6.697  11.829  0.2990 -2.3077  0.3021
19524TIP3    H279988   2.034   6.704  11.873 -0.2737  0.4390 -1.7754
19525TIP3   OH279989   5.347   5.934  15.091 -0.0937  0.3050  0.2543
19525TIP3    H179990   5.408   5.993  15.048 -0.1828 -0.3291 -0.7671
19525TIP3    H279991   5.388   5.915  15.176  1.1697 -0.1445 -0.4300
19526TIP3   OH279992   3.268   5.449   2.257  0.4310 -1.1535  0.4393
19526TIP3    H179993   3.227   5.531   2.283 -1.1410 -2.3374  1.9820
19526TIP3    H279994   3.224   5.425   2.176 -1.0413 -1.7273  1.3661
19527TIP3   OH279995   3.349   4.637  10.893  0.0470  0.2054  0.6038
19527TIP3    H179996   3.257   4.636  10.920 -0.0814  1.2944  0.2761
19527TIP3    H279997   3.386   4.712  10.940  0.9738 -0.7186  1.3624
19528TIP3   OH279998   4.070   2.390  10.938 -0.2945  0.8076 -0.5560
19528TIP3    H179999   4.084   2.329  10.865 -0.4278  0.9218 -0.6795
19528TIP3    H280000   4.117   2.469  10.912 -0.0205  0.7121 -0.3391
19529TIP3   OH280001   0.764   3.879  13.051 -0.2929  0.4199 -0.1828
19529TIP3    H180002   0.693   3.819  13.074  0.6675 -0.3973  0.7407
19529TIP3    H280003   0.720   3.952  13.007 -1.6845 -0.1365  0.2285
19530TIP3   OH280004   1.724   1.714   5.379  0.3369  0.3423 -0.3185
19530TIP3    H180005   1.654   1.700   5.314  0.7553 -1.2972 -0.4591
19530TIP3    H280006   1.730   1.631   5.425  1.8143  0.6554  0.0839
19531TIP3   OH280007   3.980   5.504  11.928  0.1696  0.1212  1.2153
19531TIP3    H180008   3.983   5.572  11.996  1.1806  2.1434 -0.7140
19531TIP3    H280009   4.038   5.435  11.961  3.0990  2.3641  1.2105
19532TIP3   OH280010   0.186   1.157  11.760 -0.2320 -0.2855 -0.1790
19532TIP3    H180011   0.115   1.101  11.789  0.5920  0.0711  2.8603
19532TIP3    H280012   0.263   1.100  11.756 -0.2231 -0.2275 -1.3780
19533TIP3   OH280013   3.183   2.998   5.196  0.0051  0.2862 -0.3381
19533TIP3    H180014   3.200   3.070   5.257 -1.8764 -0.3518  1.0478
19533TIP3    H280015   3.237   2.926   5.229 -0.6515  0.0824  0.2994
19534TIP3   OH280016   2.929   0.501  10.182  0.1754  0.4780  0.4550
19534TIP3    H180017   2.975   0.584  10.196 -1.6257  2.1034 -2.3364
19534TIP3    H280018   2.998   0.435  10.183  2.3099  2.5023 -1.1678
19535TIP3   OH280019   2.558   3.338  16.979 -0.0183 -0.4617 -0.2989
19535TIP3    H180020   2.638   3.388  16.964  0.4356 -0.4856  1.7819
19535TIP3    H280021   2.562   3.313  17.071 -3.0984  0.7701  0.3125
19536TIP3   OH280022   6.660   3.777   0.554 -0.2625 -0.0273 -0.5762
19536TIP3    H180023   6.741   3.736   0.585 -1.6540 -2.3327  0.2771
19536TIP3    H280024   6.609   3.792   0.633 -0.1947  2.7187 -0.9531
19537TIP3   OH280025   6.553   3.786  16.809 -0.3761  0.4198 -0.5109
19537TIP3    H180026   6.560   3.845  16.883 -0.8726 -0.1935  0.0340
19537TIP3    H280027   6.527   3.842  16.736 -0.9321  0.8598  0.0150
19538TIP3   OH280028   4.012   5.096  15.234  0.0779 -0.4187 -0.2674
19538TIP3    H180029   3.991   5.065  15.322  0.3703  0.0328 -0.0372
19538TIP3    H280030   3.947   5.164  15.217  1.1680  0.8115  0.3502
19539TIP3   OH280031   1.413   2.688   3.133  0.2486  0.1237 -0.3243
19539TIP3    H180032   1.499   2.648   3.119  1.1215  1.9743 -0.5118
19539TIP3    H280033   1.414   2.715   3.225 -0.6940 -1.0566  0.0566
19540TIP3   OH280034   1.033   3.450  12.123 -0.6024 -0.6210  0.4793
19540TIP3    H180035   0.962   3.463  12.061 -0.0400  1.0411  0.1366
19540TIP3    H280036   1.000   3.486  12.205 -0.2949 -0.1828  0.4123
19541TIP3   OH280037   3.810   4.101  13.400  0.7811 -0.2607 -0.3981
19541TIP3    H180038   3.765   4.177  13.363 -2.2067 -1.7654 -0.0980
19541TIP3    H280039   3.798   4.031  13.336  2.6976 -0.7969 -0.2504
19542TIP3   OH280040   3.368   0.750  14.298 -0.8783 -0.4291  0.8944
19542TIP3    H180041   3.349   0.683  14.363 -1.1852 -0.2109  1.0301
19542TIP3    H280042   3.293   0.747  14.238 -0.9714 -0.1007  0.9920
19543TIP3   OH280043   1.092   1.300  11.375 -0.4784 -0.3881 -0.3937
19543TIP3    H180044   1.038   1.380  11.373 -0.2586 -0.1680  1.0963
19543TIP3    H280045   1.168   1.321  11.321 -0.5052  0.3520 -0.1534
19544TIP3   OH280046   4.499   5.158  15.105 -0.3007  0.8439  0.2129
19544TIP3    H180047   4.530   5.246  15.129 -1.8026  1.8509 -1.3244
19544TIP3    H280048   4.424   5.143  15.162 -0.5948  0.9460 -0.1474
19545TIP3   OH280049   4.723   6.574  16.360 -0.4063 -0.3375 -0.0253
19545TIP3    H180050   4.655   6.579  16.427 -0.7540 -0.2222 -0.3834
19545TIP3    H280051   4.805   6.583  16.408 -0.6206 -0.9187  0.4622
19546TIP3   OH280052   1.544   3.087   5.513  0.3506 -0.1004 -0.0294
19546TIP3    H180053   1.531   3.167   5.461 -0.6724  0.5877  1.2059
19546TIP3    H280054   1.590   3.117   5.592  3.7910 -1.4500 -1.3263
19547TIP3   OH280055   0.513   2.940   3.651 -0.1507  0.0935  0.4293
19547TIP3    H180056   0.452   2.868   3.665  0.9807 -1.2842 -1.2477
19547TIP3    H280057   0.473   2.991   3.580 -0.5196  0.6229  1.0094
19548TIP3   OH280058   5.469   6.647   5.431  0.2894  0.3061  0.1683
19548TIP3    H180059   5.530   6.721   5.440 -1.7777  1.9541  1.4835
19548TIP3    H280060   5.453   6.618   5.520 -0.5721 -0.3201 -0.1783
19549TIP3   OH280061   3.151   3.893   2.372  0.1186  0.8748 -0.0397
19549TIP3    H180062   3.196   3.863   2.451  0.1429  0.6596 -0.1344
19549TIP3    H280063   3.073   3.839   2.367 -0.8959  2.1809  0.8874
19550TIP3   OH280064   0.812   5.335  12.484  0.5899  0.1815 -0.4187
19550TIP3    H180065   0.902   5.339  12.515  0.1270 -0.4154  1.1184
19550TIP3    H280066   0.776   5.422  12.503  0.3987 -0.0833  0.4611
19551TIP3   OH280067   3.411   0.504   5.275  0.1324 -0.1780 -0.1870
19551TIP3    H180068   3.498   0.531   5.305 -0.4524  1.7116 -0.0750
19551TIP3    H280069   3.413   0.519   5.180 -0.0204 -0.2817 -0.2065
19552TIP3   OH280070   6.079   2.485  12.496  0.2032 -0.1057  0.4455
19552TIP3    H180071   5.995   2.530  12.503  1.5955  3.0535 -1.2150
19552TIP3    H280072   6.109   2.474  12.587 -1.3964 -0.1055  0.9936
19553TIP3   OH280073   3.389   4.263  12.290 -0.0145  0.2866 -0.2192
19553TIP3    H180074   3.483   4.263  12.308  0.5691  0.1525 -2.8892
19553TIP3    H280075   3.372   4.346  12.246 -1.2556  0.5013  0.6120
19554TIP3   OH280076   6.567   6.507  15.575 -0.0754 -0.7945  0.4172
19554TIP3    H180077   6.608   6.591  15.558  0.8270 -0.9002  1.8389
19554TIP3    H280078   6.474   6.526  15.583  0.2932  0.4589  2.6106
19555TIP3   OH280079   2.601   4.962  13.324 -0.5914 -0.1731 -0.1528
19555TIP3    H180080   2.673   5.017  13.354 -1.3485  2.3111 -2.5073
19555TIP3    H280081   2.643   4.897  13.268  0.4534 -3.0368  3.5216
19556TIP3   OH280082   2.797   4.465  11.739 -0.4206  0.4903  0.3073
19556TIP3    H180083   2.744   4.543  11.757  0.3431  0.9440  0.6028
19556TIP3    H280084   2.814   4.427  11.825 -0.0919  0.4686  0.2348
19557TIP3   OH280085   1.561   1.745  12.429 -0.2367  0.0600  0.3732
19557TIP3    H180086   1.545   1.666  12.482 -0.1051  1.0837  2.0133
19557TIP3    H280087   1.644   1.779  12.463  0.2319  0.3704 -1.0261
19558TIP3   OH280088   5.715   2.679  13.312  0.0558  0.8063 -0.2431
19558TIP3    H180089   5.778   2.719  13.252 -0.8361  3.9660  0.7656
19558TIP3    H280090   5.646   2.646  13.254  1.2672 -0.2209 -1.1705
19559TIP3   OH280091   3.246   5.422  15.499 -0.0260 -0.4739  0.6649
19559TIP3    H180092   3.298   5.352  15.458 -0.1630 -0.4651  0.4745
19559TIP3    H280093   3.274   5.501  15.453  1.9834  0.0183  2.5461
19560TIP3   OH280094   4.541   3.456  16.893 -0.4329  0.5294 -0.5764
19560TIP3    H180095   4.515   3.468  16.984 -1.8389 -0.7686 -0.7589
19560TIP3    H280096   4.524   3.540  16.851  0.0723  1.0862  0.3056
19561TIP3   OH280097   2.428   3.163  11.626  0.3133  0.1288  0.0595
19561TIP3    H180098   2.462   3.250  11.606  1.2129 -0.6979 -2.5071
19561TIP3    H280099   2.333   3.171  11.613  0.2121  1.0365  1.2651
19562TIP3   OH280100   4.556   3.675  16.285  0.0272  0.2939  0.4412
19562TIP3    H180101   4.590   3.747  16.233 -2.1014  2.7587  2.1994
19562TIP3    H280102   4.632   3.619  16.302  1.6280  1.7273 -1.5406
19563TIP3   OH280103   0.915   2.973   3.079 -0.1232 -0.2802  0.3732
19563TIP3    H180104   0.970   2.915   3.131 -1.4601 -0.7287  1.2954
19563TIP3    H280105   0.834   2.925   3.065 -0.3115  0.3726 -0.9976
19564TIP3   OH280106   6.410   0.821  14.994 -0.3031  0.3159 -0.7329
19564TIP3    H180107   6.440   0.771  14.918 -1.5961 -0.3568 -0.8372
19564TIP3    H280108   6.483   0.818  15.056 -0.0038 -0.9261 -1.1137
19565TIP3   OH280109   1.364   1.012  16.274  0.2849 -0.5372  0.0042
19565TIP3    H180110   1.362   0.983  16.365  1.6173 -0.2964  0.1257
19565TIP3    H280111   1.443   1.065  16.267 -0.2078  0.0897 -1.1111
19566TIP3   OH280112   6.772   1.967  15.865 -0.2949 -0.5993 -0.1758
19566TIP3    H180113   6.708   1.980  15.935  0.0099  0.8919 -0.1474
19566TIP3    H280114   6.853   2.003  15.900 -0.6077  2.2414 -2.0215
19567TIP3   OH280115   5.159   4.429   5.125 -0.1453 -0.5055 -0.4550
19567TIP3    H180116   5.185   4.397   5.038  1.5949 -2.3578  0.6555
19567TIP3    H280117   5.233   4.483   5.154  0.1208 -1.3895  0.5772
19568TIP3   OH280118   6.147   4.313  15.706 -0.2501  0.3235  0.6706
19568TIP3    H180119   6.184   4.393  15.744 -2.4790  0.9171  1.7688
19568TIP3    H280120   6.105   4.269  15.779 -2.8886  0.4314 -0.6625
19569TIP3   OH280121   1.133   5.350  12.572 -0.1348  0.1542 -0.0272
19569TIP3    H180122   1.183   5.391  12.642  0.2516 -0.0218 -0.1934
19569TIP3    H280123   1.169   5.388  12.491  1.8210 -2.0987 -0.3370
19570TIP3   OH280124   5.778   4.192  15.656 -0.3060 -0.0142 -0.1136
19570TIP3    H180125   5.851   4.144  15.695  0.7002 -0.9884 -2.9975
19570TIP3    H280126   5.803   4.284  15.664  0.1980 -0.2118  0.7936
19571TIP3   OH280127   6.158   6.189   3.996  0.2120 -0.5725 -0.3118
19571TIP3    H180128   6.180   6.238   4.076  0.1919  0.0371 -0.6709
19571TIP3    H280129   6.227   6.214   3.934  0.6153 -1.5757 -0.2757
19572TIP3   OH280130   2.443   3.509   5.888 -0.4801 -0.1012  0.0199
19572TIP3    H180131   2.506   3.452   5.932 -0.1242  1.1850  1.2252
19572TIP3    H280132   2.359   3.466   5.900 -0.1822 -0.5187  0.6732
19573TIP3   OH280133   3.794   2.314   3.422 -0.2352 -0.0763  0.1064
19573TIP3    H180134   3.781   2.324   3.328  0.7586 -1.5232 -0.2117
19573TIP3    H280135   3.713   2.346   3.461 -0.2305  1.6281 -1.1640
19574TIP3   OH280136   3.707   2.310  13.581 -0.1859  0.2938 -0.3267
19574TIP3    H180137   3.653   2.236  13.610 -3.3865  2.0873 -1.1849
19574TIP3    H280138   3.774   2.319  13.649 -1.1291 -1.9026  1.0102
19575TIP3   OH280139   4.203   2.071  15.607 -0.1011 -0.3058 -0.0750
19575TIP3    H180140   4.113   2.041  15.622  0.3575 -1.4836  0.3934
19575TIP3    H280141   4.237   2.089  15.695 -0.0901  0.8421 -0.2918
19576TIP3   OH280142   1.968   4.673   1.782 -0.0157 -0.3092  0.1626
19576TIP3    H180143   2.056   4.636   1.779  0.3450  0.5526 -1.4813
19576TIP3    H280144   1.913   4.603   1.816  0.9917 -1.5672 -0.6964
19577TIP3   OH280145   5.106   3.674  13.273 -0.0642 -0.0834  0.4387
19577TIP3    H180146   5.113   3.584  13.305 -0.0552 -0.3919 -0.4020
19577TIP3    H280147   5.155   3.673  13.190  0.3403  0.8138  0.6671
19578TIP3   OH280148   2.291   3.834   4.324 -0.2362  0.0948 -0.2071
19578TIP3    H180149   2.332   3.805   4.242  1.0365  0.3440  0.3203
19578TIP3    H280150   2.197   3.824   4.309 -0.1278  1.5412 -2.2556
19579TIP3   OH280151   0.082   3.408   0.452 -0.7617 -0.7791  0.6411
19579TIP3    H180152   0.102   3.456   0.532 -0.4118  0.8416 -0.3757
19579TIP3    H280153  -0.006   3.437   0.428 -0.6759 -0.9039  0.1743
19580TIP3   OH280154   4.746   0.508   5.896 -0.0479  0.4312  0.0273
19580TIP3    H180155   4.811   0.459   5.946 -0.8773 -1.7534 -0.9166
19580TIP3    H280156   4.792   0.534   5.815 -0.0030 -0.0628 -0.1080
19581TIP3   OH280157   2.939   1.641   4.764  0.1098 -0.4270 -0.5833
19581TIP3    H180158   2.897   1.583   4.828  0.5188  0.0850  0.1660
19581TIP3    H280159   2.869   1.700   4.735 -0.0663 -0.6264 -0.5642
19582TIP3   OH280160   3.155   5.640  12.798  0.7920  0.3379 -0.3684
19582TIP3    H180161   3.107   5.709  12.842  2.7104  0.4848  1.6876
19582TIP3    H280162   3.096   5.565  12.799  0.5472  0.5085  2.0107
19583TIP3   OH280163   4.228   6.651  15.135 -0.0120  0.2541  0.1258
19583TIP3    H180164   4.267   6.614  15.214 -0.4546 -0.7746 -0.1136
19583TIP3    H280165   4.268   6.601  15.063 -1.0160 -0.1385 -0.1750
19584TIP3   OH280166   4.823   4.465   1.736  0.2278 -0.2474 -0.2512
19584TIP3    H180167   4.864   4.381   1.716 -1.1101 -1.4119  1.5966
19584TIP3    H280168   4.881   4.505   1.801 -0.7999 -1.3026  1.3771
19585TIP3   OH280169   2.404   4.994  11.791 -0.4998 -0.0997 -0.3293
19585TIP3    H180170   2.497   5.018  11.782 -1.2243  2.5212 -2.0865
19585TIP3    H280171   2.383   4.954  11.706 -1.3094  0.7603 -0.5451
19586TIP3   OH280172   6.419   4.130   5.355  0.4120  0.5258 -0.3378
19586TIP3    H180173   6.398   4.037   5.348  0.9579  0.2010  1.7939
19586TIP3    H280174   6.357   4.173   5.296 -0.1952 -1.1293 -0.9642
19587TIP3   OH280175   0.526   6.551  16.238  0.6446  0.3209  0.0060
19587TIP3    H180176   0.507   6.460  16.214 -1.6693  0.7975 -0.2321
19587TIP3    H280177   0.541   6.595  16.155 -1.2217  0.7289 -0.1425
19588TIP3   OH280178   2.921   1.030  14.292 -0.0726 -0.3587  0.1697
19588TIP3    H180179   2.838   1.021  14.339 -0.1291  2.1558  0.7160
19588TIP3    H280180   2.964   0.945  14.301 -0.2718 -0.2093  4.4623
19589TIP3   OH280181   0.583   5.029  16.630  0.0397  0.2689 -0.0526
19589TIP3    H180182   0.561   4.968  16.700  1.0641 -0.8214 -0.6349
19589TIP3    H280183   0.548   5.113  16.659 -0.1967 -0.3037  1.4153
19590TIP3   OH280184   0.729   5.760  12.183 -0.2101 -0.1975 -0.1083
19590TIP3    H180185   0.652   5.807  12.214 -0.8583  0.4423 -2.4966
19590TIP3    H280186   0.719   5.757  12.088  3.1545  0.7984 -0.6433
19591TIP3   OH280187   5.549   2.723   3.581  0.5423 -0.5864 -0.2305
19591TIP3    H180188   5.469   2.689   3.620  0.0300  1.1523  0.3476
19591TIP3    H280189   5.520   2.766   3.501  0.8596  0.2154  0.0760
19592TIP3   OH280190   2.385   0.354  16.896 -0.0814  1.0196 -0.7135
19592TIP3    H180191   2.417   0.432  16.852  0.0117  1.3545 -0.0478
19592TIP3    H280192   2.290   0.367  16.902  0.1494  2.0290  1.2219
19593TIP3   OH280193   4.130   4.421  14.292 -0.2733  0.5287  0.6830
19593TIP3    H180194   4.163   4.342  14.250 -0.9721  0.4693  0.2282
19593TIP3    H280195   4.162   4.493  14.238  0.1492  0.5432  0.9513
19594TIP3   OH280196   6.034   2.679   2.377  0.0306  0.0837  0.4330
19594TIP3    H180197   5.965   2.684   2.443 -1.5791  0.0254 -1.1719
19594TIP3    H280198   5.993   2.634   2.303  2.3741 -1.6911  0.0888
19595TIP3   OH280199   2.548   5.997   1.374 -0.2109  1.2129 -0.0841
19595TIP3    H180200   2.530   5.993   1.280  0.5879 -0.4396 -0.2021
19595TIP3    H280201   2.467   5.970   1.416 -0.7470  2.4910 -0.2472
19596TIP3   OH280202   0.755   4.915  13.695 -0.0779  0.4443  0.2721
19596TIP3    H180203   0.839   4.885  13.662 -0.3157  0.9632 -0.8364
19596TIP3    H280204   0.769   5.008  13.714  0.0928  0.1328  1.7935
19597TIP3   OH280205   2.042   0.723   6.453 -0.5544  0.1174  0.5316
19597TIP3    H180206   2.055   0.647   6.510 -0.1482 -0.1380  0.0964
19597TIP3    H280207   1.947   0.726   6.439 -0.5222 -0.6187  0.1276
19598TIP3   OH280208   2.450   3.084  14.536  0.3869  0.7246 -0.0257
19598TIP3    H180209   2.525   3.037  14.572  0.2278  0.5994  0.1470
19598TIP3    H280210   2.465   3.085  14.442  0.1983 -0.0230 -0.0721
19599TIP3   OH280211   4.560   1.638   3.469  0.1704  0.3824 -0.0428
19599TIP3    H180212   4.548   1.547   3.498 -1.5237  0.6014  0.0246
19599TIP3    H280213   4.548   1.635   3.374 -0.7235  0.6337  0.0476
19600TIP3   OH280214   5.935   6.620  16.962 -0.1354 -0.2430 -0.9910
19600TIP3    H180215   5.986   6.609  17.043 -0.5409 -0.6211 -0.7799
19600TIP3    H280216   5.849   6.650  16.992 -0.2998 -0.4268 -1.2790
19601TIP3   OH280217   4.511   5.417   0.454 -0.6598 -0.5789  0.0563
19601TIP3    H180218   4.541   5.365   0.529 -1.4071  0.9071  1.4419
19601TIP3    H280219   4.552   5.502   0.466 -2.9718  0.5754  0.3801
19602TIP3   OH280220   2.133   0.544   6.173  0.2795  0.2073 -0.0430
19602TIP3    H180221   2.050   0.513   6.209  0.8095 -0.2022  0.8565
19602TIP3    H280222   2.109   0.591   6.093 -0.6590 -1.3938 -0.7307
19603TIP3   OH280223   6.177   4.083   1.838  0.8668  0.7635 -0.8098
19603TIP3    H180224   6.091   4.107   1.872  1.0380 -0.2470  0.4299
19603TIP3    H280225   6.238   4.144   1.879  0.8140  1.0773 -1.1944
19604TIP3   OH280226   0.367   1.823  13.221 -0.3964 -0.0258  0.4949
19604TIP3    H180227   0.356   1.877  13.300 -0.2730  0.2518  0.3240
19604TIP3    H280228   0.331   1.738  13.245 -0.9141  0.2335  0.6606
19605TIP3   OH280229   1.265   2.239  17.126 -0.4543  0.5870 -0.6319
19605TIP3    H180230   1.296   2.233  17.036 -1.2144  0.0277 -0.8724
19605TIP3    H280231   1.190   2.179  17.129  0.7739 -0.9400  0.8957
19606TIP3   OH280232   5.438   2.581   2.459 -0.5273 -0.0069  0.7061
19606TIP3    H180233   5.452   2.489   2.437 -0.6274  0.3828 -1.2009
19606TIP3    H280234   5.452   2.586   2.554  1.3177 -1.6526  0.5874
19607TIP3   OH280235   2.280   4.859  11.561 -0.7839 -0.8775 -0.3548
19607TIP3    H180236   2.251   4.813  11.641  1.6290 -0.6901  0.7238
19607TIP3    H280237   2.289   4.789  11.496  0.9138 -1.7155  0.6970
19608TIP3   OH280238   5.882   5.929  15.153  0.0032  0.0581 -0.5296
19608TIP3    H180239   5.970   5.945  15.120  0.6590 -0.0220  1.0904
19608TIP3    H280240   5.842   6.015  15.161  0.3317  0.1815 -0.2275
19609TIP3   OH280241   4.817   4.945   4.656  0.0859 -0.0054  0.0558
19609TIP3    H180242   4.766   5.013   4.612  0.7083 -0.4516 -1.4361
19609TIP3    H280243   4.907   4.962   4.629  0.3713 -0.8256  0.4769
19610TIP3   OH280244   0.032   6.114  16.523  0.7641 -0.1775 -0.2748
19610TIP3    H180245  -0.058   6.134  16.547  0.6490 -0.0364 -0.8051
19610TIP3    H280246   0.082   6.130  16.602  0.2331 -0.8985  0.2130
19611TIP3   OH280247   2.724   1.900   0.924 -0.5789 -0.0913  0.1385
19611TIP3    H180248   2.782   1.855   0.985  2.1484  1.9521 -0.7419
19611TIP3    H280249   2.734   1.853   0.841  0.0406  0.3805 -0.0644
19612TIP3   OH280250   0.410   5.332  11.762 -0.1330  0.2482 -0.5815
19612TIP3    H180251   0.367   5.403  11.811  1.0694  1.1277 -0.7511
19612TIP3    H280252   0.339   5.274  11.738 -0.9844  0.6670  0.7632
19613TIP3   OH280253   0.818   3.136  11.474 -0.2518 -0.0095  0.0689
19613TIP3    H180254   0.875   3.071  11.516  0.8661  0.7838 -0.1891
19613TIP3    H280255   0.742   3.142  11.532  0.3527 -0.3925  0.9242
19614TIP3   OH280256   4.313   5.586   4.368 -0.3735  0.2222 -0.0863
19614TIP3    H180257   4.343   5.501   4.401 -1.8482 -0.3506 -0.1316
19614TIP3    H280258   4.311   5.642   4.445 -0.9112 -0.2553  0.2620
19615TIP3   OH280259   5.898   5.954  13.538  0.0043 -0.1331 -0.0540
19615TIP3    H180260   5.914   5.971  13.445  0.4294  0.5943  0.1398
19615TIP3    H280261   5.980   5.979  13.581  0.5207 -2.3306  0.3261
19616TIP3   OH280262   5.213   4.911  15.130 -0.1184  0.4137  0.8862
19616TIP3    H180263   5.138   4.899  15.072  0.1121 -1.7303  0.9526
19616TIP3    H280264   5.187   4.982  15.189 -0.7313  1.9902 -1.1767
19617TIP3   OH280265   2.154   4.676  16.774 -0.2522  0.3659 -0.2295
19617TIP3    H180266   2.222   4.620  16.813 -2.0064 -1.6904  0.0716
19617TIP3    H280267   2.100   4.616  16.723 -0.5157  2.3333 -2.4108
19618TIP3   OH280268   5.932   6.600   4.595  0.2207  0.3112 -0.5599
19618TIP3    H180269   5.978   6.663   4.650  1.6395 -1.2088  0.0901
19618TIP3    H280270   5.859   6.570   4.650 -0.0731  0.8972 -0.6242
19619TIP3   OH280271   5.298   6.378   4.498  0.2061  0.5483 -0.4577
19619TIP3    H180272   5.237   6.384   4.571  0.1909 -0.0871 -0.4132
19619TIP3    H280273   5.375   6.335   4.534  0.1417  0.0965 -0.8555
19620TIP3   OH280274   5.647   0.125  13.497 -0.2022  0.4434 -0.8158
19620TIP3    H180275   5.741   0.142  13.483 -0.5797  4.6970  0.3616
19620TIP3    H280276   5.604   0.180  13.432 -1.8540  1.1929  0.8551
19621TIP3   OH280277   5.038   2.617  11.916  0.2688  0.0253  0.7271
19621TIP3    H180278   4.969   2.560  11.884  1.1558  0.0258 -1.3763
19621TIP3    H280279   5.113   2.559  11.929  0.4817  0.3434  0.9291
19622TIP3   OH280280   4.217   4.574  13.757  0.1948  0.1188 -0.1759
19622TIP3    H180281   4.170   4.614  13.683 -0.8751 -1.2548 -0.2991
19622TIP3    H280282   4.152   4.571  13.827  0.9571  0.6786  0.5603
19623TIP3   OH280283   1.215   2.726   0.795  0.1511  0.3871  0.1557
19623TIP3    H180284   1.144   2.688   0.743  1.0076 -0.0194 -0.7403
19623TIP3    H280285   1.258   2.787   0.735  0.6610  0.5083  0.6432
19624TIP3   OH280286   6.183   3.160  16.115  0.3328 -0.6801 -0.0092
19624TIP3    H180287   6.201   3.147  16.208 -1.2335  0.5286  0.5109
19624TIP3    H280288   6.248   3.225  16.087  0.4986 -0.6926  0.3438
19625TIP3   OH280289   5.322   2.969   3.932  0.3640  0.2963  0.2450
19625TIP3    H180290   5.395   3.027   3.909 -1.2130  1.9602 -0.8970
19625TIP3    H280291   5.332   2.954   4.026  1.1699  2.0168  0.4842
19626TIP3   OH280292   2.457   0.242   3.325  0.1272 -0.1461  0.2874
19626TIP3    H180293   2.543   0.226   3.365  0.4682  1.3758  0.2140
19626TIP3    H280294   2.466   0.213   3.235  1.0249  1.2884 -0.1057
19627TIP3   OH280295   4.667   2.432  14.372  0.3570 -0.0698 -0.3535
19627TIP3    H180296   4.672   2.477  14.288  0.3389  0.5722 -0.0122
19627TIP3    H280297   4.639   2.499  14.435 -2.1638 -1.0789 -0.2574
19628TIP3   OH280298   4.074   6.531   5.622  0.5425 -0.2551  0.2929
19628TIP3    H180299   4.169   6.525   5.633  0.3918  0.4242  2.3625
19628TIP3    H280300   4.044   6.580   5.698 -1.2073  1.9893 -1.7042
19629TIP3   OH280301   3.929   1.266   5.643  0.2649  0.5468  0.2570
19629TIP3    H180302   3.961   1.320   5.715 -0.2179  0.0007  0.8866
19629TIP3    H280303   3.879   1.196   5.685 -0.3154  0.4162 -0.6276
19630TIP3   OH280304   1.641   1.333   0.957  0.1332 -0.2862  0.2826
19630TIP3    H180305   1.557   1.304   0.922  0.3117 -2.1221  1.2776
19630TIP3    H280306   1.700   1.259   0.942  0.9377  0.0103  1.8176
19631TIP3   OH280307   2.331   2.462   0.751  0.1448  0.2013  0.4498
19631TIP3    H180308   2.270   2.532   0.726 -0.9976 -0.9382 -0.0650
19631TIP3    H280309   2.276   2.396   0.792  1.0770 -0.7735  0.1548
19632TIP3   OH280310   1.673   6.425  15.630  0.1782 -0.0753  0.4681
19632TIP3    H180311   1.753   6.380  15.602 -0.0453  0.1809 -0.6438
19632TIP3    H280312   1.605   6.358  15.624  0.2160 -0.1535  0.9020
19633TIP3   OH280313   5.930   0.356   2.144 -0.4484 -0.1578 -0.1251
19633TIP3    H180314   6.006   0.373   2.199  0.5679  0.1036 -1.5770
19633TIP3    H280315   5.870   0.428   2.163 -0.0128  0.0652  0.4328
19634TIP3   OH280316   2.660   4.729  15.545 -0.4827  0.5829  0.0388
19634TIP3    H180317   2.621   4.763  15.465 -0.8362  1.8255  0.7159
19634TIP3    H280318   2.743   4.691  15.517 -1.0468  0.0824 -1.0524
19635TIP3   OH280319   1.973   5.909  12.759 -0.4935 -0.1171  0.3643
19635TIP3    H180320   1.970   5.967  12.835 -0.8922  1.3651 -0.7469
19635TIP3    H280321   2.063   5.876  12.757 -0.5048 -0.2525  1.5130
19636TIP3   OH280322   2.459   0.480  10.368  0.7411  0.3252  0.0394
19636TIP3    H180323   2.369   0.472  10.400  0.8283  0.0608  0.2310
19636TIP3    H280324   2.482   0.571  10.383  0.8105  0.1871  0.8344
19637TIP3   OH280325   2.369   1.848  13.700  0.0270 -0.3923  0.1049
19637TIP3    H180326   2.389   1.883  13.787  0.5050 -2.7540  1.0215
19637TIP3    H280327   2.447   1.869  13.648  1.0202 -1.4911  1.0878
19638TIP3   OH280328   3.818   5.607   4.785  0.2804  0.7183 -0.0194
19638TIP3    H180329   3.912   5.614   4.800  0.5315  2.0021 -1.8031
19638TIP3    H280330   3.791   5.694   4.754 -1.2108  0.0184 -0.8628
19639TIP3   OH280331   6.457   0.335   0.210  0.3866 -0.0981  0.4537
19639TIP3    H180332   6.421   0.352   0.123  2.4160  0.5643 -0.3054
19639TIP3    H280333   6.416   0.401   0.266 -1.5882 -1.0575  0.2437
19640TIP3   OH280334   4.935   5.701   4.401 -0.5276 -1.0165  0.9142
19640TIP3    H180335   4.899   5.776   4.353 -2.2417 -0.8529  2.3772
19640TIP3    H280336   4.961   5.737   4.486 -0.1691 -1.8470  1.1668
19641TIP3   OH280337   5.787   3.056  13.895  0.4460 -0.2113 -0.1767
19641TIP3    H180338   5.777   3.144  13.931  1.4315  0.0475 -0.5144
19641TIP3    H280339   5.713   3.047  13.835 -0.5831 -0.2394  1.0531
19642TIP3   OH280340   0.788   6.676  12.331 -0.0230  0.5979  0.2968
19642TIP3    H180341   0.845   6.678  12.255  2.9423  0.1534  2.3564
19642TIP3    H280342   0.753   6.765  12.338  2.2742  1.5595  0.2029
19643TIP3   OH280343   0.845   2.366   4.123  0.1609 -0.1726 -0.4743
19643TIP3    H180344   0.836   2.440   4.062  0.7882 -2.4609 -3.5972
19643TIP3    H280345   0.935   2.373   4.156 -0.8504  2.3356  2.1462
19644TIP3   OH280346   1.706   2.482  14.521  0.0452 -0.5809 -0.0966
19644TIP3    H180347   1.757   2.563  14.523  0.8467 -1.0844 -0.1137
19644TIP3    H280348   1.700   2.456  14.613 -0.3580 -0.4176 -0.0742
19645TIP3   OH280349   2.839   6.400  17.029 -0.2986 -0.2433 -0.6757
19645TIP3    H180350   2.878   6.365  17.109 -0.2435  0.5109 -0.3665
19645TIP3    H280351   2.851   6.495  17.036 -1.7143 -0.0337 -0.8125
19646TIP3   OH280352   0.816   5.473  11.987 -0.2398 -0.7375  0.1352
19646TIP3    H180353   0.789   5.550  11.936  2.5603 -0.1090 -0.5715
19646TIP3    H280354   0.748   5.408  11.969 -0.8429  0.4070 -2.1355
19647TIP3   OH280355   3.641   0.495  16.808 -0.3147 -0.6668  0.6258
19647TIP3    H180356   3.596   0.570  16.845  0.7853 -1.0109  2.8436
19647TIP3    H280357   3.663   0.440  16.884  1.4038 -1.8174 -0.6241
19648TIP3   OH280358   0.923   1.578   2.017 -0.3889  0.3452  0.2017
19648TIP3    H180359   0.856   1.644   2.034 -2.1226 -1.4210  0.6379
19648TIP3    H280360   0.978   1.579   2.095 -0.0012  1.6735 -0.0678
19649TIP3   OH280361   5.364   3.500   0.569 -0.0848 -0.3891  0.7686
19649TIP3    H180362   5.311   3.433   0.612 -3.4082  0.7611 -1.1510
19649TIP3    H280363   5.368   3.472   0.477  0.2724  0.9431  0.3512
19650TIP3   OH280364   0.714   0.378  14.351 -0.2985  0.0036 -0.3253
19650TIP3    H180365   0.718   0.324  14.272 -1.6164 -0.0330 -0.3974
19650TIP3    H280366   0.625   0.415  14.349 -0.6077 -0.5675  1.5129
19651TIP3   OH280367   5.095   5.606  10.911  0.0883  0.0848  0.1464
19651TIP3    H180368   5.144   5.620  10.830 -0.1791  1.5364  0.2110
19651TIP3    H280369   5.004   5.596  10.882  0.1668 -0.8192  0.1724
19652TIP3   OH280370   3.890   1.162  16.174 -0.3120 -0.1769 -0.0072
19652TIP3    H180371   3.978   1.134  16.151  0.5944  0.7083  2.1308
19652TIP3    H280372   3.854   1.091  16.226  0.0474  0.3937  1.0603
19653TIP3   OH280373   1.456   6.486   3.354 -0.3132 -0.4663  0.0568
19653TIP3    H180374   1.371   6.529   3.345 -1.1762 -2.2780 -0.9535
19653TIP3    H280375   1.496   6.530   3.429 -1.3592  1.6479 -0.5242
19654TIP3   OH280376   5.520   0.178  14.493 -0.4826  0.6848  0.9424
19654TIP3    H180377   5.539   0.107  14.554  0.1333 -0.6501 -0.7315
19654TIP3    H280378   5.430   0.162  14.464  0.1509 -0.3210 -0.5550
19655TIP3   OH280379   3.183   1.006  15.921 -1.2350 -0.4571 -0.1407
19655TIP3    H180380   3.256   1.040  15.869 -1.1511 -1.1760 -0.4952
19655TIP3    H280381   3.122   1.080  15.926 -1.0818 -0.2581 -0.9611
19656TIP3   OH280382   4.706   0.323  13.433  0.3117  0.4463  0.7248
19656TIP3    H180383   4.650   0.331  13.510  1.0022  0.5607  1.2152
19656TIP3    H280384   4.675   0.243  13.389 -1.4939  1.4900 -0.0463
19657TIP3   OH280385   6.010   2.791  15.645  0.4538  0.2737  0.3330
19657TIP3    H180386   5.999   2.878  15.682  0.7302  0.8713 -0.9443
19657TIP3    H280387   6.073   2.802  15.574  0.3485 -0.9280  0.0233
19658TIP3   OH280388   0.439   5.526   6.259  0.2751 -0.6328  0.0104
19658TIP3    H180389   0.427   5.436   6.290  1.6594 -0.8331  0.0375
19658TIP3    H280390   0.422   5.522   6.165  0.6627 -1.0016 -0.0469
19659TIP3   OH280391   3.503   5.934  12.914 -0.2295  0.3944 -0.1559
19659TIP3    H180392   3.425   5.927  12.969  0.2817 -0.6441  0.4771
19659TIP3    H280393   3.471   5.970  12.831 -1.2296  0.7896  0.3862
19660TIP3   OH280394   6.368   6.560   0.429  1.0525  0.1125 -0.1352
19660TIP3    H180395   6.277   6.552   0.459  1.2952  0.7478  0.7981
19660TIP3    H280396   6.361   6.601   0.343  0.3649 -1.4132 -0.8551
19661TIP3   OH280397   5.790   5.330   0.186 -0.1831 -0.3492 -0.1169
19661TIP3    H180398   5.821   5.241   0.167  2.2127 -0.3133  2.8148
19661TIP3    H280399   5.702   5.316   0.223 -0.3104 -1.3768 -0.7518
19662TIP3   OH280400   4.311   2.305   3.926 -0.2590  0.6012  0.2419
19662TIP3    H180401   4.265   2.271   4.003 -1.9402  0.4072 -0.8136
19662TIP3    H280402   4.294   2.399   3.926 -2.3394  0.2887 -1.1673
19663TIP3   OH280403   6.060   6.508  12.786  0.0437  0.3222  0.7338
19663TIP3    H180404   6.110   6.524  12.866 -0.2335  2.0260  0.5953
19663TIP3    H280405   5.976   6.473  12.818  1.2552 -2.7383  0.9568
19664TIP3   OH280406   6.432   0.485   5.018 -0.2708  0.3031  0.1875
19664TIP3    H180407   6.397   0.450   4.936 -1.1172 -0.7425  0.9641
19664TIP3    H280408   6.527   0.489   5.005 -0.1946 -1.7944 -0.1467
19665TIP3   OH280409   4.498   3.929   1.527 -0.1058  0.1145  0.1275
19665TIP3    H180410   4.514   4.004   1.584  0.8779 -0.1862  0.2650
19665TIP3    H280411   4.585   3.895   1.506 -0.4345  0.3447 -1.7493
19666TIP3   OH280412   2.329   0.945   0.463  0.1689  0.3858 -0.0029
19666TIP3    H180413   2.274   0.919   0.389 -1.2663  0.1212  1.1343
19666TIP3    H280414   2.374   1.025   0.432 -0.5086  0.3584 -1.1026
19667TIP3   OH280415   1.598   5.035   4.084  0.4136  0.6159 -0.7067
19667TIP3    H180416   1.654   5.113   4.086  1.2969  0.0097  1.2505
19667TIP3    H280417   1.547   5.039   4.165 -0.5840 -0.1191 -1.2680
19668TIP3   OH280418   6.437   2.403  12.134 -0.0693 -0.1335  0.3557
19668TIP3    H180419   6.359   2.354  12.108 -0.3071  0.4796 -0.0850
19668TIP3    H280420   6.508   2.339  12.125 -0.3647 -0.3831 -0.3037
19669TIP3   OH280421   0.726   3.779   3.242 -0.8051  0.3781 -0.0034
19669TIP3    H180422   0.694   3.721   3.311 -1.8909  0.4053 -0.4598
19669TIP3    H280423   0.781   3.724   3.187  0.2889  0.4114  0.9984
19670TIP3   OH280424   0.010   5.300   4.401  0.2056 -0.3453 -1.0412
19670TIP3    H180425  -0.077   5.282   4.366 -0.4801 -1.7971  1.1896
19670TIP3    H280426   0.049   5.214   4.414  2.0069  0.2896 -1.9942
19671TIP3   OH280427   1.225   1.012   5.288 -0.4795  0.2899  0.5656
19671TIP3    H180428   1.158   1.041   5.226  0.2134 -0.1717 -0.4314
19671TIP3    H280429   1.280   0.952   5.237  0.5786  0.5231  1.4033
19672TIP3   OH280430   4.275   4.409   2.941  0.2611 -0.2868  0.5700
19672TIP3    H180431   4.277   4.361   2.858 -3.2011  0.8910 -0.3460
19672TIP3    H280432   4.236   4.349   3.003 -0.0125 -0.1335  0.5474
19673TIP3   OH280433   2.378   4.856   4.871  0.0079 -0.1059  0.1086
19673TIP3    H180434   2.374   4.760   4.865  0.3993 -0.1002 -0.2179
19673TIP3    H280435   2.403   4.885   4.784 -0.5630  0.3264  0.0771
19674TIP3   OH280436   1.832   1.655   4.361  0.1022  0.3341  1.1704
19674TIP3    H180437   1.894   1.673   4.432  0.2863  2.5001  0.5390
19674TIP3    H280438   1.861   1.571   4.325  3.7540  1.9144 -0.1139
19675TIP3   OH280439   5.679   0.061  11.127  0.1008 -0.1633 -0.0483
19675TIP3    H180440   5.661  -0.032  11.108  0.7248 -0.2179 -0.3984
19675TIP3    H280441   5.745   0.059  11.197 -1.8982  0.0382  1.9427
19676TIP3   OH280442   6.712   6.163   1.347  0.1288 -0.0490  0.7287
19676TIP3    H180443   6.710   6.222   1.272 -0.3316 -0.0596  0.7314
19676TIP3    H280444   6.797   6.120   1.340 -0.3671 -0.9171 -0.4749
19677TIP3   OH280445   4.536   6.003   1.687  0.2984 -0.2824  0.0315
19677TIP3    H180446   4.519   6.096   1.676  0.3086 -0.3550 -0.6574
19677TIP3    H280447   4.629   5.998   1.708  0.4108 -0.1669 -0.4283
19678TIP3   OH280448   5.364   3.428   3.919  0.2605 -0.0258 -0.5063
19678TIP3    H180449   5.273   3.457   3.907  0.2232 -0.5224 -1.5221
19678TIP3    H280450   5.360   3.369   3.994 -0.3402 -0.3915 -0.8201
19679TIP3   OH280451   2.668   4.570  16.096  0.1298 -0.0051  0.6010
19679TIP3    H180452   2.673   4.646  16.037  0.5243  0.0803  0.7461
19679TIP3    H280453   2.594   4.590  16.154  0.5230  0.4867  0.9399
19680TIP3   OH280454   3.293   3.996  16.256 -0.5003 -0.0060  0.1719
19680TIP3    H180455   3.290   3.952  16.341  0.1881  2.5665  1.6633
19680TIP3    H280456   3.289   3.926  16.192 -0.7232 -2.0886  2.3281
19681TIP3   OH280457   3.277   5.645   4.993  0.0600 -0.0108  0.6414
19681TIP3    H180458   3.284   5.558   5.032 -1.5914 -0.4040  0.1293
19681TIP3    H280459   3.365   5.663   4.960  0.7231 -0.9707  1.8048
19682TIP3   OH280460   2.800   6.247  11.605  0.3023  0.1100 -0.0692
19682TIP3    H180461   2.841   6.310  11.664 -1.1009  0.4743  0.5748
19682TIP3    H280462   2.736   6.201  11.659  0.6916 -1.2778 -0.7493
19683TIP3   OH280463   5.304   1.538  12.796  0.1966 -0.4275  0.1852
19683TIP3    H180464   5.389   1.580  12.809  0.9980 -1.5370 -1.1449
19683TIP3    H280465   5.282   1.501  12.881  0.5359  0.7426  0.8053
19684TIP3   OH280466   4.187   3.895   2.465  0.3988  0.3199  0.4313
19684TIP3    H180467   4.108   3.862   2.509  0.0414 -1.0478 -1.1295
19684TIP3    H280468   4.260   3.859   2.517  0.0138 -2.7720 -0.9575
19685TIP3   OH280469   4.372   6.539   5.918 -0.1242 -0.4339  0.0270
19685TIP3    H180470   4.375   6.467   5.981 -2.0115  0.0818  0.7708
19685TIP3    H280471   4.399   6.616   5.969  1.2149 -0.4707 -0.5895
19686TIP3   OH280472   3.854   1.330  12.140 -0.0640  0.4339  0.6346
19686TIP3    H180473   3.769   1.356  12.103  0.0616 -0.4244 -0.3100
19686TIP3    H280474   3.875   1.248  12.095  1.6793  1.0664  0.1967
19687TIP3   OH280475   2.662   5.087  11.372  0.4714 -0.4952 -0.1898
19687TIP3    H180476   2.578   5.055  11.338  0.1434  0.8207 -0.6635
19687TIP3    H280477   2.728   5.038  11.323 -0.0091 -0.9815 -0.3688
19688TIP3   OH280478   2.205   1.904   1.988 -0.5283 -0.1114  0.1862
19688TIP3    H180479   2.281   1.845   1.987  1.0594  1.7745  1.5358
19688TIP3    H280480   2.237   1.985   1.949 -1.6978  0.8831  1.2217
19689TIP3   OH280481   6.378   3.579  16.875 -0.4916 -0.6091 -0.3674
19689TIP3    H180482   6.396   3.669  16.849 -2.4492 -0.1592 -0.3508
19689TIP3    H280483   6.435   3.563  16.950  0.0172  0.5515 -0.4920
19690TIP3   OH280484   5.942   5.517  13.406  0.1475 -0.2892 -0.0537
19690TIP3    H180485   5.983   5.566  13.478 -0.8530  1.2149 -0.4491
19690TIP3    H280486   6.004   5.526  13.334 -0.6990  1.8112 -0.5939
19691TIP3   OH280487   1.502   1.427  12.192  0.5786 -0.9009  0.3857
19691TIP3    H180488   1.482   1.518  12.168  0.0539 -1.5349 -1.8503
19691TIP3    H280489   1.495   1.425  12.287 -1.1449  0.9985  0.3749
19692TIP3   OH280490   1.118   1.182   4.100  0.7025  0.1287  0.2856
19692TIP3    H180491   1.064   1.208   4.175  2.9986  1.2103  1.6669
19692TIP3    H280492   1.091   1.241   4.030  0.8864  1.4726  1.3085
19693TIP3   OH280493   3.109   0.991  13.455 -0.4165  0.1737  0.4909
19693TIP3    H180494   3.014   0.979  13.454 -0.2215 -1.4651  0.2089
19693TIP3    H280495   3.120   1.085  13.470 -2.0599  0.1569  2.1245
19694TIP3   OH280496   1.160   5.761  11.325  0.1516  0.2395  0.4764
19694TIP3    H180497   1.174   5.696  11.394  0.4441  0.8697  1.0202
19694TIP3    H280498   1.232   5.823  11.336 -0.4834  1.0041  0.3682
19695TIP3   OH280499   5.430   0.806  13.564  0.4946  0.3821 -0.0322
19695TIP3    H180500   5.485   0.833  13.490  1.8501 -1.2713  0.3111
19695TIP3    H280501   5.492   0.775  13.629 -0.6617  1.9252  1.9157
19696TIP3   OH280502   1.119   6.023   3.638  0.1292  0.0729  0.6643
19696TIP3    H180503   1.165   5.939   3.631 -1.5044 -0.8989  0.9690
19696TIP3    H280504   1.128   6.048   3.730  0.0365 -0.1342  0.7317
19697TIP3   OH280505   0.528   1.297  12.163 -0.1756  0.3573 -0.1946
19697TIP3    H180506   0.561   1.373  12.116  0.4330  0.2122 -0.0096
19697TIP3    H280507   0.435   1.314  12.174  0.0142  1.2190  0.1207
19698TIP3   OH280508   0.191   6.063  15.489  0.7142 -0.1849 -0.4911
19698TIP3    H180509   0.264   6.119  15.516  0.3873 -0.0921  0.2363
19698TIP3    H280510   0.124   6.123  15.457  0.3245 -0.1403  0.3827
19699TIP3   OH280511   0.047   5.217  17.051 -0.2878  0.5548 -0.8329
19699TIP3    H180512   0.078   5.129  17.069 -0.6350  0.4466 -0.7482
19699TIP3    H280513   0.124   5.273  17.059  0.0132  0.2098 -1.2628
19700TIP3   OH280514   4.439   4.684  11.131 -0.3491  0.0391  0.2721
19700TIP3    H180515   4.513   4.741  11.152 -0.1598 -0.1369  0.0835
19700TIP3    H280516   4.401   4.723  11.052  1.0497 -1.2752 -1.1011
19701TIP3   OH280517   1.030   5.373  11.552  0.5165  0.3293  0.3191
19701TIP3    H180518   1.034   5.366  11.647 -0.7765 -1.6713  0.3074
19701TIP3    H280519   0.945   5.413  11.534  0.8030  0.8012  0.0153
19702TIP3   OH280520   4.835   3.733  13.807  0.0363 -0.2758 -0.4195
19702TIP3    H180521   4.755   3.768  13.845 -1.5315 -3.8275 -0.0604
19702TIP3    H280522   4.904   3.760  13.868 -1.3056  0.5637  0.7837
19703TIP3   OH280523   6.165   2.821  11.830  0.2630 -0.6076  0.0106
19703TIP3    H180524   6.106   2.837  11.757 -0.2591 -1.2266  0.2773
19703TIP3    H280525   6.192   2.729  11.820  1.0219 -0.3896  0.0063
19704TIP3   OH280526   5.912   5.467  16.104  0.7041 -0.1460 -0.2374
19704TIP3    H180527   5.914   5.536  16.170  2.3322  0.3980 -0.8160
19704TIP3    H280528   5.819   5.444  16.097  0.3749  0.4990  1.4671
19705TIP3   OH280529   0.562   3.908   3.950 -0.1628  0.2121 -0.6924
19705TIP3    H180530   0.474   3.945   3.948  0.0531  0.8287  0.3856
19705TIP3    H280531   0.549   3.816   3.972 -0.4461  0.8960  2.5839
19706TIP3   OH280532   2.540   3.103  13.165  0.4033  0.5205  0.1880
19706TIP3    H180533   2.536   3.124  13.071 -1.3600 -0.1599  0.0750
19706TIP3    H280534   2.452   3.120  13.197  0.8592  0.2707  1.6468
19707TIP3   OH280535   3.991   4.304  10.840 -0.3432  0.1416 -0.0035
19707TIP3    H180536   4.027   4.346  10.761 -1.4563 -0.4411 -0.8414
19707TIP3    H280537   4.069   4.274  10.887  0.4547  2.2740  0.1740
19708TIP3   OH280538   2.943   0.591   3.061 -0.2082  0.2778 -0.2705
19708TIP3    H180539   2.888   0.656   3.018 -0.4589 -0.1538 -0.6171
19708TIP3    H280540   2.887   0.513   3.065 -0.5747  0.5785  1.7390
19709TIP3   OH280541   3.147   5.166   3.466 -0.8018  0.2261 -0.7164
19709TIP3    H180542   3.205   5.122   3.529 -3.0166 -0.8539  0.7221
19709TIP3    H280543   3.186   5.252   3.453  1.0757 -0.4321  0.1843
19710TIP3   OH280544   4.017   0.965   1.453  0.4677  0.1427  0.1198
19710TIP3    H180545   3.973   0.926   1.528 -0.9912  0.6514 -0.4504
19710TIP3    H280546   3.971   1.047   1.437  0.2261 -0.3108 -1.7931
19711TIP3   OH280547   5.045   0.052   3.309 -0.0558  0.8912 -0.6891
19711TIP3    H180548   4.981   0.033   3.378 -0.9840  1.7364 -1.2844
19711TIP3    H280549   4.994   0.047   3.228  1.5120 -2.6993 -1.6627
19712TIP3   OH280550   3.774   0.126   3.963 -0.0188 -0.3919  0.1453
19712TIP3    H180551   3.833   0.191   3.925  0.2805 -0.5314  0.3628
19712TIP3    H280552   3.829   0.076   4.023 -0.2207 -0.9043 -0.0855
19713TIP3   OH280553   4.819   5.031   2.768 -0.7010 -0.3929  0.5032
19713TIP3    H180554   4.845   4.939   2.766  0.2008 -0.1354 -0.4904
19713TIP3    H280555   4.724   5.029   2.779 -0.4967 -1.3917  2.5782
19714TIP3   OH280556   5.624   1.157   3.838 -0.0623  0.0588  0.0621
19714TIP3    H180557   5.706   1.207   3.839 -0.3652  0.5824 -0.6002
19714TIP3    H280558   5.634   1.096   3.765  1.6519 -3.2266  2.7461
19715TIP3   OH280559   0.206   6.601  16.888 -0.1682  0.0577 -0.3752
19715TIP3    H180560   0.273   6.533  16.887 -0.7970 -0.5847  0.1254
19715TIP3    H280561   0.225   6.651  16.968 -1.4158 -1.3142  0.8413
19716TIP3   OH280562   0.989   3.937   2.144  0.3028  0.0998 -0.3815
19716TIP3    H180563   0.910   3.924   2.092  0.6960  1.2199 -1.3041
19716TIP3    H280564   1.019   4.025   2.120  0.7820  0.4533  1.3600
19717TIP3   OH280565   5.982   3.801   3.300  0.5848  0.2724  0.8274
19717TIP3    H180566   5.926   3.853   3.242  1.4518  2.7166  2.0603
19717TIP3    H280567   5.933   3.720   3.315  0.0663 -0.2927 -2.8072
19718TIP3   OH280568   3.548   1.088   3.329 -0.1708 -0.0023 -0.0963
19718TIP3    H180569   3.560   1.182   3.318  1.4151  0.0203  1.3381
19718TIP3    H280570   3.636   1.051   3.320 -0.7237 -1.3349 -0.4101
19719TIP3   OH280571   6.052   1.264  15.212 -0.2022  0.0261  0.0121
19719TIP3    H180572   5.995   1.334  15.242 -1.0126 -0.7950  0.4394
19719TIP3    H280573   5.993   1.199  15.173  0.2968 -1.3644  1.4792
19720TIP3   OH280574   5.435   2.375  11.344  0.1033  0.5510  0.5181
19720TIP3    H180575   5.356   2.408  11.300 -0.6078 -2.0332 -0.3144
19720TIP3    H280576   5.405   2.345  11.429  0.1398 -0.5477  0.1538
19721TIP3   OH280577   0.385   5.627  12.034  0.2104  0.2757  0.7190
19721TIP3    H180578   0.402   5.721  12.031  4.0082 -0.2611  0.3983
19721TIP3    H280579   0.334   5.609  11.955 -2.0063  2.2073  1.6232
19722TIP3   OH280580   0.517   0.406  12.343  0.3601  0.1298 -0.7742
19722TIP3    H180581   0.604   0.366  12.336 -0.1352 -1.2658  0.4928
19722TIP3    H280582   0.481   0.398  12.254  0.8666 -0.8983 -0.9100
19723TIP3   OH280583   4.758   3.824  13.548  0.3604  0.1348  0.0283
19723TIP3    H180584   4.781   3.788  13.633 -0.6078 -0.3126  0.1157
19723TIP3    H280585   4.719   3.909  13.569  0.0074 -0.0299  0.0454
19724TIP3   OH280586   0.745   0.843  14.829  0.3901  0.3394  0.0707
19724TIP3    H180587   0.753   0.759  14.784  1.1574  0.4271  0.0344
19724TIP3    H280588   0.835   0.872  14.843  0.1345  1.5184 -0.5823
19725TIP3   OH280589   0.035   0.211  16.511  0.0100  0.7237  0.3864
19725TIP3    H180590   0.079   0.285  16.470  2.1314 -0.3536  0.5568
19725TIP3    H280591   0.080   0.199  16.594 -0.4454 -0.5932  0.4757
19726TIP3   OH280592   3.436   0.829   5.325  0.3853 -0.3257 -0.4228
19726TIP3    H180593   3.405   0.853   5.413 -2.2637 -3.3143 -0.3661
19726TIP3    H280594   3.485   0.748   5.339  0.0747 -0.7439 -1.6925
19727TIP3   OH280595   0.146   0.348   5.443  0.2915 -0.5214  0.0378
19727TIP3    H180596   0.127   0.428   5.394 -0.6131 -0.7311  0.0313
19727TIP3    H280597   0.110   0.365   5.530  1.3572 -0.3836  0.4687
19728TIP3   OH280598   1.451   5.591  17.123  0.3974  0.0210  0.4176
19728TIP3    H180599   1.456   5.624  17.213 -2.2308 -1.5522  1.2331
19728TIP3    H280600   1.373   5.632  17.086  0.2344 -1.0035 -0.4208
19729TIP3   OH280601   0.220   0.613   0.440 -0.3979  0.3964 -0.0357
19729TIP3    H180602   0.138   0.572   0.469  0.9848 -1.8717  0.9169
19729TIP3    H280603   0.278   0.607   0.515  0.5829  2.2753 -0.5903
19730TIP3   OH280604   4.665   5.746   1.521  0.3003 -0.0945 -0.2484
19730TIP3    H180605   4.738   5.730   1.461 -1.9289 -1.1486 -2.9691
19730TIP3    H280606   4.638   5.836   1.503 -0.6396 -0.5487 -1.2593
19731TIP3   OH280607   5.590   4.542  11.293  0.2988  0.2298  0.0611
19731TIP3    H180608   5.561   4.461  11.336  0.7125 -0.1547 -0.3663
19731TIP3    H280609   5.512   4.597  11.290 -0.2857 -0.6169 -0.6934
19732TIP3   OH280610   0.760   1.211  15.919  0.4226  0.4678  0.4428
19732TIP3    H180611   0.703   1.169  15.983  1.9955 -0.5921  1.2053
19732TIP3    H280612   0.700   1.247  15.853 -1.1013 -0.6424  1.1654
19733TIP3   OH280613   2.690   1.137  16.160  0.0091  0.4162 -0.5186
19733TIP3    H180614   2.753   1.207  16.144 -0.5575  0.7218 -1.4697
19733TIP3    H280615   2.745   1.059  16.173  0.5911  0.5891 -1.7868
19734TIP3   OH280616   3.250   3.697   0.726 -0.2766  0.7191 -0.3979
19734TIP3    H180617   3.311   3.637   0.683  0.3076 -0.3206  1.7077
19734TIP3    H280618   3.296   3.724   0.805 -2.1533  0.6635  0.7749
19735TIP3   OH280619   3.641   6.124  12.420 -0.2316 -0.3005 -0.4245
19735TIP3    H180620   3.562   6.126  12.367  0.0450  0.6215 -0.8120
19735TIP3    H280621   3.685   6.206  12.401  0.1243 -0.1789  0.8689
19736TIP3   OH280622   5.531   0.553  12.153 -0.2014  0.3140 -0.2138
19736TIP3    H180623   5.502   0.643  12.170 -4.4051 -0.9776  0.6167
19736TIP3    H280624   5.529   0.510  12.238 -1.4012 -1.2736 -0.9803
19737TIP3   OH280625   5.478   6.499  16.406  0.3024 -0.2491  0.1034
19737TIP3    H180626   5.533   6.498  16.328  0.3282 -2.2314  0.1052
19737TIP3    H280627   5.421   6.575  16.394  0.3153 -0.4914 -1.8377
19738TIP3   OH280628   2.843   4.568   1.424 -0.4279  0.4395 -0.5412
19738TIP3    H180629   2.893   4.634   1.473 -0.6786  0.1103  0.1777
19738TIP3    H280630   2.754   4.603   1.422 -0.2072  0.9963 -1.7701
19739TIP3   OH280631   0.942   4.067   4.248  0.1030 -0.5671 -0.0267
19739TIP3    H180632   0.982   4.093   4.331  1.9217 -0.6035 -0.8666
19739TIP3    H280633   0.907   3.980   4.265  0.7918 -0.7322  0.5992
19740TIP3   OH280634   4.376   2.335   0.016 -0.1989  0.0108 -0.5274
19740TIP3    H180635   4.419   2.414  -0.015  0.7084 -0.4012 -0.3606
19740TIP3    H280636   4.405   2.267  -0.045  0.5610 -0.5492  0.4263
19741TIP3   OH280637   1.963   2.511  10.514  0.0107  0.0201  0.6687
19741TIP3    H180638   2.026   2.548  10.575  0.3832  0.3604  0.0904
19741TIP3    H280639   1.932   2.586  10.463 -0.1954 -0.2769  0.3502
19742TIP3   OH280640   4.588   6.215   1.109  0.0596  0.1945 -0.0919
19742TIP3    H180641   4.594   6.119   1.108  2.0994  0.2750 -1.7230
19742TIP3    H280642   4.679   6.245   1.107 -0.5082  2.2029  1.1913
19743TIP3   OH280643   3.578   6.726   2.724  0.2542 -0.2700 -0.5103
19743TIP3    H180644   3.585   6.638   2.685  1.1834  0.2176 -1.5023
19743TIP3    H280645   3.485   6.736   2.744  0.3714 -2.2366  1.4507
19744TIP3   OH280646   3.176   4.731  16.906  0.1778 -0.5151 -0.2513
19744TIP3    H180647   3.090   4.770  16.893  1.5082  1.9811 -2.6266
19744TIP3    H280648   3.179   4.656  16.846 -0.7247 -1.4238  0.7970
19745TIP3   OH280649   6.185   6.032  15.474 -0.0085 -0.2016  0.0451
19745TIP3    H180650   6.220   6.116  15.502 -0.7910  0.2695 -0.3502
19745TIP3    H280651   6.097   6.028  15.512 -0.6415 -0.0548 -1.3408
19746TIP3   OH280652   6.494   3.855   4.623  0.4143 -0.1394  0.3894
19746TIP3    H180653   6.441   3.857   4.702  0.7181 -0.6761  0.6093
19746TIP3    H280654   6.584   3.853   4.654  0.6002  1.1659  0.0139
19747TIP3   OH280655   0.665   5.318   6.189 -0.3287 -0.0524  0.0218
19747TIP3    H180656   0.712   5.401   6.187 -1.4107  0.5673 -1.2173
19747TIP3    H280657   0.594   5.332   6.251 -0.7675  0.1082 -0.5094
19748TIP3   OH280658   5.294   4.271  12.904  0.1206 -0.7175  0.0119
19748TIP3    H180659   5.358   4.311  12.964  0.0956  0.1979 -0.5629
19748TIP3    H280660   5.216   4.258  12.958  0.5676 -1.2355  0.5495
19749TIP3   OH280661   6.272   2.105   0.218  0.2617 -0.1792  0.1080
19749TIP3    H180662   6.249   2.036   0.280  0.9147  0.2608  0.8589
19749TIP3    H280663   6.197   2.166   0.222  0.3570 -0.0881  0.5654
19750TIP3   OH280664   6.078   6.312  14.829 -0.2295 -0.0879  0.7351
19750TIP3    H180665   6.091   6.370  14.754  0.7078 -0.6200  0.4605
19750TIP3    H280666   5.983   6.298  14.834 -0.2309 -0.9627 -1.0739
19751TIP3   OH280667   3.953   2.644   0.487 -0.2257 -0.0483 -0.6991
19751TIP3    H180668   3.911   2.704   0.549 -0.6439 -0.8538 -0.1864
19751TIP3    H280669   3.894   2.569   0.482  1.2825 -1.3962  0.3532
19752TIP3   OH280670   1.028   4.545  12.557 -0.8162  0.3532  0.1971
19752TIP3    H180671   1.034   4.555  12.652  1.0319  1.9952 -0.0171
19752TIP3    H280672   1.067   4.459  12.540  0.6335  0.8574  0.8152
19753TIP3   OH280673   2.002   1.281   1.633  0.0903  0.0090  0.0585
19753TIP3    H180674   2.095   1.264   1.653  0.4294  0.9023 -0.6888
19753TIP3    H280675   1.994   1.260   1.540 -0.5136 -0.2533  0.1663
19754TIP3   OH280676   5.891   3.546   3.312 -0.0158 -0.0841  0.2485
19754TIP3    H180677   5.842   3.466   3.331 -0.7507  0.4636  0.7413
19754TIP3    H280678   5.901   3.545   3.217 -0.6179 -0.4250  0.1794
19755TIP3   OH280679   0.629   1.751  15.869  0.0372 -0.0274 -0.7469
19755TIP3    H180680   0.666   1.836  15.894  0.2671 -0.3589  0.0718
19755TIP3    H280681   0.695   1.687  15.896 -0.0262 -0.4518 -1.5819
19756TIP3   OH280682   6.019   5.335   4.415  0.5435  0.2188  0.3858
19756TIP3    H180683   5.971   5.399   4.362 -0.6120  0.6218  1.8552
19756TIP3    H280684   6.109   5.368   4.416 -0.1680  2.3273  1.7709
19757TIP3   OH280685   4.248   6.153  10.501  0.1862  0.4373 -0.8132
19757TIP3    H180686   4.270   6.213  10.429  1.1531  1.0111 -0.0698
19757TIP3    H280687   4.152   6.157  10.507  0.2219  1.9101 -0.8115
19758TIP3   OH280688   0.331   3.859   0.234  0.1767  0.5685  0.0609
19758TIP3    H180689   0.385   3.786   0.203  1.4931  0.6825  1.9167
19758TIP3    H280690   0.336   3.853   0.329 -0.5582  2.4861  0.2554
19759TIP3   OH280691   2.753   3.250   2.329  0.5038  0.1470  0.4551
19759TIP3    H180692   2.823   3.228   2.391  0.4107 -1.3264  0.0782
19759TIP3    H280693   2.679   3.274   2.385  0.9037  0.4049  0.8849
19760TIP3   OH280694   3.293   1.926  12.330  0.4047 -0.1043 -0.3355
19760TIP3    H180695   3.221   1.980  12.361 -0.2376 -1.3859  0.4887
19760TIP3    H280696   3.370   1.961  12.375  0.2427  0.9717 -0.8629
19761TIP3   OH280697   3.926   6.622  13.223  0.4784  0.2855 -0.8194
19761TIP3    H180698   3.860   6.609  13.156  0.2063  1.7188 -0.8706
19761TIP3    H280699   3.879   6.613  13.306  0.3295  0.7454 -0.8506
19762TIP3   OH280700   6.698   5.098  11.084 -0.0602 -0.0412  0.1527
19762TIP3    H180701   6.772   5.040  11.066  1.3241  2.2650 -2.4042
19762TIP3    H280702   6.631   5.041  11.121  1.5370 -3.0732 -1.2551
19763TIP3   OH280703   2.469   5.960  15.846  0.1667 -0.1297  0.1858
19763TIP3    H180704   2.561   5.983  15.833  0.1821 -0.8083 -1.1035
19763TIP3    H280705   2.422   6.041  15.830  0.4442 -0.1555 -0.8426
19764TIP3   OH280706   2.222   5.308   4.540 -0.3729 -0.6039 -0.9133
19764TIP3    H180707   2.229   5.392   4.585 -1.5374 -0.1500 -1.5314
19764TIP3    H280708   2.286   5.313   4.469  0.9072 -1.0114  0.1830
19765TIP3   OH280709   2.689   2.572   2.324 -0.2175 -0.2442 -0.2715
19765TIP3    H180710   2.636   2.494   2.337  0.4571 -0.5087  1.0634
19765TIP3    H280711   2.637   2.643   2.361  0.2850 -0.4964  0.9899
19766TIP3   OH280712   5.371   1.052   3.051  0.0769 -0.4985 -0.3050
19766TIP3    H180713   5.448   0.999   3.034  0.0178 -0.7544  0.2204
19766TIP3    H280714   5.404   1.142   3.052  0.1598 -0.4997 -1.2919
19767TIP3   OH280715   3.806   0.341   4.187 -0.3681 -0.2747  0.3568
19767TIP3    H180716   3.829   0.250   4.206  0.2157  0.1558  1.9108
19767TIP3    H280717   3.711   0.342   4.186 -0.4745 -0.4763  2.9654
19768TIP3   OH280718   1.804   2.167  13.386 -0.1137 -0.0127  0.0705
19768TIP3    H180719   1.822   2.161  13.293  1.0350 -0.6243  0.3158
19768TIP3    H280720   1.876   2.121  13.428 -1.3011 -0.9194  1.2074
19769TIP3   OH280721   5.735   2.263   1.596  0.4522 -0.3101 -0.1807
19769TIP3    H180722   5.778   2.189   1.638 -2.2061 -1.8874  0.0505
19769TIP3    H280723   5.705   2.228   1.512  0.7014  1.0730 -0.8706
19770TIP3   OH280724   6.206   6.216   1.467  0.6757 -0.4986 -0.9674
19770TIP3    H180725   6.150   6.289   1.494  0.4121 -1.2136  0.5224
19770TIP3    H280726   6.243   6.244   1.383 -1.7260  0.0907 -1.9046
19771TIP3   OH280727   5.250   0.887  16.444 -0.9124  0.1547  0.2271
19771TIP3    H180728   5.283   0.976  16.435 -2.0071  0.7547  1.7542
19771TIP3    H280729   5.317   0.841  16.495 -1.5447  0.8766  1.7730
19772TIP3   OH280730   5.351   1.232   3.821  0.0764  0.0668  0.1654
19772TIP3    H180731   5.344   1.266   3.731 -1.8387 -0.3251  0.1211
19772TIP3    H280732   5.429   1.177   3.820 -0.7655 -1.2001 -1.7317
19773TIP3   OH280733   5.929   3.283   1.436  0.3629  0.1179 -0.1660
19773TIP3    H180734   6.017   3.249   1.451  0.1818 -0.2292  0.1178
19773TIP3    H280735   5.942   3.376   1.419  0.7777  0.0831 -0.0529
19774TIP3   OH280736   3.108   0.693   1.225 -0.4376  0.1120 -0.3352
19774TIP3    H180737   3.097   0.708   1.131  1.8383 -0.6564 -0.7795
19774TIP3    H280738   3.110   0.598   1.234  0.3663  0.1809  0.3334
19775TIP3   OH280739   0.920   3.488  11.660  0.1184 -0.4341 -0.4783
19775TIP3    H180740   1.012   3.507  11.675  0.3564 -0.8322 -1.3499
19775TIP3    H280741   0.905   3.403  11.702  0.1163 -0.3051 -0.2206
19776TIP3   OH280742   5.557   4.481  15.916 -0.1220 -0.6430  0.3313
19776TIP3    H180743   5.525   4.399  15.953 -1.0314  0.2507  1.6087
19776TIP3    H280744   5.585   4.458  15.828 -3.5953 -1.6662 -0.6445
19777TIP3   OH280745   5.911   3.847   1.523  0.0434 -0.2492 -0.4017
19777TIP3    H180746   5.930   3.886   1.609 -0.4489  0.6068 -0.6647
19777TIP3    H280747   5.816   3.841   1.520  0.1092 -1.3382 -0.4393
19778TIP3   OH280748   6.362   3.222  15.738  0.5995  0.5238 -0.6742
19778TIP3    H180749   6.444   3.215  15.787 -0.4049 -1.3344  0.8813
19778TIP3    H280750   6.375   3.298  15.680  2.5274  1.7227  1.1760
19779TIP3   OH280751   6.357   0.356   1.812  0.0567 -0.1582 -0.1376
19779TIP3    H180752   6.394   0.280   1.857  1.7798  1.2270  0.9268
19779TIP3    H280753   6.385   0.346   1.721  0.3796 -0.7285  0.0193
19780TIP3   OH280754   2.234   4.986   2.853  0.4868  0.0973 -0.6498
19780TIP3    H180755   2.293   5.042   2.904  0.0909  0.3654 -0.4769
19780TIP3    H280756   2.261   4.997   2.762  1.4017 -0.6242 -0.4785
19781TIP3   OH280757   2.400   1.912   4.101 -0.1414 -0.3262 -0.2066
19781TIP3    H180758   2.341   1.911   4.176 -0.3488 -2.8574 -0.3143
19781TIP3    H280759   2.464   1.980   4.121 -1.5201  0.6129  1.1760
19782TIP3   OH280760   6.789   4.260  14.702 -0.1578  0.6435 -0.0550
19782TIP3    H180761   6.862   4.260  14.764 -1.4942 -0.8684  1.6244
19782TIP3    H280762   6.796   4.176  14.657 -0.0186  1.1291 -0.9533
19783TIP3   OH280763   0.560   4.869   5.208 -0.3579 -0.7883 -0.1814
19783TIP3    H180764   0.468   4.867   5.235 -0.5335  0.5381 -0.6093
19783TIP3    H280765   0.558   4.847   5.115 -0.3644  0.2087 -0.4293
19784TIP3   OH280766   3.651   2.801  13.160  0.4147 -0.2836  0.1772
19784TIP3    H180767   3.726   2.858  13.149  0.6037 -1.0030 -3.2696
19784TIP3    H280768   3.583   2.857  13.197  1.9079  0.9631  1.1315
19785TIP3   OH280769   6.774   1.166   2.034 -0.4517 -0.1250  0.1136
19785TIP3    H180770   6.780   1.124   1.948  0.4834 -0.4442  0.3292
19785TIP3    H280771   6.859   1.150   2.075  0.3637  2.8480 -0.1782
19786TIP3   OH280772   4.369   3.675  11.896  0.4978 -0.7116 -0.0983
19786TIP3    H180773   4.307   3.611  11.931  0.4968 -0.5237  0.2452
19786TIP3    H280774   4.435   3.622  11.851 -0.1657 -0.8905 -0.8828
19787TIP3   OH280775   0.879   4.403   2.997 -0.1586 -0.0561 -0.2177
19787TIP3    H180776   0.833   4.375   3.076  0.1449 -0.0857 -0.0533
19787TIP3    H280777   0.898   4.322   2.950 -0.8222 -0.0066 -0.5949
19788TIP3   OH280778   0.630   0.526  11.963 -0.2626 -0.1756  0.4738
19788TIP3    H180779   0.722   0.550  11.953 -0.9618  2.0304 -1.7712
19788TIP3    H280780   0.600   0.510  11.874 -1.8190 -2.1187  1.2655
19789TIP3   OH280781   3.665   0.952  15.439  0.1698 -0.2694 -0.4382
19789TIP3    H180782   3.757   0.927  15.445 -0.0990 -1.1527  0.2130
19789TIP3    H280783   3.637   0.962  15.530  0.3680  2.9489 -0.6347
19790TIP3   OH280784   2.799   0.650   1.872 -0.0949 -0.1726  0.1897
19790TIP3    H180785   2.726   0.589   1.883  1.1149 -1.6441  0.4617
19790TIP3    H280786   2.833   0.663   1.961  0.7331 -0.5249 -0.0588
19791TIP3   OH280787   3.567   0.346   5.849 -0.3095 -0.7207  0.0026
19791TIP3    H180788   3.479   0.329   5.883  0.9845 -1.8075  3.2114
19791TIP3    H280789   3.603   0.260   5.831  1.0586 -0.5388  1.6068
19792TIP3   OH280790   1.253   6.095   4.385  0.1024 -0.3442 -0.2316
19792TIP3    H180791   1.177   6.091   4.444  0.2728 -1.1539 -0.0612
19792TIP3    H280792   1.224   6.049   4.306  0.5660 -1.0320 -0.0002
19793TIP3   OH280793   3.627   4.741  13.583 -0.0951  0.8287 -0.0158
19793TIP3    H180794   3.597   4.721  13.495 -1.4699 -0.2092  0.6633
19793TIP3    H280795   3.647   4.656  13.622 -2.4538  0.9352  1.6578
19794TIP3   OH280796   1.369   2.147  11.263  0.1129  0.0021 -0.3822
19794TIP3    H180797   1.286   2.138  11.310 -0.1673 -0.3768 -0.9454
19794TIP3    H280798   1.348   2.130  11.172  0.4910  1.6345 -0.8050
19795TIP3   OH280799   5.310   3.488  17.064  0.3483  0.3404  0.5033
19795TIP3    H180800   5.280   3.420  17.004 -1.1526  0.4722  1.0470
19795TIP3    H280801   5.295   3.451  17.151  1.3601  0.6157  0.8025
19796TIP3   OH280802   0.601   0.858   2.582 -0.4572 -0.0114  0.0019
19796TIP3    H180803   0.674   0.875   2.523 -1.6103  0.5732 -1.3129
19796TIP3    H280804   0.610   0.765   2.606  0.9065  0.1449  0.1882
19797TIP3   OH280805   5.946   1.610   1.566  0.1438 -0.8495 -0.3430
19797TIP3    H180806   5.892   1.687   1.549  1.2063  0.1834  0.8248
19797TIP3    H280807   5.909   1.542   1.510  0.4646  1.0296 -2.9786
19798TIP3   OH280808   0.621   5.190  12.173  0.4635 -0.4880  0.2562
19798TIP3    H180809   0.531   5.172  12.200  0.0054  0.5082 -0.5099
19798TIP3    H280810   0.618   5.184  12.077  1.3416 -0.9597  0.2473
19799TIP3   OH280811   4.941   1.943  11.542  0.2402 -0.3894  0.2004
19799TIP3    H180812   4.934   2.038  11.539 -1.1112 -0.3967  1.6299
19799TIP3    H280813   4.858   1.912  11.505  0.8033 -1.0195 -0.5520
19800TIP3   OH280814   1.295   5.855   1.259  0.2588 -0.3283  0.2319
19800TIP3    H180815   1.281   5.912   1.184 -2.4725  1.5943  2.0154
19800TIP3    H280816   1.217   5.801   1.264  0.2459 -0.2260  1.7955
19801TIP3   OH280817   6.401   1.689   4.390  0.3794 -0.0144  0.0515
19801TIP3    H180818   6.376   1.624   4.455 -1.8508 -0.4742 -1.1579
19801TIP3    H280819   6.329   1.753   4.391 -0.0944 -0.4131 -2.3992
19802TIP3   OH280820   0.337   6.554   0.256  0.0937  0.1107 -0.5968
19802TIP3    H180821   0.428   6.583   0.259 -0.1743  1.1892 -2.0025
19802TIP3    H280822   0.286   6.632   0.276 -0.5463 -0.9318  2.3304
19803TIP3   OH280823   5.589   5.421   0.795 -0.2151  0.3590  0.1242
19803TIP3    H180824   5.597   5.516   0.808 -2.2905  0.6848 -0.5885
19803TIP3    H280825   5.562   5.411   0.704  1.3916 -1.0471 -0.2422
19804TIP3   OH280826   6.767   0.918  13.643  0.2610 -0.3734 -0.5031
19804TIP3    H180827   6.797   0.841  13.692  0.7836 -0.0763 -0.3511
19804TIP3    H280828   6.799   0.904  13.554  0.9373 -0.0187 -0.3230
19805TIP3   OH280829   5.559   2.059  11.378 -0.9439  0.1690 -0.3297
19805TIP3    H180830   5.646   2.098  11.388 -1.2601  0.7871  0.0992
19805TIP3    H280831   5.498   2.129  11.404 -1.5551 -0.3477 -0.3452
19806TIP3   OH280832   2.853   0.688  11.131  0.1116  0.0117 -0.3229
19806TIP3    H180833   2.945   0.670  11.152 -0.6194 -1.9193  1.6288
19806TIP3    H280834   2.840   0.646  11.046  0.5285 -1.6709  0.4015
19807TIP3   OH280835   1.866   0.429  13.532 -0.4131 -0.1250 -0.2092
19807TIP3    H180836   1.793   0.440  13.472  0.3159 -1.4538 -1.3772
19807TIP3    H280837   1.925   0.367  13.489  0.6559 -0.2997  1.3923
19808TIP3   OH280838   4.726   0.067   3.893  0.6481 -0.3671 -0.3230
19808TIP3    H180839   4.770  -0.018   3.901 -0.8909 -1.1378  0.5339
19808TIP3    H280840   4.777   0.126   3.949  0.4655 -1.2903  0.8462
19809TIP3   OH280841   5.251   2.756  15.367 -0.1834 -0.4242 -0.2219
19809TIP3    H180842   5.265   2.723  15.278 -1.0856 -1.3784 -0.0334
19809TIP3    H280843   5.334   2.796  15.391 -0.5816  1.9179 -2.3271
19810TIP3   OH280844   4.011   3.388   1.301 -0.3318  0.1269  0.0557
19810TIP3    H180845   4.069   3.372   1.227 -1.4586 -0.2545 -0.7716
19810TIP3    H280846   4.063   3.441   1.361  0.0739  1.8882 -1.7437
19811TIP3   OH280847   4.163   1.493   0.350 -0.9098  0.1467 -0.0031
19811TIP3    H180848   4.202   1.501   0.263 -0.2053 -0.2344  0.2749
19811TIP3    H280849   4.095   1.426   0.339  0.1551 -0.9742  0.0646
19812TIP3   OH280850   4.986   1.024   0.906 -0.6022 -0.7197  0.4425
19812TIP3    H180851   5.022   0.992   0.824  0.7358  0.9066  0.3481
19812TIP3    H280852   4.955   1.112   0.886 -2.4552 -1.1708  1.1363
19813TIP3   OH280853   0.996   4.270   2.755  0.0090  0.0151  0.5237
19813TIP3    H180854   1.088   4.245   2.762 -0.2383 -0.8629  0.8351
19813TIP3    H280855   0.997   4.353   2.708  0.9727  0.1297  0.7144
19814TIP3   OH280856   1.811   1.663   5.841  0.6333 -0.0932  0.4767
19814TIP3    H180857   1.771   1.741   5.803  0.4719 -0.3449  0.1246
19814TIP3    H280858   1.757   1.644   5.918  0.4935 -0.0287  0.3955
19815TIP3   OH280859   5.765   2.019  14.908  0.2430  0.1169 -0.1895
19815TIP3    H180860   5.777   2.040  15.001  1.7232 -0.6910 -0.1673
19815TIP3    H280861   5.809   1.935  14.896 -1.3578 -0.6221 -1.2902
19816TIP3   OH280862   5.991   0.986  15.077 -0.3212  0.3648  0.1306
19816TIP3    H180863   5.965   0.904  15.034 -0.0950  0.4890 -0.2470
19816TIP3    H280864   5.933   0.992  15.153 -0.7444  0.1499 -0.1654
19817TIP3   OH280865   1.425   2.297  14.629 -0.1633  0.2862 -0.6639
19817TIP3    H180866   1.349   2.247  14.599 -0.1217 -0.8101  0.9432
19817TIP3    H280867   1.416   2.382  14.586 -1.5493 -0.2858 -1.5703
19818TIP3   OH280868   1.649   0.925  15.189  0.5889 -0.1235  0.1127
19818TIP3    H180869   1.634   0.870  15.112 -1.1019  0.7680 -0.2447
19818TIP3    H280870   1.727   0.887  15.230 -0.1275 -2.4000 -0.4415
19819TIP3   OH280871   0.216   1.772  16.807 -0.3713  0.2137 -0.7505
19819TIP3    H180872   0.261   1.775  16.891 -2.7358  0.0373  0.6096
19819TIP3    H280873   0.256   1.842  16.756  1.1372  0.3181  0.5029
19820TIP3   OH280874   1.027   4.318  16.751 -0.3643 -0.1083 -0.3254
19820TIP3    H180875   1.066   4.241  16.791 -1.5502 -1.4096 -1.5595
19820TIP3    H280876   1.051   4.311  16.658  1.9210  2.5692 -0.0778
19821TIP3   OH280877   5.098   1.847  17.127 -0.2937 -0.5927  0.0755
19821TIP3    H180878   5.166   1.904  17.162 -0.2920 -0.0932 -0.7250
19821TIP3    H280879   5.133   1.813  17.045  0.4983 -3.3240  1.4382
19822TIP3   OH280880   1.799   0.015  13.384  0.0716 -0.8118 -0.6889
19822TIP3    H180881   1.800   0.003  13.478  1.5733  0.4218 -0.4979
19822TIP3    H280882   1.891   0.006  13.358 -0.4889 -2.7331 -2.2947
19823TIP3   OH280883   5.281   0.467   4.603 -0.7960 -0.5282  0.1897
19823TIP3    H180884   5.321   0.519   4.673  1.3239  0.8051 -1.8670
19823TIP3    H280885   5.199   0.512   4.583  0.1742  1.0811 -0.3477
19824TIP3   OH280886   4.909   2.983   5.151  0.0480  0.4077 -0.1264
19824TIP3    H180887   4.912   2.984   5.247  0.1776  0.2263 -0.1278
19824TIP3    H280888   4.830   3.032   5.129 -0.4554 -0.2831  0.0975
19825TIP3   OH280889   4.298   4.009  15.326 -0.4089  0.1224 -0.4433
19825TIP3    H180890   4.371   3.949  15.308  0.1145  0.3311  0.8986
19825TIP3    H280891   4.340   4.094  15.337 -1.0776  0.6225 -1.5977
19826TIP3   OH280892   4.085   2.436   0.154  0.6055 -0.4568 -0.1724
19826TIP3    H180893   4.035   2.354   0.159 -0.1658 -0.1522 -2.1765
19826TIP3    H280894   4.154   2.418   0.091  0.6511  0.3269 -0.3550
19827TIP3   OH280895   6.482   4.084   3.773  0.9395  0.1721  0.4979
19827TIP3    H180896   6.450   4.014   3.715 -0.8003  2.6329 -1.7979
19827TIP3    H280897   6.404   4.115   3.818  1.6328  0.8429  1.2648
19828TIP3   OH280898   3.648   6.558  10.294  0.7717 -0.1674 -0.2231
19828TIP3    H180899   3.600   6.619  10.238 -0.0305 -0.2094  0.4142
19828TIP3    H280900   3.642   6.594  10.382  3.7696  1.0024 -0.3660
19829TIP3   OH280901   6.510   1.704   0.198 -0.0881 -0.0201 -0.1180
19829TIP3    H180902   6.494   1.793   0.230  0.3673 -0.0879  0.3045
19829TIP3    H280903   6.588   1.675   0.245  1.4894  0.4120 -2.3496
19830TIP3   OH280904   6.303   1.555  15.926 -0.5898 -0.2468 -0.2198
19830TIP3    H180905   6.398   1.554  15.919 -0.3319  0.6221  2.0697
19830TIP3    H280906   6.282   1.483  15.986 -1.4964 -1.0154 -1.4106
19831TIP3   OH280907   1.429   5.583   3.575  0.2193  0.3399  0.1635
19831TIP3    H180908   1.422   5.506   3.518 -1.5272  0.0139  0.7517
19831TIP3    H280909   1.461   5.548   3.658  0.6200  0.4575  0.0610
19832TIP3   OH280910   2.171   6.265  16.262 -0.5296  0.3271 -0.2758
19832TIP3    H180911   2.194   6.270  16.169  2.1849 -2.1181  0.1408
19832TIP3    H280912   2.137   6.352  16.282 -0.8108  1.0777 -3.4281
19833TIP3   OH280913   0.629   3.131  16.722  0.7086 -0.7137 -0.2363
19833TIP3    H180914   0.643   3.206  16.664 -1.5595 -0.8343 -1.0587
19833TIP3    H280915   0.550   3.153  16.771  0.6262 -2.0992  0.3086
19834TIP3   OH280916   6.126   4.146   2.479  0.0451  0.5778  0.0610
19834TIP3    H180917   6.036   4.132   2.451 -0.5572  3.0445  0.4831
19834TIP3    H280918   6.139   4.084   2.551 -0.7438 -0.8949 -1.0085
19835TIP3   OH280919   6.030   2.255   0.306 -0.2546  0.5223  0.5519
19835TIP3    H180920   5.977   2.214   0.374 -0.9341  1.1716  0.4334
19835TIP3    H280921   5.984   2.336   0.286 -0.4420  0.0214 -1.1743
19836TIP3   OH280922   0.919   0.813   1.342  0.0911  0.4001 -0.2102
19836TIP3    H180923   0.863   0.888   1.363  0.5166  0.8496 -0.6733
19836TIP3    H280924   0.954   0.832   1.255 -1.4278 -1.3078 -1.2522
19837TIP3   OH280925   3.076   2.162  13.694 -0.5061 -0.1830 -0.4412
19837TIP3    H180926   3.160   2.205  13.712 -0.3448 -1.3551  1.9780
19837TIP3    H280927   3.098   2.070  13.682 -1.2720 -0.2242 -1.7831
19838TIP3   OH280928   0.283   3.759   3.065  0.4896 -0.2860  0.4093
19838TIP3    H180929   0.248   3.795   2.983 -0.8107  1.0345  1.4902
19838TIP3    H280930   0.376   3.780   3.062 -0.1403  3.1905  0.8724
19839TIP3   OH280931   2.653   1.363   5.254  0.2367  0.8221  0.3003
19839TIP3    H180932   2.572   1.403   5.222 -0.1377  1.3128  1.7994
19839TIP3    H280933   2.699   1.434   5.300  1.0444  0.2919  0.3354
19840TIP3   OH280934   0.254   5.522  15.434 -0.2849 -0.5744 -0.2875
19840TIP3    H180935   0.163   5.550  15.442 -0.0869 -0.2742  1.3444
19840TIP3    H280936   0.256   5.469  15.355 -1.2730  1.6736 -1.9435
19841TIP3   OH280937   6.160   1.506   2.741  0.3618 -0.2955  0.6731
19841TIP3    H180938   6.153   1.487   2.647  0.4974  0.1442  0.5746
19841TIP3    H280939   6.221   1.441   2.774  1.2743  0.3152  0.2259
19842TIP3   OH280940   0.864   1.139   4.312 -0.0390  0.5398  0.4585
19842TIP3    H180941   0.836   1.068   4.254  0.9216  1.1146 -0.7547
19842TIP3    H280942   0.842   1.108   4.400  0.6158 -1.3867 -0.0024
19843TIP3   OH280943   3.024   4.705   4.952  0.0073 -0.3466  0.3198
19843TIP3    H180944   3.104   4.744   4.916  1.1721 -0.3145  2.7418
19843TIP3    H280945   3.044   4.692   5.045 -3.0822  0.3253  1.1636
19844TIP3   OH280946   4.138   5.865   4.940 -0.2621  0.6102  0.1820
19844TIP3    H180947   4.188   5.853   5.020 -2.1923 -0.6498  1.2595
19844TIP3    H280948   4.084   5.942   4.957  0.9244  1.7192 -0.8221
19845TIP3   OH280949   3.729   4.595   5.647  0.3913 -0.2086 -0.4673
19845TIP3    H180950   3.700   4.552   5.566 -0.6063 -1.5175  0.5397
19845TIP3    H280951   3.655   4.585   5.707  2.0109 -1.5655  1.4359
19846TIP3   OH280952   2.742   0.126   5.278  0.3677 -0.3907  0.1458
19846TIP3    H180953   2.717   0.178   5.354 -0.4191 -1.2336  0.4855
19846TIP3    H280954   2.786   0.049   5.316  0.4353 -0.5643 -0.2848
19847TIP3   OH280955   1.190   1.293   1.359  0.7688  0.4085 -0.1821
19847TIP3    H180956   1.189   1.378   1.403  1.8011  0.3817 -0.0891
19847TIP3    H280957   1.273   1.291   1.312  0.8147 -0.6161 -0.0736
19848TIP3   OH280958   2.844   4.475   5.101  0.1174  0.0373  0.2784
19848TIP3    H180959   2.904   4.493   5.029  1.3900  0.2457  1.3405
19848TIP3    H280960   2.806   4.390   5.082  2.1360 -0.9455  0.4530
19849TIP3   OH280961   3.114   4.051   2.693  0.2028 -0.2054 -0.0167
19849TIP3    H180962   3.165   3.978   2.727  0.1817 -0.0598  0.3286
19849TIP3    H280963   3.168   4.087   2.622  0.1941 -0.5785 -0.2134
19850TIP3   OH280964   4.986   3.565   0.439  0.4385  0.0694 -0.2410
19850TIP3    H180965   5.018   3.655   0.442 -0.6334  0.4764 -0.5962
19850TIP3    H280966   5.000   3.532   0.528  0.6830  0.6317 -0.0655
19851TIP3   OH280967   5.551   4.572  10.984 -0.3498 -0.0923  0.2628
19851TIP3    H180968   5.485   4.518  10.941 -0.1222 -0.0525 -0.1403
19851TIP3    H280969   5.617   4.510  11.015  1.8949  0.1130 -3.5147
19852TIP3   OH280970   4.577   3.836  11.972 -0.2448  0.6628 -0.1224
19852TIP3    H180971   4.546   3.805  12.058  0.6447  1.1611  0.3930
19852TIP3    H280972   4.533   3.779  11.909  0.4556 -0.9105  0.7544
19853TIP3   OH280973   4.606   2.069  12.799  0.1377 -0.6139  0.1540
19853TIP3    H180974   4.693   2.103  12.778 -0.1537  0.0339 -0.0469
19853TIP3    H280975   4.562   2.065  12.714 -0.2253 -0.3634  0.3312
19854TIP3   OH280976   4.499   2.953   5.012  0.1239  0.2338 -0.0374
19854TIP3    H180977   4.441   2.881   4.988  0.8318 -0.6116  0.7211
19854TIP3    H280978   4.441   3.018   5.051 -0.3419 -0.6215  0.7619
19855TIP3   OH280979   0.048   2.223  16.788 -0.4704 -0.3780  0.4177
19855TIP3    H180980   0.013   2.245  16.702  0.7010 -0.3628 -0.0770
19855TIP3    H280981  -0.023   2.243  16.849 -1.1087  0.1779 -0.4819
19856TIP3   OH280982   6.569   4.794   3.480 -0.4566  0.2454  0.2816
19856TIP3    H180983   6.490   4.743   3.494 -1.2550  1.3272 -0.1374
19856TIP3    H280984   6.572   4.856   3.553 -0.6319  0.9718 -0.3132
19857TIP3   OH280985   5.215   3.913   6.593 -0.1293  0.4763  0.2629
19857TIP3    H180986   5.135   3.872   6.625 -0.2861 -1.1105 -1.9615
19857TIP3    H280987   5.285   3.857   6.626 -0.0268  0.9277  0.8305
19858TIP3   OH280988   5.685   4.637  10.532  0.1493 -0.5819 -0.1353
19858TIP3    H180989   5.608   4.649  10.588 -1.1752  0.5511 -2.0403
19858TIP3    H280990   5.660   4.565  10.473 -0.3302  1.0689 -2.0490
19859TIP3   OH280991   6.621   3.758   5.323 -0.1484 -0.3717 -0.3244
19859TIP3    H180992   6.669   3.777   5.242 -0.4665 -1.3594 -0.7563
19859TIP3    H280993   6.611   3.663   5.324  2.6239 -0.7811  2.4669
19860TIP3   OH280994   5.566   5.196  17.196  0.2221  0.2115  0.2611
19860TIP3    H180995   5.566   5.148  17.113  2.3895 -0.7189  0.7137
19860TIP3    H280996   5.561   5.128  17.263  1.7829  0.6697  0.8939
19861TIP3   OH280997   0.486   3.232   1.022  0.3366  0.4160 -0.1257
19861TIP3    H180998   0.449   3.148   1.047 -0.7914  1.6331  2.8043
19861TIP3    H280999   0.546   3.255   1.093 -0.7435  2.7942  0.1482
19862TIP3   OH281000   3.308   6.667  12.073  0.3121  0.1798 -0.7763
19862TIP3    H181001   3.384   6.722  12.093 -0.3226  1.3690 -1.5022
19862TIP3    H281002   3.329   6.582  12.112  0.7861  1.2711  1.5229
19863TIP3   OH281003   5.632   5.098  11.563 -0.0690 -0.2003  0.4193
19863TIP3    H181004   5.593   5.020  11.601  0.2424 -1.0191 -0.8865
19863TIP3    H281005   5.711   5.067  11.519  0.1650  0.8717  0.0561
19864TIP3   OH281006   2.332   6.490  14.216  0.0716  0.2125 -0.0975
19864TIP3    H181007   2.289   6.575  14.232 -2.4695 -1.0310  0.1563
19864TIP3    H281008   2.274   6.445  14.155  0.0466 -2.2621  1.6065
19865TIP3   OH281009   4.333   2.714  12.980 -0.0507  0.5646  0.0813
19865TIP3    H181010   4.302   2.734  13.069  0.1487 -1.4259  0.6539
19865TIP3    H281011   4.254   2.713  12.927 -0.5718 -1.0416  0.8353
19866TIP3   OH281012   6.366   1.259   5.775  0.3221 -0.1324  0.2281
19866TIP3    H181013   6.373   1.225   5.686 -1.4605 -1.6932  0.6282
19866TIP3    H281014   6.409   1.194   5.829  0.5990  0.3683  0.6186
19867TIP3   OH281015   4.013   4.738   3.310  0.6699 -0.1202 -0.2688
19867TIP3    H181016   3.960   4.736   3.230  1.1531 -0.2367 -0.5945
19867TIP3    H281017   4.067   4.659   3.305  0.2254 -0.4903  0.5153
19868TIP3   OH281018   2.497   0.460  13.547 -0.1076  0.0037 -0.0624
19868TIP3    H181019   2.419   0.423  13.587  1.0053 -1.9349  0.4026
19868TIP3    H281020   2.562   0.390  13.550  1.3119  1.1759 -1.4785
19869TIP3   OH281021   4.326   5.473   2.618 -0.6628 -0.3861  0.1217
19869TIP3    H181022   4.416   5.442   2.604  0.1282  2.3334 -1.4887
19869TIP3    H281023   4.277   5.437   2.545  0.5412  2.8311 -2.5392
19870TIP3   OH281024   4.723   4.282  12.056  0.1920 -0.0706 -0.7828
19870TIP3    H181025   4.749   4.193  12.030 -0.7957 -0.7928  0.5503
19870TIP3    H281026   4.632   4.272  12.085  0.4603  1.1305  0.5573
19871TIP3   OH281027   3.088   2.411   3.105  0.7961 -0.6989  0.0188
19871TIP3    H181028   3.140   2.377   3.032  0.5945  0.5819 -0.7660
19871TIP3    H281029   3.124   2.369   3.182  3.4596  0.5582 -0.4123
19872TIP3   OH281030   2.221   5.869   0.378 -0.2499  0.0636  0.5974
19872TIP3    H181031   2.215   5.809   0.303  2.7340  2.0689 -1.4735
19872TIP3    H281032   2.152   5.933   0.363  0.7263  0.8148 -0.8851
19873TIP3   OH281033   2.506   2.310  13.005  0.3923  0.3668 -0.0562
19873TIP3    H181034   2.446   2.261  12.948  0.6335  0.3696 -0.3137
19873TIP3    H281035   2.547   2.374  12.947  0.8170  0.2100  0.0653
19874TIP3   OH281036   2.042   1.558  12.015 -0.0324  0.0982  0.0506
19874TIP3    H181037   2.043   1.463  12.027 -1.7482  0.0095 -0.3462
19874TIP3    H281038   1.959   1.586  12.053 -0.1333  1.2850 -1.0083
19875TIP3   OH281039   0.010   2.643   5.733  0.2059  0.3355 -0.0869
19875TIP3    H181040   0.032   2.601   5.816 -0.2363 -2.7326 -1.3893
19875TIP3    H281041  -0.084   2.659   5.738 -0.2697 -1.8549 -0.6939
19876TIP3   OH281042   2.509   0.525   2.303  0.0040 -0.0586 -0.2476
19876TIP3    H181043   2.463   0.517   2.219 -0.5075  0.2743  0.0010
19876TIP3    H281044   2.601   0.515   2.280 -0.0751  0.6856 -0.9551
19877TIP3   OH281045   4.541   3.169  11.414  0.2807 -0.4476 -0.1130
19877TIP3    H181046   4.539   3.242  11.352 -1.6599 -0.0683  0.3360
19877TIP3    H281047   4.624   3.178  11.459  0.3973  1.0563 -0.5801
19878TIP3   OH281048   2.382   3.242   0.489  0.1178 -0.4028 -0.2714
19878TIP3    H181049   2.379   3.275   0.399  0.0170 -2.2661 -1.0007
19878TIP3    H281050   2.423   3.312   0.539 -0.1368  0.8192 -1.7043
19879TIP3   OH281051   1.647   6.171   1.297 -0.2927 -0.7499  0.3286
19879TIP3    H181052   1.680   6.103   1.355 -1.6041 -1.2257  0.5511
19879TIP3    H281053   1.717   6.187   1.235  1.7683  0.7689  2.8318
19880TIP3   OH281054   3.496   6.266   2.885 -0.4136  0.3933  0.0621
19880TIP3    H181055   3.442   6.290   2.960 -1.5343  0.9714 -0.8851
19880TIP3    H281056   3.436   6.220   2.826 -0.7866  3.5842 -2.3301
19881TIP3   OH281057   0.052   5.550  11.807 -0.0081 -0.8730 -0.7164
19881TIP3    H181058   0.061   5.471  11.754  1.2817 -0.3518 -1.3290
19881TIP3    H281059   0.139   5.590  11.804 -0.8640  1.0561 -1.1880
19882TIP3   OH281060   1.619   6.701   5.532 -0.0076  0.3450 -0.0974
19882TIP3    H181061   1.628   6.656   5.616 -1.7393  0.1952  0.0417
19882TIP3    H281062   1.571   6.781   5.553 -0.6885  0.1775 -0.9689
19883TIP3   OH281063   6.621   1.616   4.755 -0.5876  0.6684  0.5371
19883TIP3    H181064   6.569   1.536   4.760 -0.4250  0.5576  0.4475
19883TIP3    H281065   6.557   1.685   4.736 -0.5260  0.2997 -1.2390
19884TIP3   OH281066   1.944   2.489  15.937 -0.6210 -0.7267  0.0421
19884TIP3    H181067   1.873   2.549  15.913 -0.0408  0.2705  0.7075
19884TIP3    H281068   1.915   2.403  15.907 -1.6028 -0.1530 -0.6994
19885TIP3   OH281069   0.124   1.136  15.946  0.3694 -0.1577 -1.1120
19885TIP3    H181070   0.071   1.194  16.001 -2.7900 -2.7686 -1.0914
19885TIP3    H281071   0.071   1.123  15.867  2.2819 -0.8059 -2.3743
19886TIP3   OH281072   3.340   2.341  11.308  0.2795 -0.2008  0.0493
19886TIP3    H181073   3.338   2.380  11.221 -0.1068 -0.8851 -0.2483
19886TIP3    H281074   3.261   2.373  11.351 -0.2511 -0.9793 -0.3384
19887TIP3   OH281075   5.500   6.232   3.047  0.0848 -0.2356 -0.3515
19887TIP3    H181076   5.410   6.257   3.071  0.1555 -0.4336  0.1400
19887TIP3    H281077   5.548   6.314   3.044  0.5964 -0.3163  2.4170
19888TIP3   OH281078   1.575   5.815   1.164  0.0900 -0.2168 -0.1294
19888TIP3    H181079   1.480   5.829   1.158  0.1114  0.1806  0.4249
19888TIP3    H281080   1.613   5.884   1.110  0.0442 -0.8546 -0.9988
19889TIP3   OH281081   2.381   3.404  15.325  0.3738 -0.0406 -0.2565
19889TIP3    H181082   2.474   3.402  15.350  0.3869  0.6007 -0.2490
19889TIP3    H281083   2.379   3.452  15.243 -0.0836  1.0190  0.3562
19890TIP3   OH281084   1.874   5.324  12.348 -0.0200 -0.1605  0.2779
19890TIP3    H181085   1.956   5.351  12.307  0.6632  0.6163  2.0685
19890TIP3    H281086   1.810   5.329  12.278  1.5086 -1.2013 -1.2826
19891TIP3   OH281087   6.461   4.139  11.334  0.5421  0.8305 -0.2086
19891TIP3    H181088   6.387   4.200  11.340 -1.2904 -1.3731  1.1654
19891TIP3    H281089   6.485   4.123  11.425  0.9950 -0.4725 -0.5482
19892TIP3   OH281090   4.998   5.269   1.489 -0.1879  0.4456  0.3109
19892TIP3    H181091   5.091   5.293   1.485 -0.8739  4.2794  2.6611
19892TIP3    H281092   4.982   5.249   1.581 -2.1342  2.4159  0.4769
19893TIP3   OH281093   1.589   2.432  15.398 -0.9292 -0.2533 -0.4187
19893TIP3    H181094   1.592   2.363  15.464  0.6889  0.7692  0.6442
19893TIP3    H281095   1.672   2.426  15.352 -1.7023 -0.4167 -1.8414
19894TIP3   OH281096   6.124   3.312   5.746  0.2972  0.0313 -0.1598
19894TIP3    H181097   6.111   3.352   5.660 -0.2005  2.2612  0.8825
19894TIP3    H281098   6.108   3.383   5.808 -1.2518 -1.9536  1.8753
19895TIP3   OH281099   5.344   1.915  16.685 -0.3875  0.0842  0.3551
19895TIP3    H181100   5.421   1.859  16.673  0.8992  1.6264  0.9560
19895TIP3    H281101   5.330   1.916  16.780  0.0656  1.2872  0.4385
19896TIP3   OH281102   5.129   5.213  14.037 -0.1977 -0.5479 -0.0652
19896TIP3    H181103   5.141   5.240  13.946  0.0720  1.7006  0.5660
19896TIP3    H281104   5.043   5.249  14.062  0.1911 -0.2129  0.8480
19897TIP3   OH281105   3.651   1.088   5.238  0.3062  0.3989 -0.5860
19897TIP3    H181106   3.696   1.170   5.257  3.1898 -0.7899 -1.6511
19897TIP3    H281107   3.672   1.031   5.311  1.0002 -0.3273 -1.3275
19898TIP3   OH281108   5.750   3.545   1.203  0.4352 -0.7571  0.0732
19898TIP3    H181109   5.744   3.571   1.295 -1.1138  1.1652 -0.5042
19898TIP3    H281110   5.842   3.556   1.181  0.8347 -1.2668  1.3767
19899TIP3   OH281111   3.415   6.170  15.088  0.2634 -0.4149 -0.2345
19899TIP3    H181112   3.365   6.171  15.007  0.0909  0.1934 -0.1241
19899TIP3    H281113   3.418   6.077  15.114  0.1497 -0.5829 -0.8248
19900TIP3   OH281114   2.959   0.066  11.075 -0.3295 -0.2204 -0.1909
19900TIP3    H181115   2.998   0.018  11.002  2.2999 -0.0755  0.9919
19900TIP3    H281116   2.968   0.008  11.150 -0.2068  0.7753  0.5897
19901TIP3   OH281117   2.788   3.694   1.900  0.5247 -0.2893  0.0364
19901TIP3    H181118   2.865   3.644   1.872  0.0915 -0.3832 -1.0701
19901TIP3    H281119   2.788   3.689   1.995 -0.0253 -3.2191 -0.0374
19902TIP3   OH281120   3.953   1.036  15.122  0.4534 -0.2109  0.1183
19902TIP3    H181121   3.978   1.123  15.090  1.2460 -0.7624 -0.7751
19902TIP3    H281122   3.911   0.994  15.047 -0.4687 -0.4036  0.7221
19903TIP3   OH281123   0.207   1.451   0.379 -0.7667  0.0988  0.3049
19903TIP3    H181124   0.211   1.426   0.471 -2.0050  0.3987  0.4536
19903TIP3    H281125   0.188   1.369   0.333 -0.1306 -0.0541  0.2985
19904TIP3   OH281126   4.906   6.314   0.175 -0.2465 -0.2354  0.3848
19904TIP3    H181127   4.964   6.314   0.099 -2.5904  0.0304 -1.5144
19904TIP3    H281128   4.853   6.394   0.166 -0.3223  0.0414  2.5613
19905TIP3   OH281129   3.733   5.344   3.338  0.0498 -0.2566  0.2314
19905TIP3    H181130   3.759   5.387   3.419 -0.8500  2.1176 -0.6654
19905TIP3    H281131   3.654   5.390   3.310 -0.9016 -2.4373 -0.9172
19906TIP3   OH281132   0.740   4.907   0.061 -0.0029 -0.2085  0.1388
19906TIP3    H181133   0.801   4.975   0.089 -2.1989  1.5519  0.9987
19906TIP3    H281134   0.787   4.825   0.073  2.1514  1.0506  0.7362
19907TIP3   OH281135   6.758   3.491   1.126 -1.0986 -0.0728  0.3497
19907TIP3    H181136   6.820   3.522   1.060  1.5112 -2.9733  1.1879
19907TIP3    H281137   6.678   3.473   1.077 -0.3684  1.0195 -1.3481
19908TIP3   OH281138   4.287   0.994   3.282 -0.1112 -0.5523  0.4291
19908TIP3    H181139   4.247   1.009   3.196  0.6016 -0.3427  0.1274
19908TIP3    H281140   4.269   0.902   3.301 -0.7149 -0.4697  0.2924
19909TIP3   OH281141   2.255   1.500   4.761 -0.6379  0.0586 -0.0815
19909TIP3    H181142   2.334   1.451   4.785 -0.1190  1.1510  0.5059
19909TIP3    H281143   2.183   1.445   4.792 -0.1451 -1.1608 -1.0170
19910TIP3   OH281144   2.286   2.013  13.201 -0.2562 -0.3811  0.1154
19910TIP3    H181145   2.352   2.083  13.210 -1.5328  1.0447 -1.0565
19910TIP3    H281146   2.337   1.933  13.193  1.3212  0.5960 -0.1204
19911TIP3   OH281147   4.282   6.483   3.975 -0.0477  0.2910  0.0392
19911TIP3    H181148   4.373   6.474   4.002 -0.0626 -0.4358 -0.1290
19911TIP3    H281149   4.276   6.433   3.894 -0.6901 -0.0110  0.2672
19912TIP3   OH281150   6.681   0.203   4.653 -0.2792  0.2150  0.1074
19912TIP3    H181151   6.593   0.240   4.643 -0.3321  0.1046  0.1583
19912TIP3    H281152   6.735   0.251   4.590 -0.6780 -0.6938 -0.9549
19913TIP3   OH281153   2.022   6.082  10.596  0.0544 -0.0781 -0.1265
19913TIP3    H181154   1.929   6.070  10.579 -0.2303  0.0745  1.1733
19913TIP3    H281155   2.046   6.010  10.654  1.0598 -0.8349 -1.4348
19914TIP3   OH281156   2.976   4.615   2.909 -0.1397 -0.7163  0.7410
19914TIP3    H181157   3.060   4.593   2.948  0.1874 -1.5452 -0.3848
19914TIP3    H281158   2.934   4.673   2.973  1.1752 -0.4884  1.4170
19915TIP3   OH281159   5.952   6.330  16.856  0.2561 -0.4628  0.0638
19915TIP3    H181160   5.973   6.282  16.936 -1.1801 -1.6167 -0.1910
19915TIP3    H281161   5.956   6.422  16.881  0.6165 -0.7801  1.2488
19916TIP3   OH281162   4.071   2.871   4.869 -0.0641 -0.6355  0.1657
19916TIP3    H181163   4.000   2.831   4.819 -0.4939 -0.4629  0.6351
19916TIP3    H281164   4.041   2.868   4.960  0.2576  0.0094  0.2941
19917TIP3   OH281165   5.036   2.239  16.591 -0.4908 -0.0133 -0.2531
19917TIP3    H181166   5.029   2.324  16.635 -1.0180  0.2612 -0.8410
19917TIP3    H281167   5.037   2.175  16.662  3.3104  0.5916  0.4016
19918TIP3   OH281168   2.443   2.951   3.602 -0.0360  0.5507 -0.7017
19918TIP3    H181169   2.425   3.013   3.531 -0.3890  1.9994  0.5893
19918TIP3    H281170   2.526   2.981   3.639  0.0552 -0.0853 -0.3871
19919TIP3   OH281171   2.913   0.045   0.276 -0.5412  0.1936  0.1549
19919TIP3    H181172   2.965   0.051   0.356  0.8244 -0.8785 -0.6175
19919TIP3    H281173   2.968   0.083   0.208 -2.0165  1.8705 -0.1946
19920TIP3   OH281174   2.010   4.042   1.564 -0.4555  0.5897 -0.2626
19920TIP3    H181175   2.048   4.088   1.489 -0.9709 -0.6585 -1.3360
19920TIP3    H281176   1.922   4.019   1.536 -0.0193 -1.5784 -0.0486
19921TIP3   OH281177   5.149   5.844  15.302  0.1374 -0.1725 -0.1338
19921TIP3    H181178   5.199   5.876  15.226  0.5219  0.2651  0.2975
19921TIP3    H281179   5.143   5.920  15.360 -0.2140 -0.4896  0.2458
19922TIP3   OH281180   2.558   5.878   5.010 -0.1909  0.4200 -0.2244
19922TIP3    H181181   2.623   5.919   4.953 -0.3152 -0.1770 -0.8032
19922TIP3    H281182   2.505   5.824   4.952  1.3280 -2.3486  0.7975
19923TIP3   OH281183   4.886   1.368   1.931 -0.0500  0.2230  0.1603
19923TIP3    H181184   4.822   1.317   1.882 -0.4594  0.8407  0.0429
19923TIP3    H281185   4.865   1.459   1.911  0.6901  0.4415  0.3437
19924TIP3   OH281186   4.378   4.756  15.562  1.0164 -0.2441 -0.2626
19924TIP3    H181187   4.298   4.802  15.586  0.1689 -0.6736 -2.1319
19924TIP3    H281188   4.441   4.780  15.631  0.2471  2.6194 -0.4554
19925TIP3   OH281189   5.802   2.823  14.662 -0.0607  0.5746  0.1889
19925TIP3    H181190   5.840   2.891  14.718  3.0280  0.0723 -1.1243
19925TIP3    H281191   5.816   2.854  14.573 -0.1249 -1.0131 -0.4082
19926TIP3   OH281192   6.679   0.528   4.478 -0.3412 -0.3629  0.6780
19926TIP3    H181193   6.752   0.468   4.467  0.0375  0.3803 -1.3060
19926TIP3    H281194   6.683   0.556   4.569  2.0529 -0.1040  0.5451
19927TIP3   OH281195   4.566   1.432   3.615 -0.2567  0.1563  0.2281
19927TIP3    H181196   4.610   1.501   3.664  0.6333 -0.6157  0.5549
19927TIP3    H281197   4.585   1.352   3.665  0.1651 -0.5668 -1.0516
19928TIP3   OH281198   6.557   4.062  13.509 -0.1747  0.7837  0.1135
19928TIP3    H181199   6.612   4.043  13.433 -0.7361  0.1891 -0.1550
19928TIP3    H281200   6.571   4.155  13.526 -3.2097  2.1230 -3.3642
19929TIP3   OH281201   1.934   6.674   1.478  0.1575 -0.1274 -0.0851
19929TIP3    H181202   1.841   6.695   1.468  0.1463 -0.4099 -0.5944
19929TIP3    H281203   1.949   6.602   1.417  0.9274  0.5535 -0.7221
19930TIP3   OH281204   3.527   3.581  13.678 -0.2213 -0.0023  0.3926
19930TIP3    H181205   3.461   3.565  13.745  0.5199  1.4148  1.5143
19930TIP3    H281206   3.548   3.674  13.687  0.3272  0.0887 -1.4242
19931TIP3   OH281207   4.173   4.947   1.812  0.1451  0.4350 -0.0004
19931TIP3    H181208   4.205   4.898   1.888  0.1460 -1.0645 -0.9183
19931TIP3    H281209   4.097   4.897   1.782 -0.6275  1.7074 -0.2602
19932TIP3   OH281210   6.179   1.305   4.811 -0.4956  0.0396 -0.0422
19932TIP3    H181211   6.114   1.374   4.807 -1.7458 -1.1320 -0.8035
19932TIP3    H281212   6.166   1.263   4.896  0.3124  0.7509  0.4522
19933TIP3   OH281213   6.488   6.290  14.463 -0.2234  1.3059 -0.5960
19933TIP3    H181214   6.574   6.253  14.484 -0.9978 -0.8033 -0.9059
19933TIP3    H281215   6.467   6.347  14.538  1.3660  1.7876 -0.4787
19934TIP3   OH281216   3.157   6.622  14.985  0.0366 -0.3916  0.1814
19934TIP3    H181217   3.217   6.615  15.059 -0.1692 -1.8545  0.2433
19934TIP3    H281218   3.121   6.534  14.975  0.6513 -0.4542 -2.1475
19935TIP3   OH281219   5.153   6.422  13.917  0.6601 -0.0406 -0.1509
19935TIP3    H181220   5.121   6.511  13.929  0.3705 -0.2100  0.3739
19935TIP3    H281221   5.205   6.425  13.837  2.6934  1.1529  1.1298
19936TIP3   OH281222   4.746   0.085   4.469 -0.1814  0.9692  0.1284
19936TIP3    H181223   4.800   0.163   4.466 -3.5112  3.5311  1.2076
19936TIP3    H281224   4.782   0.034   4.543  0.5425  2.6888  1.0104
19937TIP3   OH281225   1.029   5.085  11.407 -0.4850 -0.0858 -0.1673
19937TIP3    H181226   1.048   5.066  11.315  1.6271 -0.9590  0.3929
19937TIP3    H281227   1.112   5.114  11.443 -0.7898 -1.5369  1.8910
19938TIP3   OH281228   2.212   0.096  10.395  0.5758  0.9171  0.5106
19938TIP3    H181229   2.166   0.066  10.473  1.9400 -1.0530  0.6219
19938TIP3    H281230   2.145   0.100  10.327  0.0675 -1.1925  0.8439
19939TIP3   OH281231   3.855   3.587  13.699  0.0458 -0.3330  0.2742
19939TIP3    H181232   3.878   3.635  13.620 -0.8631 -1.0993 -0.4829
19939TIP3    H281233   3.892   3.639  13.771  0.4120  0.6614 -0.6095
19940TIP3   OH281234   3.799   4.698   2.173 -0.0672 -0.2670  0.4468
19940TIP3    H181235   3.732   4.764   2.159 -1.5014 -1.7846 -0.0861
19940TIP3    H281236   3.880   4.748   2.183 -0.7464  1.4708 -1.9672
19941TIP3   OH281237   0.923   2.297  12.132  0.1421 -0.6178  0.6443
19941TIP3    H181238   0.991   2.230  12.123 -0.1917 -0.7976 -0.6680
19941TIP3    H281239   0.889   2.309  12.044 -0.0285  1.0657  0.9118
19942TIP3   OH281240   2.748   4.809  13.149  0.2665 -0.0285 -0.2574
19942TIP3    H181241   2.836   4.774  13.159  0.1628 -0.1317  0.3411
19942TIP3    H281242   2.698   4.736  13.111 -0.4429 -1.3446  2.8819
19943TIP3   OH281243   0.733   6.471   4.915 -0.2525 -0.5466 -0.3687
19943TIP3    H181244   0.704   6.488   5.005 -0.3085 -1.7751 -0.1372
19943TIP3    H281245   0.656   6.434   4.872 -0.2176  0.0173 -0.9232
19944TIP3   OH281246   0.884   5.341  11.296 -0.4298 -0.4863  0.1513
19944TIP3    H181247   0.946   5.283  11.253 -1.6993 -1.1974 -0.7710
19944TIP3    H281248   0.860   5.295  11.376 -0.1341 -0.4276  0.2759
19945TIP3   OH281249   5.676   4.541  11.820 -0.0386  0.4779 -0.2844
19945TIP3    H181250   5.749   4.570  11.765 -0.6667  0.8172 -0.9656
19945TIP3    H281251   5.666   4.610  11.886 -0.3559  0.9256 -0.7868
19946TIP3   OH281252   4.220   1.035  11.799  0.1944  0.2976 -0.5268
19946TIP3    H181253   4.178   0.969  11.743 -0.3956  1.1123 -1.0663
19946TIP3    H281254   4.148   1.073  11.849  0.4913  0.7239 -0.4230
19947TIP3   OH281255   2.618   0.747  11.548 -0.6273  0.1105  0.3812
19947TIP3    H181256   2.610   0.685  11.476  0.1018 -0.5740  0.8778
19947TIP3    H281257   2.613   0.833  11.506 -1.7351 -0.2671 -0.3003
19948TIP3   OH281258   5.654   2.132  16.367  0.4107 -0.6247  0.0495
19948TIP3    H181259   5.644   2.087  16.451  0.0597  1.1076  0.9845
19948TIP3    H281260   5.714   2.204  16.387 -0.2939  0.2682 -1.0096
19949TIP3   OH281261   1.872   2.524  15.131 -0.1668  0.0612  0.5577
19949TIP3    H181262   1.810   2.595  15.113  0.7035  0.8702  0.6745
19949TIP3    H281263   1.913   2.507  15.047 -2.0857 -2.0344 -0.0503
19950TIP3   OH281264   1.003   0.519  11.454  0.2000 -0.3650 -0.4485
19950TIP3    H181265   0.953   0.591  11.417 -0.1512 -0.8761 -0.9816
19950TIP3    H281266   0.945   0.481  11.520  0.1323 -0.5582 -0.6182
19951TIP3   OH281267   5.193   4.888  10.846  0.3473 -0.4949  0.0373
19951TIP3    H181268   5.105   4.849  10.848  1.1939 -2.6769 -1.4397
19951TIP3    H281269   5.230   4.870  10.932 -1.5594  3.0151  1.7992
19952TIP3   OH281270   0.168   1.900   3.980 -0.3862  0.4730 -0.1074
19952TIP3    H181271   0.218   1.822   3.955 -1.2517  0.0369 -0.4995
19952TIP3    H281272   0.175   1.902   4.076  0.6725  0.6209 -0.1765
19953TIP3   OH281273   0.571   1.452  13.488 -0.0651  0.2581  0.4414
19953TIP3    H181274   0.565   1.513  13.414  1.2023 -1.1246 -0.8723
19953TIP3    H281275   0.513   1.379  13.463  2.3256 -1.4464 -0.5251
19954TIP3   OH281276   5.253   6.630   1.610 -0.2644 -0.0656  0.3997
19954TIP3    H181277   5.288   6.697   1.669  3.5898 -1.1864 -0.3349
19954TIP3    H281278   5.232   6.557   1.668 -2.7281  1.0054  0.9828
19955TIP3   OH281279   2.740   4.154  14.544 -0.3662  0.3493  0.2382
19955TIP3    H181280   2.734   4.171  14.638 -0.7771 -1.4227  0.5880
19955TIP3    H281281   2.653   4.121  14.520 -0.6667  1.9753 -1.0617
19956TIP3   OH281282   2.358   1.806  10.908  0.5920  0.0038  0.4201
19956TIP3    H181283   2.346   1.839  10.997  1.1771 -1.9195  1.2667
19956TIP3    H281284   2.271   1.776  10.882  0.3514  0.8672  0.1939
19957TIP3   OH281285   2.414   4.354   1.957 -0.1812  0.4568  0.7173
19957TIP3    H181286   2.345   4.417   1.975 -1.1887  0.1004 -1.5764
19957TIP3    H281287   2.396   4.281   2.016 -1.4523  0.6011  0.5271
19958TIP3   OH281288   4.674   3.144  16.369 -0.3423 -0.2609  0.2382
19958TIP3    H181289   4.649   3.219  16.316 -0.5857 -0.4557  0.0752
19958TIP3    H281290   4.592   3.096  16.383 -0.4738  0.3235  1.6475
19959TIP3   OH281291   0.472   4.713  14.983  0.2063  0.4813  0.4845
19959TIP3    H181292   0.402   4.695  14.920 -0.0920 -2.4808  1.5176
19959TIP3    H281293   0.546   4.662  14.953  1.6412  2.6349  0.0973
19960TIP3   OH281294   6.275   4.877  16.741 -0.2946 -0.0325 -0.5403
19960TIP3    H181295   6.370   4.871  16.754 -0.1297  1.3564 -0.8692
19960TIP3    H281296   6.264   4.875  16.645 -0.0870  4.4076 -0.8754
19961TIP3   OH281297   3.759   4.130  16.291  0.1856 -0.2993 -0.0365
19961TIP3    H181298   3.791   4.081  16.215  0.5005  1.0703 -0.8141
19961TIP3    H281299   3.708   4.066  16.340  1.9731 -1.8799 -0.1050
19962TIP3   OH281300   5.114   6.132  11.060  0.5038  0.1835 -0.3589
19962TIP3    H181301   5.040   6.104  11.006  1.1440 -0.1806 -1.0712
19962TIP3    H281302   5.191   6.101  11.012  1.1596  1.3799 -0.1230
19963TIP3   OH281303   6.294   3.003   4.509  0.3277 -0.6493 -0.2653
19963TIP3    H181304   6.215   2.964   4.472  0.3985  0.0965 -1.2467
19963TIP3    H281305   6.365   2.971   4.454  0.5980 -0.5698  0.0329
19964TIP3   OH281306   3.563   1.576  13.680  0.2556  0.1323  0.0927
19964TIP3    H181307   3.561   1.491  13.725  0.0573 -0.3201 -0.7449
19964TIP3    H281308   3.568   1.554  13.587 -1.8301  0.9934 -0.2901
19965TIP3   OH281309   1.360   0.717   2.514  0.2027 -0.1418  0.1828
19965TIP3    H181310   1.306   0.640   2.500  2.1757 -1.8396  1.3099
19965TIP3    H281311   1.299   0.785   2.541 -1.6169 -1.2418 -0.9827
19966LIG     O181312   3.505   3.044  14.033 -0.4572 -0.4361 -0.1594
19966LIG     O281313   3.685   3.194  14.163 -0.6452  0.4410  0.1165
19966LIG     O381314   3.358   3.262  13.900 -0.2157 -0.6246 -0.5943
19966LIG     O481315   3.910   3.216  14.095  0.3641 -0.2137 -0.1786
19966LIG     O581316   3.763   3.279  13.819 -0.0602 -0.4399 -0.1171
19966LIG     O681317   3.733   3.576  13.948  0.1948  0.3165 -0.7765
19966LIG     O781318   3.899   3.581  14.183 -0.6704 -0.1454  0.8418
19966LIG     O881319   4.029   3.217  14.356  0.5286 -0.3824 -0.1892
19966LIG     O981320   3.883   3.379  14.411  0.3335  0.2015  0.0019
19966LIG      N81321   3.259   2.805  14.392  0.1953 -0.1798  0.4340
19966LIG     C181322   3.448   2.941  14.231  0.0408  0.2103  0.4389
19966LIG     C281323   3.464   2.949  14.388 -0.9211 -0.6543  0.2321
19966LIG     C381324   3.572   2.979  14.148  0.4407  0.3264  0.2473
19966LIG     C481325   3.325   2.932  14.442 -0.1985 -0.5822  0.1375
19966LIG     C581326   3.373   2.818  14.180 -0.1701  1.1732  0.2702
19966LIG     C681327   3.351   3.049  14.201 -0.5232 -0.2932 -0.5970
19966LIG     C781328   3.236   3.066  14.425 -0.4288 -0.1193 -0.4975
19966LIG     C881329   3.242   2.795  14.245 -0.0011 -0.3407  0.3114
19966LIG     C981330   3.673   3.062  14.221 -0.2675  0.3117 -0.2378
19966LIG    C1081331   3.259   3.117  14.281  0.3678  0.4656 -0.6737
19966LIG    C1181332   3.555   3.058  14.448  0.0734  0.8623 -0.1948
19966LIG    C1281333   3.398   3.113  14.087 -1.2054  0.7707  0.3847
19966LIG    C1381334   3.657   3.108  14.365 -0.0186 -0.7115 -0.4668
19966LIG    C1481335   3.139   2.762  14.465  0.2741  0.0100 -0.9613
19966LIG    C1581336   3.182   3.225  14.225 -1.0044  0.5941 -0.2589
19966LIG    C1681337   3.327   3.216  14.029  0.3953 -0.0283  0.1312
19966LIG    C1781338   3.227   3.280  14.102  0.5562  0.1562 -0.2860
19966LIG    C1881339   3.776   3.203  14.055 -0.1980 -0.3672  0.1747
19966LIG    C1981340   3.738   3.321  13.959  0.2268 -0.3719  0.3693
19966LIG    C2081341   3.805   3.457  13.993 -0.7665  0.4574  0.1945
19966LIG    C2181342   3.843   3.458  14.138  0.7538  0.1463  0.2224
19966LIG    C2281343   3.935   3.339  14.170  0.4796 -0.1518 -0.1535
19966LIG    C2381344   3.943   3.322  14.326 -0.3669 -0.1491 -0.1433
19966LIG     H181345   3.516   2.856  14.422 -0.4516 -0.3951  0.2360
19966LIG     H281346   3.630   2.898  14.098  0.6415  0.5639  0.0933
19966LIG     H381347   3.333   2.920  14.552 -1.4022 -1.0185  0.1996
19966LIG     H481348   3.439   2.731  14.200 -0.2413  1.6899  3.0798
19966LIG     H581349   3.371   2.830  14.069  1.1874 -0.8735 -0.0178
19966LIG     H681350   3.269   3.143  14.499  1.0178 -1.5047  0.3548
19966LIG     H781351   3.127   3.047  14.436 -0.1118 -0.8950  1.8364
19966LIG     H881352   3.161   2.864  14.215  0.6420  0.6394  0.7531
19966LIG     H981353   3.203   2.695  14.217 -1.9096  0.0809  1.2987
19966LIG    H1081354   3.774   3.018  14.206  0.0343  1.8099 -3.2973
19966LIG    H1181355   3.527   3.113  14.538  0.8538  1.0305 -0.0429
19966LIG    H1281356   3.699   3.209  14.381 -1.2226 -0.2094 -0.3502
19966LIG    H1381357   3.045   2.790  14.413 -0.5211  2.5248  1.5572
19966LIG    H1481358   3.135   2.819  14.560 -0.5367  2.0259 -2.1258
19966LIG    H1581359   3.141   2.655  14.495 -0.6476  0.3013  0.2015
19966LIG    H1681360   3.106   3.260  14.294  1.0883 -1.5861  3.5185
19966LIG    H1781361   3.171   3.363  14.063 -0.4947 -0.1079  0.6058
19966LIG    H1881362   3.772   3.115  13.987 -1.2276  1.8554 -2.8847
19966LIG    H1981363   3.630   3.327  13.985  0.8098  0.4311  2.8857
19966LIG    H2081364   3.902   3.459  13.937 -0.7349 -0.3564  0.2031
19966LIG    H2181365   3.271   3.283  13.865 -0.0455 -0.5044 -0.9525
19966LIG    H2281366   3.747   3.452  14.192 -0.3074  3.3176 -1.0675
19966LIG    H2381367   4.035   3.376  14.141 -1.1437  4.0149 -1.2747
19966LIG    H2481368   3.680   3.238  13.792 -0.6940  0.7449 -0.0364
19966LIG    H2581369   3.742   3.564  13.853 -0.4161  1.8320 -1.0590
19966LIG    H2681370   3.835   3.646  14.156 -0.0065  0.5121  0.8043
19966LIG    H2781371   4.049   3.203  14.449  0.8754 -2.4410 -0.5255
   6.79046   6.79046  17.25085
